Title
81392
    1CHL1    C3    1   1.822   6.564  10.352  0.2406  0.3479 -0.3015
    1CHL1    H3    2   1.742   6.642  10.351  0.3266  0.4370 -0.2532
    1CHL1    O3    3   1.833   6.520  10.490  0.1737  0.5461  0.1625
    1CHL1   H3'    4   1.906   6.461  10.509  0.9405  1.3589 -0.2375
    1CHL1    C4    5   1.765   6.457  10.271 -0.7929 -0.3133  0.3787
    1CHL1   H4A    6   1.830   6.368  10.281  0.2354  0.1874 -1.3599
    1CHL1   H4B    7   1.671   6.430  10.324 -0.6189  0.1054  0.8999
    1CHL1    C5    8   1.756   6.480  10.119  0.3933 -0.3355 -0.3106
    1CHL1    C6    9   1.645   6.463  10.051 -0.4166 -0.4055  0.2036
    1CHL1    H6   10   1.551   6.438  10.104 -0.7381 -0.1947 -0.2586
    1CHL1    C7   11   1.637   6.487   9.903 -0.4460 -0.0306  0.6562
    1CHL1   H7A   12   1.580   6.404   9.855 -0.5016  1.4685 -2.1218
    1CHL1   H7B   13   1.575   6.579   9.892 -2.5308 -1.5375 -1.4164
    1CHL1    C8   14   1.779   6.515   9.834 -0.4325 -0.6156 -0.3011
    1CHL1    H8   15   1.815   6.411   9.821 -2.3972 -1.2725 -0.8793
    1CHL1   C14   16   1.760   6.576   9.696 -0.2952 -0.5823 -0.1522
    1CHL1   H14   17   1.729   6.682   9.704  0.8523 -0.1589 -1.0282
    1CHL1   C15   18   1.668   6.495   9.602  0.1629  0.4399 -0.2527
    1CHL1  H15A   19   1.703   6.390   9.615  2.0118  0.8980 -1.1642
    1CHL1  H15B   20   1.559   6.509   9.622 -0.0982 -1.3274 -0.2463
    1CHL1   C16   21   1.714   6.549   9.457  0.8841 -0.8300 -0.7204
    1CHL1  H16A   22   1.727   6.460   9.391 -4.6006 -3.1454  0.7362
    1CHL1  H16B   23   1.631   6.611   9.417  0.0998 -0.9348  0.6941
    1CHL1   C17   24   1.838   6.642   9.486  0.4815 -0.4168 -0.2262
    1CHL1   H17   25   1.805   6.744   9.515  1.8417 -0.4640  1.6331
    1CHL1   C13   26   1.894   6.594   9.622  0.7362  0.3161  0.2573
    1CHL1   C18   27   1.980   6.468   9.605 -0.1744  0.3719  0.2360
    1CHL1  H18A   28   1.924   6.387   9.552 -0.0470  0.1848  0.3895
    1CHL1  H18B   29   2.075   6.483   9.550 -0.8098 -0.9581 -1.3030
    1CHL1  H18C   30   2.015   6.427   9.701  0.6844 -0.5895 -0.4635
    1CHL1   C12   31   1.976   6.703   9.700 -0.3800  0.0597 -0.3638
    1CHL1  H12A   32   2.084   6.698   9.674 -0.6411  0.7408 -1.7098
    1CHL1  H12B   33   1.943   6.808   9.685 -1.0347 -0.1106 -0.1300
    1CHL1   C11   34   1.988   6.664   9.850 -0.0480  0.4657  0.2537
    1CHL1  H11A   35   2.071   6.590   9.848 -1.9585 -1.7798 -0.0157
    1CHL1  H11B   36   2.032   6.755   9.897  2.4344  0.3966 -1.7366
    1CHL1    C9   37   1.864   6.603   9.922 -0.1437  1.1716  0.6928
    1CHL1    H9   38   1.803   6.691   9.952 -0.8576  0.6502  0.7913
    1CHL1   C10   39   1.898   6.535  10.057  0.6370 -0.3130  0.8762
    1CHL1   C19   40   1.991   6.417  10.034 -0.3288 -1.1133  0.6065
    1CHL1  H19A   41   2.093   6.451  10.006 -0.8950 -1.1647 -1.7857
    1CHL1  H19B   42   1.999   6.366  10.132 -3.6030  0.9224  2.1095
    1CHL1  H19C   43   1.952   6.350   9.953  1.7782 -0.3044 -1.1724
    1CHL1    C1   44   1.953   6.637  10.143  0.1702  0.1340  0.5025
    1CHL1   H1A   45   2.059   6.659  10.116 -0.1333 -0.3149 -1.1534
    1CHL1   H1B   46   1.884   6.724  10.150 -0.8287 -0.6787  1.0399
    1CHL1    C2   47   1.963   6.602  10.297  0.0599  0.1996 -0.1494
    1CHL1   H2A   48   1.998   6.699  10.340 -0.4726  0.5208 -0.4320
    1CHL1   H2B   49   2.034   6.522  10.327 -1.4984 -1.0539  0.3087
    1CHL1   C20   50   1.927   6.658   9.362 -0.0237  0.3378  0.5531
    1CHL1   H20   51   1.981   6.563   9.337  0.6996  1.4631 -2.7365
    1CHL1   C21   52   2.032   6.768   9.386 -0.6195 -0.4134  0.0864
    1CHL1  H21A   53   2.105   6.796   9.307 -1.2978 -1.0634 -0.7893
    1CHL1  H21B   54   2.100   6.737   9.469 -2.4952 -1.3826  1.3262
    1CHL1  H21C   55   1.985   6.863   9.418 -0.2490 -0.6368  1.3687
    1CHL1   C22   56   1.850   6.681   9.227 -0.5945 -0.4024  0.4905
    1CHL1  H22A   57   1.771   6.604   9.213 -0.0707 -1.0972  1.2532
    1CHL1  H22B   58   1.814   6.786   9.232  2.9486  1.0861 -1.6694
    1CHL1   C23   59   1.936   6.674   9.104  0.1961 -0.2848 -0.1319
    1CHL1  H23A   60   2.011   6.755   9.110 -2.4881  2.3375 -0.1097
    1CHL1  H23B   61   1.981   6.572   9.112  2.4635  0.8094  3.0400
    1CHL1   C24   62   1.847   6.684   8.975 -0.0414 -0.1607 -0.2554
    1CHL1  H24A   63   1.750   6.629   8.980 -0.1266 -0.0080 -0.2166
    1CHL1  H24B   64   1.819   6.792   8.975 -0.5456 -0.2855 -0.6981
    1CHL1   C25   65   1.935   6.666   8.849 -0.1572  0.2068  0.2829
    1CHL1   H25   66   1.993   6.571   8.850 -0.2536  0.1428 -0.1641
    1CHL1   C26   67   1.839   6.659   8.733 -0.1902  0.3831  0.0263
    1CHL1  H26A   68   1.766   6.742   8.723 -0.2864  0.3661  0.5588
    1CHL1  H26B   69   1.899   6.673   8.641  1.6895 -1.1947  0.9463
    1CHL1  H26C   70   1.778   6.566   8.727  2.2369 -1.1912 -3.4777
    1CHL1   C27   71   2.024   6.791   8.827 -0.6614  0.1060  0.1180
    1CHL1  H27A   72   1.972   6.890   8.834 -1.7859 -0.3094 -1.8020
    1CHL1  H27B   73   2.117   6.784   8.887  1.0013  1.9690 -2.0806
    1CHL1  H27C   74   2.048   6.790   8.719 -1.1940 -0.0066 -0.0056
    2CHL1    C3   75   3.520   5.608  10.144 -0.1762 -0.0079 -0.0143
    2CHL1    H3   76   3.457   5.517  10.132  0.6136 -0.4212 -1.1038
    2CHL1    O3   77   3.516   5.632  10.290 -0.6848  0.4964  0.7460
    2CHL1   H3'   78   3.577   5.706  10.296 -0.1172 -0.0012  1.1504
    2CHL1    C4   79   3.667   5.588  10.090 -1.0983  1.0547 -0.0273
    2CHL1   H4A   80   3.729   5.675  10.119  0.8578 -0.5169  0.7151
    2CHL1   H4B   81   3.700   5.495  10.141 -0.1573 -0.0468 -2.4766
    2CHL1    C5   82   3.657   5.576   9.940 -0.5239  0.6631 -0.0264
    2CHL1    C6   83   3.720   5.475   9.883 -0.0560  0.4257  1.3408
    2CHL1    H6   84   3.770   5.394   9.937 -1.1152 -1.1828  0.0406
    2CHL1    C7   85   3.730   5.460   9.729  0.3206  0.0417 -1.0522
    2CHL1   H7A   86   3.832   5.430   9.697  0.3628 -2.4616  1.0629
    2CHL1   H7B   87   3.664   5.376   9.698  0.8448 -0.7521 -0.0913
    2CHL1    C8   88   3.679   5.585   9.654  0.1436 -0.2028 -0.2658
    2CHL1    H8   89   3.754   5.666   9.654  0.2765 -0.3088  0.8371
    2CHL1   C14   90   3.640   5.547   9.511  0.5701 -0.1468 -0.0697
    2CHL1   H14   91   3.555   5.474   9.516 -1.4011  1.9855 -0.8093
    2CHL1   C15   92   3.748   5.467   9.440 -0.2538  0.0088 -0.5029
    2CHL1  H15A   93   3.843   5.519   9.466  1.3367 -2.6397 -0.7413
    2CHL1  H15B   94   3.748   5.363   9.478  2.3272 -0.2508 -1.0410
    2CHL1   C16   95   3.706   5.472   9.296 -0.8524  0.3897  0.1334
    2CHL1  H16A   96   3.799   5.505   9.243 -1.2557  2.9584  0.8941
    2CHL1  H16B   97   3.687   5.374   9.248  3.1148  0.3477 -1.8142
    2CHL1   C17   98   3.588   5.571   9.283 -0.3385 -0.0540 -0.7643
    2CHL1   H17   99   3.491   5.518   9.292 -1.2793  1.5813 -1.0027
    2CHL1   C13  100   3.604   5.660   9.420  0.1133 -0.4080  0.7012
    2CHL1   C18  101   3.716   5.769   9.396 -1.0942 -0.3919  0.2539
    2CHL1  H18A  102   3.745   5.827   9.486  1.0707  0.0312 -0.6642
    2CHL1  H18B  103   3.815   5.743   9.354 -1.1196  1.1436 -0.8061
    2CHL1  H18C  104   3.679   5.844   9.324  0.5206  0.7409  0.5550
    2CHL1   C12  105   3.476   5.734   9.479 -0.4731  0.1801  0.2823
    2CHL1  H12A  106   3.435   5.823   9.427  0.2119  1.0003  1.0966
    2CHL1  H12B  107   3.406   5.649   9.493 -0.6473  0.0041 -1.4234
    2CHL1   C11  108   3.510   5.783   9.626 -0.2354  0.0388 -0.3134
    2CHL1  H11A  109   3.581   5.868   9.619  0.7911 -0.8268 -0.5655
    2CHL1  H11B  110   3.417   5.828   9.667  1.4599  3.3810  0.2360
    2CHL1    C9  111   3.555   5.654   9.720 -0.1970 -0.0063  0.0967
    2CHL1    H9  112   3.481   5.572   9.717  0.7041 -0.8534  0.4409
    2CHL1   C10  113   3.582   5.693   9.869 -0.0241  0.0736  0.3304
    2CHL1   C19  114   3.668   5.819   9.889 -0.1705  0.3302  0.5566
    2CHL1  H19A  115   3.769   5.810   9.845 -0.1793  3.5515 -0.3903
    2CHL1  H19B  116   3.627   5.909   9.838 -0.2207 -0.7827 -1.4756
    2CHL1  H19C  117   3.680   5.843   9.996 -1.3898  0.9151  0.5874
    2CHL1    C1  118   3.446   5.710   9.927  0.1820 -0.6653  0.2433
    2CHL1   H1A  119   3.397   5.804   9.893 -0.8682 -1.5038 -0.6641
    2CHL1   H1B  120   3.379   5.627   9.894 -0.1651  0.0507 -0.8989
    2CHL1    C2  121   3.445   5.726  10.079 -0.3272 -0.5844  0.3811
    2CHL1   H2A  122   3.341   5.728  10.116 -1.4328 -0.1064 -2.4666
    2CHL1   H2B  123   3.492   5.824  10.101 -0.0227 -0.4255 -0.8695
    2CHL1   C20  124   3.586   5.652   9.157  0.2007 -0.0582  0.3389
    2CHL1   H20  125   3.660   5.735   9.161 -0.1151  0.1939  1.4092
    2CHL1   C21  126   3.439   5.702   9.138 -0.1522 -0.3888 -0.1486
    2CHL1  H21A  127   3.372   5.614   9.126  0.6365 -1.0378  0.1065
    2CHL1  H21B  128   3.423   5.764   9.048 -3.9218  0.2506  0.7981
    2CHL1  H21C  129   3.400   5.752   9.229 -1.1836 -0.6361 -0.4436
    2CHL1   C22  130   3.621   5.555   9.031  0.0328 -0.2232  0.6492
    2CHL1  H22A  131   3.705   5.486   9.051  0.5900 -0.3184 -1.7700
    2CHL1  H22B  132   3.538   5.487   9.002 -0.0725  0.5056 -0.8860
    2CHL1   C23  133   3.656   5.643   8.906  0.0057 -0.7446 -0.4335
    2CHL1  H23A  134   3.577   5.718   8.886  2.4643  2.3927  0.7810
    2CHL1  H23B  135   3.754   5.694   8.915  0.3276 -1.2291 -1.0785
    2CHL1   C24  136   3.668   5.564   8.775  0.5465  0.7066  0.4066
    2CHL1  H24A  137   3.709   5.468   8.813 -2.8486  0.2213  3.5121
    2CHL1  H24B  138   3.570   5.529   8.736  1.5477  0.5715 -2.1753
    2CHL1   C25  139   3.736   5.641   8.658 -0.6858 -0.2724 -0.3452
    2CHL1   H25  140   3.821   5.708   8.685  1.1056 -2.2046 -0.9470
    2CHL1   C26  141   3.809   5.544   8.561  0.0662  0.5444 -0.3384
    2CHL1  H26A  142   3.844   5.611   8.479 -0.8618  0.5492 -0.7416
    2CHL1  H26B  143   3.893   5.488   8.606 -0.6003  1.1565  1.7592
    2CHL1  H26C  144   3.724   5.484   8.521  0.5020  0.2177 -0.7866
    2CHL1   C27  145   3.636   5.715   8.574  0.3688 -0.0310  0.3662
    2CHL1  H27A  146   3.689   5.797   8.520 -2.4300  1.7465  0.1370
    2CHL1  H27B  147   3.588   5.649   8.498  0.6703 -0.2954  0.4004
    2CHL1  H27C  148   3.566   5.773   8.637 -0.5220  0.2935 -0.8777
    3CHL1    C3  149   3.439   3.401  10.300 -0.4750 -0.1840 -0.5659
    3CHL1    H3  150   3.373   3.319  10.266  0.2215 -0.4515 -1.3228
    3CHL1    O3  151   3.430   3.429  10.444 -0.4095  0.2698  0.3322
    3CHL1   H3'  152   3.500   3.371  10.475 -0.3640 -0.8515 -1.7288
    3CHL1    C4  153   3.583   3.353  10.277 -0.3183  0.4808  0.1912
    3CHL1   H4A  154   3.650   3.437  10.304  2.4315 -1.1518 -1.1279
    3CHL1   H4B  155   3.614   3.270  10.343 -0.8801  1.4747  1.7525
    3CHL1    C5  156   3.603   3.331  10.130  0.1909 -0.3988  0.7599
    3CHL1    C6  157   3.672   3.219  10.096  0.0250 -0.1064 -0.1236
    3CHL1    H6  158   3.697   3.155  10.182 -1.3525  1.4904  1.5371
    3CHL1    C7  159   3.705   3.179   9.949  0.2066 -1.0588 -0.5351
    3CHL1   H7A  160   3.814   3.158   9.946  1.0210  2.0797  1.7183
    3CHL1   H7B  161   3.637   3.093   9.935 -0.9259 -0.1568 -0.6605
    3CHL1    C8  162   3.684   3.298   9.852 -0.7642 -0.9330  0.3296
    3CHL1    H8  163   3.780   3.352   9.861  0.2108 -2.5937  0.3500
    3CHL1   C14  164   3.663   3.245   9.712 -0.4727  0.1806  0.4215
    3CHL1   H14  165   3.562   3.198   9.708 -0.8266  0.9562  0.0233
    3CHL1   C15  166   3.761   3.137   9.665  0.3249  0.3245 -0.1320
    3CHL1  H15A  167   3.867   3.158   9.692  0.6437 -1.3001  0.0009
    3CHL1  H15B  168   3.737   3.038   9.708 -1.0569  1.3053  1.4670
    3CHL1   C16  169   3.746   3.139   9.512  0.6534  0.2190  0.1741
    3CHL1  H16A  170   3.840   3.137   9.453  0.5883 -1.1331  0.0826
    3CHL1  H16B  171   3.694   3.052   9.467  3.1554  0.1578 -2.9014
    3CHL1   C17  172   3.650   3.256   9.475  0.0908  0.6156 -0.5542
    3CHL1   H17  173   3.551   3.205   9.467  1.6970 -2.4920 -2.3048
    3CHL1   C13  174   3.657   3.348   9.599 -0.1648  0.0963  0.3791
    3CHL1   C18  175   3.795   3.417   9.595  0.0364  0.3101 -0.8301
    3CHL1  H18A  176   3.832   3.452   9.693 -1.7107  0.8460 -0.3139
    3CHL1  H18B  177   3.874   3.355   9.547  1.1981 -0.2299  1.6589
    3CHL1  H18C  178   3.789   3.516   9.545 -1.1134  1.5476  1.6040
    3CHL1   C12  179   3.540   3.443   9.634  0.1717  0.1522  0.2788
    3CHL1  H12A  180   3.539   3.533   9.569  0.8780  1.3001  1.7948
    3CHL1  H12B  181   3.446   3.388   9.613  1.4112 -1.7147 -0.6276
    3CHL1   C11  182   3.548   3.506   9.775 -0.1918  0.3563  0.2660
    3CHL1  H11A  183   3.633   3.578   9.778 -1.9981  2.6506 -0.7186
    3CHL1  H11B  184   3.457   3.566   9.796 -0.1522  0.3553  0.4453
    3CHL1    C9  185   3.563   3.390   9.880  0.9885 -0.6217  0.6542
    3CHL1    H9  186   3.473   3.324   9.876 -0.1948  0.8553  1.9341
    3CHL1   C10  187   3.550   3.441  10.034  0.6327  0.6846  0.3667
    3CHL1   C19  188   3.645   3.557  10.055 -0.4745  0.5420  0.1023
    3CHL1  H19A  189   3.751   3.535  10.031  0.5229  1.9874  2.6985
    3CHL1  H19B  190   3.618   3.642   9.989  1.0429 -0.9306 -2.5665
    3CHL1  H19C  191   3.641   3.600  10.157 -0.5066 -0.7346  0.6599
    3CHL1    C1  192   3.410   3.491  10.066  0.3780  0.2366  0.3521
    3CHL1   H1A  193   3.376   3.575  10.002  1.1942 -1.1105 -2.0137
    3CHL1   H1B  194   3.341   3.406  10.046  0.9193  0.1125 -1.1300
    3CHL1    C2  195   3.394   3.520  10.217  0.0928 -0.2818 -0.5589
    3CHL1   H2A  196   3.286   3.544  10.232 -0.0041  0.3357 -2.0790
    3CHL1   H2B  197   3.454   3.607  10.250  1.1701 -1.4483  0.6879
    3CHL1   C20  198   3.672   3.310   9.335  0.0557 -0.4457  0.8638
    3CHL1   H20  199   3.778   3.340   9.325 -0.3316  0.4529 -0.7180
    3CHL1   C21  200   3.578   3.431   9.304 -0.5407 -0.0577  0.3383
    3CHL1  H21A  201   3.606   3.481   9.209 -0.7714  0.1640  0.3862
    3CHL1  H21B  202   3.577   3.510   9.382 -0.9850 -0.4690  0.7584
    3CHL1  H21C  203   3.473   3.393   9.304 -1.2227  1.6711 -1.3609
    3CHL1   C22  204   3.661   3.204   9.229  0.1225 -0.1782 -0.0772
    3CHL1  H22A  205   3.733   3.119   9.234  0.1311 -0.1301  0.6690
    3CHL1  H22B  206   3.560   3.157   9.215 -0.0626 -0.0809  0.9047
    3CHL1   C23  207   3.678   3.255   9.079  0.7022  0.1520  0.1498
    3CHL1  H23A  208   3.593   3.323   9.059  0.8383  0.8645  1.8078
    3CHL1  H23B  209   3.770   3.317   9.074  2.1477 -1.8536  0.6309
    3CHL1   C24  210   3.687   3.139   8.983  0.9164 -0.5476  1.6054
    3CHL1  H24A  211   3.785   3.090   8.996  2.1368  0.8429 -1.3829
    3CHL1  H24B  212   3.598   3.073   8.996  0.2282 -1.2070 -3.8747
    3CHL1   C25  213   3.711   3.183   8.839 -0.4790 -0.5676  0.3055
    3CHL1   H25  214   3.707   3.085   8.788  1.4725 -0.3531 -0.3461
    3CHL1   C26  215   3.601   3.273   8.787  0.4526  0.7947  0.0293
    3CHL1  H26A  216   3.594   3.364   8.850  1.6761  0.4022  0.7551
    3CHL1  H26B  217   3.614   3.310   8.682 -1.2730 -1.2508 -0.9838
    3CHL1  H26C  218   3.502   3.224   8.792  0.2612  1.2281  0.6482
    3CHL1   C27  219   3.846   3.250   8.814  0.0181  0.2255 -0.3074
    3CHL1  H27A  220   3.867   3.274   8.707  3.1469 -0.4527  0.0517
    3CHL1  H27B  221   3.844   3.348   8.866 -0.8762 -0.0562  0.2072
    3CHL1  H27C  222   3.930   3.192   8.857 -0.2227  0.2337  0.1707
    4CHL1    C3  223   3.188   0.037  10.598  0.6751  0.1759 -1.0063
    4CHL1    H3  224   3.150  -0.050  10.541 -0.5054 -1.0491  1.5098
    4CHL1    O3  225   3.174  -0.002  10.739 -0.4577 -0.5824  0.4503
    4CHL1   H3'  226   3.259   0.022  10.777  1.1543  0.8286 -3.5098
    4CHL1    C4  227   3.336   0.057  10.573 -0.4837 -0.3080 -0.2200
    4CHL1   H4A  228   3.375   0.134  10.642  0.0753 -3.4238  3.2198
    4CHL1   H4B  229   3.387  -0.035  10.610  1.4595  1.1351  0.8934
    4CHL1    C5  230   3.378   0.078  10.428 -0.9684 -0.2883  0.2215
    4CHL1    C6  231   3.468   0.006  10.366  0.2444  0.0170 -0.1692
    4CHL1    H6  232   3.516  -0.080  10.416 -1.1108 -1.6037 -1.5188
    4CHL1    C7  233   3.515   0.029  10.221 -0.3156  0.3727  0.5910
    4CHL1   H7A  234   3.626   0.032  10.226 -0.1788 -1.7501 -0.2183
    4CHL1   H7B  235   3.478  -0.054  10.157  3.5204 -1.4833  0.5042
    4CHL1    C8  236   3.457   0.165  10.171  0.1879  0.7207  1.0912
    4CHL1    H8  237   3.524   0.244  10.213  0.3461  0.1460  1.9493
    4CHL1   C14  238   3.465   0.155  10.017  0.4920 -0.5930  0.2312
    4CHL1   H14  239   3.398   0.070   9.994  0.9586 -0.6632 -0.9660
    4CHL1   C15  240   3.600   0.122   9.950  0.1358 -0.1032 -0.3870
    4CHL1  H15A  241   3.682   0.175  10.003 -1.3179  0.1287  1.7546
    4CHL1  H15B  242   3.615   0.012   9.959  2.5184  0.1618 -0.4558
    4CHL1   C16  243   3.581   0.157   9.803 -0.6106 -0.3403 -0.3754
    4CHL1  H16A  244   3.648   0.239   9.768 -1.6814  0.3035 -0.9636
    4CHL1  H16B  245   3.576   0.069   9.735 -0.7812 -1.0669  0.5539
    4CHL1   C17  246   3.446   0.225   9.801  0.1163 -0.5122  1.0778
    4CHL1   H17  247   3.368   0.150   9.776 -1.6849  0.9687  1.9145
    4CHL1   C13  248   3.415   0.278   9.940  0.1878 -0.0378  0.8493
    4CHL1   C18  249   3.500   0.405   9.975 -0.2606  0.7722  0.2587
    4CHL1  H18A  250   3.459   0.485   9.909 -0.0861  1.0154  0.4403
    4CHL1  H18B  251   3.491   0.452  10.076  0.1160  1.7785 -0.1587
    4CHL1  H18C  252   3.608   0.388   9.956 -0.5018 -0.4478 -0.0686
    4CHL1   C12  253   3.265   0.298   9.973  0.5893 -0.0804 -0.2570
    4CHL1  H12A  254   3.223   0.395   9.939  2.4750  1.0777  0.5561
    4CHL1  H12B  255   3.214   0.220   9.912  0.0033  0.3819 -0.3673
    4CHL1   C11  256   3.257   0.294  10.123 -0.6595  0.6656  0.0024
    4CHL1  H11A  257   3.301   0.391  10.152 -0.9653  1.2193 -1.3003
    4CHL1  H11B  258   3.147   0.286  10.140 -0.6147 -1.1724 -0.3446
    4CHL1    C9  259   3.319   0.180  10.214  0.0275 -0.1554 -0.4203
    4CHL1    H9  260   3.265   0.088  10.182 -0.3041  0.1830 -0.8529
    4CHL1   C10  261   3.287   0.187  10.360  0.1720 -0.2382 -0.3787
    4CHL1   C19  262   3.335   0.323  10.409  0.4350 -0.3120 -0.0086
    4CHL1  H19A  263   3.442   0.337  10.383  0.6668 -0.4644  0.8186
    4CHL1  H19B  264   3.265   0.403  10.377 -0.8291  0.3952  3.9216
    4CHL1  H19C  265   3.339   0.327  10.520 -3.1608  1.8233  0.2047
    4CHL1    C1  266   3.142   0.167  10.400 -0.0413  0.4130 -0.6044
    4CHL1   H1A  267   3.082   0.257  10.371 -1.1650 -0.2336 -0.3603
    4CHL1   H1B  268   3.102   0.077  10.349  1.1956  0.2121 -1.2606
    4CHL1    C2  269   3.101   0.150  10.551 -0.5645 -0.2447  0.2183
    4CHL1   H2A  270   2.992   0.129  10.559 -0.5613 -0.2819  0.1663
    4CHL1   H2B  271   3.119   0.239  10.615 -0.6824  1.8928 -2.4988
    4CHL1   C20  272   3.421   0.321   9.681  0.4605  0.4959  0.5569
    4CHL1   H20  273   3.476   0.416   9.696  2.1251 -0.3658  0.2323
    4CHL1   C21  274   3.278   0.370   9.668 -0.2373  1.3501  0.1560
    4CHL1  H21A  275   3.264   0.444   9.750  0.0191  4.4788 -2.4109
    4CHL1  H21B  276   3.206   0.286   9.659 -0.6597  1.6975  0.2314
    4CHL1  H21C  277   3.273   0.417   9.567 -0.5652  1.8449  0.3985
    4CHL1   C22  278   3.467   0.269   9.537 -0.5606 -0.3479 -0.3146
    4CHL1  H22A  279   3.544   0.189   9.539  2.1282  1.8153 -3.8898
    4CHL1  H22B  280   3.380   0.207   9.506  0.4113 -1.4414 -0.9949
    4CHL1   C23  281   3.505   0.374   9.435 -0.0381 -0.2089  0.0000
    4CHL1  H23A  282   3.431   0.456   9.425  0.3752  0.4366  1.8787
    4CHL1  H23B  283   3.600   0.423   9.464 -0.5146  1.6773 -1.4430
    4CHL1   C24  284   3.529   0.316   9.293  0.0327  0.4700  0.2358
    4CHL1  H24A  285   3.563   0.210   9.300 -1.3483  0.0370  0.7662
    4CHL1  H24B  286   3.427   0.308   9.249 -0.5162 -2.1903  1.7693
    4CHL1   C25  287   3.629   0.409   9.218  0.6763  0.3105  0.2231
    4CHL1   H25  288   3.719   0.421   9.281  1.4771 -0.9677 -0.6429
    4CHL1   C26  289   3.675   0.333   9.085  0.0142 -0.2673  0.3733
    4CHL1  H26A  290   3.738   0.243   9.096  1.7170  0.8338 -0.0540
    4CHL1  H26B  291   3.578   0.305   9.038  0.8654 -2.3264 -0.2769
    4CHL1  H26C  292   3.723   0.398   9.008  0.4104 -4.6128 -3.5114
    4CHL1   C27  293   3.552   0.537   9.184 -0.2345  0.6102  0.3641
    4CHL1  H27A  294   3.523   0.587   9.279  2.8862  1.2092  1.1313
    4CHL1  H27B  295   3.624   0.604   9.132 -0.3526  0.7367  0.3635
    4CHL1  H27C  296   3.466   0.520   9.116  0.5083 -4.9545  0.3282
    5CHL1    C3  297   5.277   3.086  10.127 -0.1841 -0.5783  0.0559
    5CHL1    H3  298   5.255   2.980  10.149 -0.8609  0.2567  4.1136
    5CHL1    O3  299   5.286   3.148  10.252 -0.2984  0.4774  0.1280
    5CHL1   H3'  300   5.303   3.236  10.217 -0.1892 -0.8058 -3.4980
    5CHL1    C4  301   5.409   3.087  10.049 -0.1399 -0.5566 -0.3713
    5CHL1   H4A  302   5.459   3.186  10.059  0.9080 -1.0358 -0.7035
    5CHL1   H4B  303   5.479   3.020  10.103 -0.1549 -1.0748 -0.9876
    5CHL1    C5  304   5.396   3.049   9.900 -0.0100  0.3577 -0.0540
    5CHL1    C6  305   5.479   2.959   9.841 -0.8646 -0.3354  0.1408
    5CHL1    H6  306   5.547   2.906   9.909 -0.5738  2.2546  2.0350
    5CHL1    C7  307   5.483   2.930   9.690  0.3019  0.1871  0.0635
    5CHL1   H7A  308   5.580   2.947   9.638 -0.1095  0.1353 -0.7512
    5CHL1   H7B  309   5.454   2.824   9.674 -2.5151  1.1739 -2.3815
    5CHL1    C8  310   5.379   3.011   9.605  0.1539 -1.0096 -0.5354
    5CHL1    H8  311   5.414   3.116   9.591 -2.0588 -0.1931 -0.3841
    5CHL1   C14  312   5.351   2.946   9.479 -0.7858  0.4832 -1.1741
    5CHL1   H14  313   5.297   2.852   9.508 -1.4935  1.5963  1.3935
    5CHL1   C15  314   5.473   2.916   9.393  0.0395  0.3804  0.1234
    5CHL1  H15A  315   5.550   2.996   9.383  2.4512 -1.8163  0.0062
    5CHL1  H15B  316   5.518   2.827   9.443  0.6238 -0.0562 -1.1451
    5CHL1   C16  317   5.413   2.884   9.258  0.4916  0.9181  0.9547
    5CHL1  H16A  318   5.469   2.952   9.191  0.0974 -0.8142 -1.2315
    5CHL1  H16B  319   5.434   2.780   9.225  1.0285  1.1745  0.4721
    5CHL1   C17  320   5.266   2.923   9.259  0.1482 -0.2526  0.1046
    5CHL1   H17  321   5.215   2.828   9.287  1.7218 -1.1139  0.1990
    5CHL1   C13  322   5.254   3.014   9.390 -0.3507  0.2977 -0.1660
    5CHL1   C18  323   5.303   3.154   9.358  0.5078  0.1325  0.2503
    5CHL1  H18A  324   5.300   3.228   9.441 -1.1855 -0.0910  0.4331
    5CHL1  H18B  325   5.407   3.150   9.319 -0.0676  1.2747 -1.5496
    5CHL1  H18C  326   5.236   3.197   9.279  0.3850  0.7188  0.6639
    5CHL1   C12  327   5.122   3.026   9.465  0.4342  0.1266  0.9698
    5CHL1  H12A  328   5.043   3.084   9.412  1.7492  1.7986  0.7811
    5CHL1  H12B  329   5.081   2.929   9.502  3.8918 -1.2667  1.5710
    5CHL1   C11  330   5.137   3.099   9.601  0.3472  0.5395  0.2222
    5CHL1  H11A  331   5.169   3.204   9.586  0.3852  0.5697  0.5023
    5CHL1  H11B  332   5.043   3.102   9.660  0.5980 -0.5235  0.7032
    5CHL1    C9  333   5.253   3.041   9.687  0.1602 -0.4313  0.5276
    5CHL1    H9  334   5.210   2.941   9.712 -3.1008  0.6877 -0.1028
    5CHL1   C10  335   5.273   3.111   9.826 -0.6301  1.1455 -0.6168
    5CHL1   C19  336   5.302   3.266   9.808 -0.4367  0.1206 -0.4883
    5CHL1  H19A  337   5.327   3.322   9.900  0.5815 -1.2121  0.0730
    5CHL1  H19B  338   5.386   3.268   9.736 -1.2098  1.4055 -1.3900
    5CHL1  H19C  339   5.214   3.310   9.756 -0.3168 -2.2618 -2.9376
    5CHL1    C1  340   5.145   3.099   9.917 -0.1902  0.1530  0.0887
    5CHL1   H1A  341   5.055   3.154   9.883 -1.8642 -0.4328  3.1549
    5CHL1   H1B  342   5.115   2.993   9.932 -0.6169  0.1817 -0.5650
    5CHL1    C2  343   5.168   3.163  10.053  0.5221 -0.9442 -0.1280
    5CHL1   H2A  344   5.070   3.156  10.105 -1.2659  3.5041 -2.3694
    5CHL1   H2B  345   5.180   3.273  10.052 -2.6179 -0.5198 -1.1329
    5CHL1   C20  346   5.215   2.974   9.124 -0.4718  0.5557 -0.3013
    5CHL1   H20  347   5.274   3.068   9.116 -0.3448  0.7937  2.4275
    5CHL1   C21  348   5.066   3.011   9.127 -0.2679 -0.1622  0.2863
    5CHL1  H21A  349   5.034   3.060   9.032 -2.4606  3.7980  2.7825
    5CHL1  H21B  350   5.034   3.085   9.204  2.3768  1.6388 -0.1959
    5CHL1  H21C  351   5.005   2.919   9.129  0.6359 -0.7713  2.3326
    5CHL1   C22  352   5.247   2.869   9.011 -0.4513  1.1309  0.0196
    5CHL1  H22A  353   5.356   2.848   9.006 -0.6285 -0.4631  1.9181
    5CHL1  H22B  354   5.207   2.767   9.028  0.6323  0.9293  1.6272
    5CHL1   C23  355   5.204   2.920   8.873  0.3774 -0.5504  0.4315
    5CHL1  H23A  356   5.093   2.915   8.874  0.2555  1.3255 -0.1535
    5CHL1  H23B  357   5.229   3.026   8.854 -1.0232 -0.0358  1.2731
    5CHL1   C24  358   5.255   2.828   8.761  0.1978  0.8638  0.0438
    5CHL1  H24A  359   5.360   2.797   8.784 -0.6406 -1.0879  1.5451
    5CHL1  H24B  360   5.196   2.734   8.759 -0.0696  0.9451  1.9719
    5CHL1   C25  361   5.261   2.894   8.623 -0.9400 -0.1013  0.3901
    5CHL1   H25  362   5.319   2.987   8.633 -3.0809  1.5613 -1.6163
    5CHL1   C26  363   5.336   2.804   8.524  0.3601 -0.2519  0.3493
    5CHL1  H26A  364   5.437   2.777   8.560  0.4739  0.2171  0.3798
    5CHL1  H26B  365   5.281   2.707   8.520  0.1613 -0.1291  0.1202
    5CHL1  H26C  366   5.348   2.846   8.422  1.5305  0.9086  0.9426
    5CHL1   C27  367   5.124   2.936   8.574 -0.1834  0.2702  0.7289
    5CHL1  H27A  368   5.108   2.950   8.465  1.2775 -0.1236  0.4318
    5CHL1  H27B  369   5.053   2.857   8.605  0.4924 -0.8630 -0.5183
    5CHL1  H27C  370   5.098   3.036   8.614  2.1051  0.2704  2.4334
    6CHL1    C3  371   1.702   1.308  10.222  0.2871  0.4316  0.3710
    6CHL1    H3  372   1.644   1.400  10.242  1.6668  1.6744 -1.0455
    6CHL1    O3  373   1.778   1.269  10.336 -0.1718  0.3326  0.5688
    6CHL1   H3'  374   1.864   1.311  10.330  0.5557 -1.1308  0.3107
    6CHL1    C4  375   1.610   1.188  10.184  0.1098  0.0570  0.6351
    6CHL1   H4A  376   1.670   1.095  10.180  0.9687  0.6398 -0.1181
    6CHL1   H4B  377   1.536   1.171  10.266 -1.4276 -0.4889 -0.8171
    6CHL1    C5  378   1.542   1.209  10.045 -0.3344 -0.8268  0.9747
    6CHL1    C6  379   1.411   1.192  10.028  0.4513  1.1869 -0.1154
    6CHL1    H6  380   1.351   1.158  10.114 -0.3153 -0.9123 -1.4115
    6CHL1    C7  381   1.336   1.199   9.893 -0.3436 -0.2981  0.1454
    6CHL1   H7A  382   1.267   1.113   9.881 -2.1868  1.2375 -0.8869
    6CHL1   H7B  383   1.271   1.289   9.899 -2.9974 -1.9785 -1.5603
    6CHL1    C8  384   1.425   1.203   9.770  0.5836 -0.3346  0.1045
    6CHL1    H8  385   1.447   1.097   9.745 -1.4411 -0.5811 -0.8352
    6CHL1   C14  386   1.348   1.268   9.662  0.4028 -0.3955  0.1902
    6CHL1   H14  387   1.323   1.371   9.696  0.0821 -0.2842 -0.3735
    6CHL1   C15  388   1.204   1.209   9.626 -0.0352 -0.2157 -0.2970
    6CHL1  H15A  389   1.211   1.098   9.627 -0.9056 -0.3016  1.9770
    6CHL1  H15B  390   1.138   1.244   9.709  0.8706  2.6054 -0.6630
    6CHL1   C16  391   1.173   1.257   9.487 -0.5130 -0.3119  0.4099
    6CHL1  H16A  392   1.142   1.172   9.423 -3.4874  1.8459 -1.2500
    6CHL1  H16B  393   1.091   1.332   9.493  0.3843  0.5966  2.2453
    6CHL1   C17  394   1.298   1.327   9.437 -0.1331 -0.0690 -0.6429
    6CHL1   H17  395   1.288   1.432   9.471 -0.9835 -0.2476 -0.3066
    6CHL1   C13  396   1.412   1.273   9.523  0.2617  0.5002 -0.6716
    6CHL1   C18  397   1.447   1.135   9.474  0.0476 -0.1010  0.5257
    6CHL1  H18A  398   1.533   1.100   9.535 -0.0480 -1.7206 -0.2049
    6CHL1  H18B  399   1.364   1.063   9.491  0.4364 -0.6768  0.0332
    6CHL1  H18C  400   1.464   1.137   9.364  0.1506  1.0695  0.5494
    6CHL1   C12  401   1.539   1.366   9.545  0.4252 -0.3243 -0.0669
    6CHL1  H12A  402   1.602   1.357   9.453  0.9688 -0.6913  0.3353
    6CHL1  H12B  403   1.508   1.473   9.542  1.0871 -0.1293 -0.1713
    6CHL1   C11  404   1.627   1.329   9.671 -0.6848 -0.0025 -1.0612
    6CHL1  H11A  405   1.689   1.241   9.647 -1.7232 -0.8860 -0.5799
    6CHL1  H11B  406   1.714   1.398   9.682  1.5765 -2.8072 -0.0020
    6CHL1    C9  407   1.548   1.299   9.790  0.0891 -0.7341 -0.6565
    6CHL1    H9  408   1.503   1.395   9.822 -1.6228 -0.6873 -2.9594
    6CHL1   C10  409   1.629   1.251   9.919 -0.3165  0.1223 -0.1992
    6CHL1   C19  410   1.717   1.131   9.879 -0.5389  0.5072  0.3069
    6CHL1  H19A  411   1.787   1.164   9.799  0.0769  1.9757  1.4109
    6CHL1  H19B  412   1.786   1.091   9.956 -0.1438  1.6906  0.5935
    6CHL1  H19C  413   1.663   1.049   9.828  0.4761 -0.7101  1.1263
    6CHL1    C1  414   1.719   1.363   9.967 -0.1961 -0.3606  0.4153
    6CHL1   H1A  415   1.799   1.383   9.893  1.7978 -2.7010  1.7913
    6CHL1   H1B  416   1.653   1.452   9.971  1.4580  0.9995 -1.0156
    6CHL1    C2  417   1.794   1.337  10.104  0.4056  0.2029  0.2164
    6CHL1   H2A  418   1.839   1.434  10.135 -2.7092  1.8461  0.0451
    6CHL1   H2B  419   1.862   1.251  10.088 -0.5155 -0.3321 -0.9415
    6CHL1   C20  420   1.306   1.334   9.282 -0.4296 -0.6020  0.6032
    6CHL1   H20  421   1.320   1.231   9.244  0.4879 -0.0605 -0.6142
    6CHL1   C21  422   1.421   1.420   9.235 -0.0198 -0.3293  0.0261
    6CHL1  H21A  423   1.516   1.369   9.261  0.6146  0.1728 -1.2228
    6CHL1  H21B  424   1.412   1.524   9.272  2.7105 -0.8833  2.6964
    6CHL1  H21C  425   1.420   1.422   9.124 -0.0366 -0.2438  0.0287
    6CHL1   C22  426   1.174   1.379   9.221  0.1628  0.0318 -0.0730
    6CHL1  H22A  427   1.098   1.403   9.298 -0.1914  0.6784 -0.6203
    6CHL1  H22B  428   1.192   1.482   9.184 -0.2589 -0.1748 -0.8719
    6CHL1   C23  429   1.116   1.283   9.116  0.4225  0.2108 -0.0287
    6CHL1  H23A  430   1.195   1.272   9.039  1.8384  1.8617  1.1340
    6CHL1  H23B  431   1.076   1.194   9.169 -0.0750  1.9274  2.6698
    6CHL1   C24  432   1.003   1.355   9.038  0.0128  0.1836 -0.2574
    6CHL1  H24A  433   0.909   1.374   9.094 -0.7783 -0.3859 -1.3709
    6CHL1  H24B  434   1.036   1.451   8.992  0.7769 -0.1487 -0.4250
    6CHL1   C25  435   0.955   1.275   8.912 -0.7272 -0.1643  0.1962
    6CHL1   H25  436   1.031   1.272   8.831 -1.3536 -0.2093 -0.3966
    6CHL1   C26  437   0.953   1.123   8.953  0.9200 -1.0192  0.5503
    6CHL1  H26A  438   1.053   1.076   8.966  0.9304 -0.7161  1.6924
    6CHL1  H26B  439   0.880   1.097   9.032 -0.1624  0.6712  0.1389
    6CHL1  H26C  440   0.907   1.067   8.868 -0.6353  1.6179 -0.4492
    6CHL1   C27  441   0.823   1.325   8.848 -0.0815 -0.6455 -0.3383
    6CHL1  H27A  442   0.825   1.431   8.815  0.3906 -0.8154 -0.8682
    6CHL1  H27B  443   0.781   1.260   8.769 -2.3654 -2.5736  2.2662
    6CHL1  H27C  444   0.748   1.319   8.930  0.7253  1.6665  0.6557
    7CHL1    C3  445   5.598   4.115  10.382 -0.2974  0.2448  0.3408
    7CHL1    H3  446   5.690   4.088  10.326 -0.0815 -0.1273  0.8658
    7CHL1    O3  447   5.615   4.077  10.517  0.7563  0.3737 -0.1038
    7CHL1   H3'  448   5.531   4.091  10.560 -1.0230 -1.8358 -2.5254
    7CHL1    C4  449   5.584   4.266  10.363  0.2804  0.2836 -0.1027
    7CHL1   H4A  450   5.490   4.287  10.420 -0.7940 -0.6455 -1.4574
    7CHL1   H4B  451   5.664   4.319  10.419 -1.4318  3.7489 -0.6529
    7CHL1    C5  452   5.554   4.312  10.224 -0.2070 -0.0522  0.5351
    7CHL1    C6  453   5.640   4.402  10.166 -0.7745 -0.7580  0.1896
    7CHL1    H6  454   5.707   4.456  10.235  0.1152 -2.5804  0.8175
    7CHL1    C7  455   5.630   4.446  10.029  0.3304  1.0397 -0.4976
    7CHL1   H7A  456   5.621   4.556  10.027  0.1903  1.0277 -0.5440
    7CHL1   H7B  457   5.726   4.416   9.981 -0.1718 -0.3085 -0.7328
    7CHL1    C8  458   5.509   4.394   9.947  0.5825  0.4030  0.6107
    7CHL1    H8  459   5.421   4.458   9.970  0.7658  0.5313  0.9634
    7CHL1   C14  460   5.535   4.396   9.800  0.7836 -1.0235 -0.0361
    7CHL1   H14  461   5.603   4.309   9.788 -0.5969 -2.0184 -0.8309
    7CHL1   C15  462   5.611   4.508   9.740  0.3127  0.2003 -0.1742
    7CHL1  H15A  463   5.559   4.600   9.776  1.3085  1.8051 -2.5427
    7CHL1  H15B  464   5.713   4.532   9.776  0.7677 -0.8912 -0.7087
    7CHL1   C16  465   5.599   4.499   9.586  0.5313 -0.6487 -0.7547
    7CHL1  H16A  466   5.540   4.584   9.546 -1.2370  0.1039  3.0553
    7CHL1  H16B  467   5.697   4.480   9.537  1.5182 -0.6530  1.1381
    7CHL1   C17  468   5.509   4.372   9.563 -0.6613  0.4078 -0.7158
    7CHL1   H17  469   5.589   4.296   9.554  1.5123  2.1828  1.9004
    7CHL1   C13  470   5.424   4.358   9.700 -0.4057 -0.6045 -0.0807
    7CHL1   C18  471   5.302   4.456   9.704 -0.1305  0.1676  0.0249
    7CHL1  H18A  472   5.223   4.423   9.633 -0.6336  1.2281  0.0724
    7CHL1  H18B  473   5.262   4.451   9.807  0.1222 -4.0219  0.1053
    7CHL1  H18C  474   5.341   4.555   9.673 -0.8566  0.7283  0.8702
    7CHL1   C12  475   5.381   4.211   9.738 -0.1303 -0.3335  0.2295
    7CHL1  H12A  476   5.278   4.208   9.697  0.4336 -2.7351 -1.2346
    7CHL1  H12B  477   5.463   4.156   9.687  2.0306 -1.4650  4.4990
    7CHL1   C11  478   5.368   4.188   9.887  0.3961  0.6723 -0.8010
    7CHL1  H11A  479   5.272   4.239   9.913 -0.5056 -1.1634 -0.3429
    7CHL1  H11B  480   5.356   4.078   9.900 -1.1116  0.8588 -0.3660
    7CHL1    C9  481   5.483   4.249   9.980  0.0269 -0.0994  0.6999
    7CHL1    H9  482   5.576   4.192   9.962  1.8425  1.7969  3.3309
    7CHL1   C10  483   5.462   4.227  10.136  0.3064 -0.4469 -0.5973
    7CHL1   C19  484   5.313   4.281  10.170 -0.6149 -0.2526 -0.8673
    7CHL1  H19A  485   5.322   4.389  10.144  1.3843 -0.3065 -0.5493
    7CHL1  H19B  486   5.233   4.224  10.118 -1.5994 -0.2634  0.6041
    7CHL1  H19C  487   5.291   4.275  10.279 -0.1566 -0.5199 -0.7865
    7CHL1    C1  488   5.463   4.079  10.174 -0.8518 -0.1386 -0.0716
    7CHL1   H1A  489   5.369   4.032  10.136 -1.1493  0.5285 -0.1662
    7CHL1   H1B  490   5.538   4.032  10.106 -1.2449  0.0099 -0.6160
    7CHL1    C2  491   5.479   4.036  10.327  0.6563  0.1748  0.5058
    7CHL1   H2A  492   5.494   3.926  10.332 -1.1509 -0.0834  1.1708
    7CHL1   H2B  493   5.377   4.057  10.367 -0.1981  0.4001 -1.6537
    7CHL1   C20  494   5.439   4.370   9.427 -0.6306 -0.4942  1.1201
    7CHL1   H20  495   5.352   4.439   9.431 -2.5586 -2.6734 -0.0945
    7CHL1   C21  496   5.385   4.229   9.413  0.6930 -0.0333  0.3000
    7CHL1  H21A  497   5.333   4.208   9.317 -1.4871  2.0436  0.9179
    7CHL1  H21B  498   5.303   4.220   9.488  0.5504  0.0451  0.1561
    7CHL1  H21C  499   5.461   4.151   9.433  3.0867  1.9672 -0.4732
    7CHL1   C22  500   5.544   4.403   9.314 -0.0365  0.1601  0.3513
    7CHL1  H22A  501   5.596   4.500   9.325 -1.9073  1.3737 -1.0362
    7CHL1  H22B  502   5.619   4.321   9.310 -0.3969 -0.2105  0.9429
    7CHL1   C23  503   5.487   4.409   9.171 -0.7248  0.1522 -0.2820
    7CHL1  H23A  504   5.410   4.329   9.164 -1.4037  0.4514  2.4894
    7CHL1  H23B  505   5.442   4.511   9.167  0.0914  0.5801  0.9190
    7CHL1   C24  506   5.606   4.399   9.068  0.3949 -0.5159 -0.1593
    7CHL1  H24A  507   5.686   4.468   9.102 -0.1713  0.7042 -1.2146
    7CHL1  H24B  508   5.635   4.293   9.053 -1.1640 -0.9351 -0.3658
    7CHL1   C25  509   5.566   4.466   8.933 -0.4238 -0.1227  0.8774
    7CHL1   H25  510   5.465   4.422   8.918 -0.4271  0.4547 -1.1514
    7CHL1   C26  511   5.542   4.623   8.928 -0.0930 -0.5052 -0.0950
    7CHL1  H26A  512   5.483   4.659   8.841  0.8840  0.8374 -0.2483
    7CHL1  H26B  513   5.481   4.648   9.017 -1.3201 -1.3609 -0.6782
    7CHL1  H26C  514   5.628   4.694   8.936 -0.9096  0.4041  0.9095
    7CHL1   C27  515   5.659   4.413   8.817  0.0452 -0.6792 -1.0353
    7CHL1  H27A  516   5.766   4.433   8.839 -0.4058  0.5801  0.1821
    7CHL1  H27B  517   5.638   4.307   8.790  1.1551 -0.6368 -2.1836
    7CHL1  H27C  518   5.636   4.461   8.719 -1.5433 -2.7117 -1.7192
    8CHL1    C3  519   5.072   5.712  10.342 -0.2162  0.4118 -0.0175
    8CHL1    H3  520   4.961   5.706  10.336 -0.1894 -0.8527  0.3975
    8CHL1    O3  521   5.117   5.695  10.475  0.4778  0.4256 -0.4099
    8CHL1   H3'  522   5.071   5.762  10.526  1.0145 -0.2158  0.9850
    8CHL1    C4  523   5.141   5.603  10.253  0.0740 -0.6234 -0.0466
    8CHL1   H4A  524   5.249   5.627  10.262  0.7130 -2.7086 -1.3958
    8CHL1   H4B  525   5.113   5.501  10.286  0.2568 -0.8729 -0.6462
    8CHL1    C5  526   5.104   5.631  10.106  0.1573 -0.2177 -0.0676
    8CHL1    C6  527   5.050   5.537  10.026  0.0933  0.0846  0.1550
    8CHL1    H6  528   5.032   5.441  10.077 -0.6416 -0.4563 -1.0651
    8CHL1    C7  529   5.003   5.547   9.890  0.6186 -0.0740 -0.0505
    8CHL1   H7A  530   5.035   5.464   9.824 -1.9184 -0.4225 -0.9702
    8CHL1   H7B  531   4.892   5.549   9.893  0.6043 -1.1304  0.6963
    8CHL1    C8  532   5.045   5.672   9.819 -0.5560 -0.1624  0.2394
    8CHL1    H8  533   5.146   5.667   9.774 -1.8457  0.0116 -2.9709
    8CHL1   C14  534   4.956   5.696   9.694  0.0606  0.2334 -0.1443
    8CHL1   H14  535   4.854   5.706   9.737  0.1180 -1.5298  0.4595
    8CHL1   C15  536   4.953   5.583   9.590  0.5038  0.0571 -0.1156
    8CHL1  H15A  537   5.054   5.538   9.571  0.5139  0.1576 -0.3021
    8CHL1  H15B  538   4.894   5.496   9.625  1.7558 -0.1842  1.5502
    8CHL1   C16  539   4.918   5.654   9.458 -0.5539 -0.2709  0.3267
    8CHL1  H16A  540   4.990   5.626   9.379 -1.4584 -2.6838  0.2699
    8CHL1  H16B  541   4.825   5.609   9.418 -0.6324 -0.5429  0.8062
    8CHL1   C17  542   4.910   5.804   9.491 -0.3753  0.4610  0.0357
    8CHL1   H17  543   4.812   5.834   9.533 -0.8214  0.4045 -0.9381
    8CHL1   C13  544   4.992   5.822   9.620  0.6749 -0.4622 -1.2051
    8CHL1   C18  545   5.142   5.830   9.577  0.9124  0.1342 -0.1930
    8CHL1  H18A  546   5.174   5.751   9.507 -3.5094 -2.4460  0.2949
    8CHL1  H18B  547   5.172   5.932   9.544 -0.3401  0.4022 -0.5594
    8CHL1  H18C  548   5.211   5.809   9.661 -0.4523 -2.1821  0.4344
    8CHL1   C12  549   4.963   5.940   9.723  0.3616  0.3825 -0.0458
    8CHL1  H12A  550   4.975   6.039   9.674  2.1343  0.0149 -0.4205
    8CHL1  H12B  551   4.854   5.925   9.740  0.2577 -0.0815 -1.0656
    8CHL1   C11  552   5.044   5.927   9.845  0.0663 -0.5617 -0.9809
    8CHL1  H11A  553   5.149   5.940   9.812  0.6281 -0.1448  0.8510
    8CHL1  H11B  554   5.016   6.001   9.923  1.2075  0.2510 -1.3054
    8CHL1    C9  555   5.026   5.785   9.918  0.1117 -0.5362 -0.2676
    8CHL1    H9  556   4.920   5.789   9.950 -0.6697  0.2462 -2.7450
    8CHL1   C10  557   5.120   5.775  10.047  0.3849  0.4322  0.7241
    8CHL1   C19  558   5.267   5.783  10.004  0.0745  0.2944  0.5326
    8CHL1  H19A  559   5.329   5.773  10.095 -0.1438  1.0698  0.7674
    8CHL1  H19B  560   5.298   5.714   9.922  0.7135 -1.0024  1.8260
    8CHL1  H19C  561   5.281   5.882   9.955 -2.6882 -0.2308 -1.5855
    8CHL1    C1  562   5.077   5.883  10.152  0.1777  0.1611  0.2703
    8CHL1   H1A  563   5.124   5.976  10.114 -1.2862  1.2361  0.9741
    8CHL1   H1B  564   4.966   5.891  10.156  0.2939  2.2035  0.8509
    8CHL1    C2  565   5.123   5.854  10.296 -0.2877 -0.5686 -0.0702
    8CHL1   H2A  566   5.087   5.935  10.363  0.8513  0.4087 -0.6148
    8CHL1   H2B  567   5.234   5.853  10.289 -0.3622 -0.4090 -1.7862
    8CHL1   C20  568   4.941   5.886   9.364  0.4789  0.2841  0.8507
    8CHL1   H20  569   5.048   5.863   9.340 -0.5496 -2.8236 -1.4207
    8CHL1   C21  570   4.920   6.040   9.402 -0.5537  0.5264 -0.7648
    8CHL1  H21A  571   4.830   6.046   9.468  0.5984 -0.1048  0.9361
    8CHL1  H21B  572   4.910   6.102   9.311  0.9232  1.3091 -0.4162
    8CHL1  H21C  573   5.014   6.069   9.453  0.3319 -1.2447 -1.3046
    8CHL1   C22  574   4.853   5.843   9.238  0.1142 -0.1816  0.4775
    8CHL1  H22A  575   4.858   5.733   9.222 -1.3064 -0.4553  1.6500
    8CHL1  H22B  576   4.747   5.859   9.267 -0.5094 -3.1180  0.1682
    8CHL1   C23  577   4.896   5.915   9.109  0.0266  0.4562  0.0095
    8CHL1  H23A  578   4.816   5.888   9.037 -0.2568 -2.2149  1.2350
    8CHL1  H23B  579   4.887   6.026   9.115  3.1128  0.8422 -0.6177
    8CHL1   C24  580   5.034   5.874   9.054  0.1359 -0.5334  0.4172
    8CHL1  H24A  581   5.065   5.947   8.977  0.4240 -0.8629  0.2162
    8CHL1  H24B  582   5.109   5.887   9.135  1.5211  0.4522 -0.9643
    8CHL1   C25  583   5.047   5.733   9.000  0.2952 -0.1985  0.4071
    8CHL1   H25  584   5.013   5.665   9.081 -1.2152  0.7397  0.6092
    8CHL1   C26  585   4.951   5.721   8.883 -0.5038 -0.5555 -0.4709
    8CHL1  H26A  586   4.956   5.623   8.832 -2.1682 -1.5865  1.1990
    8CHL1  H26B  587   4.846   5.742   8.913 -0.8576  0.0282 -2.0300
    8CHL1  H26C  588   4.964   5.793   8.799  0.9439 -1.3874 -1.0024
    8CHL1   C27  589   5.191   5.706   8.953  0.6604 -0.7780 -0.9025
    8CHL1  H27A  590   5.215   5.604   8.990  1.4104  0.3288  1.9167
    8CHL1  H27B  591   5.193   5.708   8.842  0.4055 -1.7881 -0.9393
    8CHL1  H27C  592   5.259   5.778   9.003  0.6287 -1.9057  0.8345
    9CHL1    C3  593   4.216   1.409  10.461 -0.0367  0.3334 -0.2577
    9CHL1    H3  594   4.299   1.479  10.436  0.2305 -0.2760 -1.1423
    9CHL1    O3  595   4.239   1.347  10.587 -0.3155 -0.8574  0.1614
    9CHL1   H3'  596   4.244   1.408  10.661  3.1543  0.2046 -0.7285
    9CHL1    C4  597   4.085   1.485  10.458  0.0442  0.0523 -0.3987
    9CHL1   H4A  598   4.009   1.412  10.492 -0.1122  0.9287  1.2620
    9CHL1   H4B  599   4.082   1.566  10.534  1.0998 -0.6819  0.4656
    9CHL1    C5  600   4.049   1.543  10.322 -0.6189  0.0997 -0.1899
    9CHL1    C6  601   4.021   1.674  10.308  0.0503  0.0304 -0.4342
    9CHL1    H6  602   4.034   1.753  10.384 -0.4765  2.1864 -2.4530
    9CHL1    C7  603   3.978   1.736  10.174  0.0586 -0.4018 -1.1054
    9CHL1   H7A  604   3.895   1.807  10.192  1.4634  0.8918  0.6529
    9CHL1   H7B  605   4.067   1.788  10.132  2.1408 -2.1129  0.8772
    9CHL1    C8  606   3.937   1.632  10.068  0.3639  1.2850 -0.8966
    9CHL1    H8  607   3.834   1.598  10.093  0.5451 -0.7468 -2.5960
    9CHL1   C14  608   3.939   1.693   9.927 -0.1020 -0.2278  0.1984
    9CHL1   H14  609   4.048   1.714   9.922 -0.5792  2.6651 -0.0283
    9CHL1   C15  610   3.875   1.827   9.907 -0.4261  0.6161  0.0280
    9CHL1  H15A  611   3.776   1.828   9.958  0.8746 -0.3568  2.7668
    9CHL1  H15B  612   3.931   1.907   9.960 -1.1499  0.5984  0.8468
    9CHL1   C16  613   3.871   1.838   9.753 -0.9148 -0.9057 -0.4531
    9CHL1  H16A  614   3.777   1.886   9.721 -1.3973 -1.2047  0.4943
    9CHL1  H16B  615   3.955   1.897   9.708  2.1070 -4.5110 -0.0578
    9CHL1   C17  616   3.897   1.698   9.691 -0.0159  0.5962  0.1999
    9CHL1   H17  617   4.001   1.699   9.652  0.5816 -0.3769  1.6742
    9CHL1   C13  618   3.893   1.600   9.815  0.6919  0.2839 -0.1564
    9CHL1   C18  619   3.744   1.557   9.838  0.3699  0.2399 -0.0782
    9CHL1  H18A  620   3.697   1.507   9.750  1.3232 -2.1003  0.6487
    9CHL1  H18B  621   3.728   1.494   9.928  1.9875 -0.5717 -0.3169
    9CHL1  H18C  622   3.683   1.649   9.848 -1.6962 -0.8988 -1.4587
    9CHL1   C12  623   3.990   1.485   9.814 -0.0677  0.8881 -0.0535
    9CHL1  H12A  624   3.954   1.407   9.744 -0.7465  0.2112  1.0167
    9CHL1  H12B  625   4.092   1.517   9.785 -0.0567  0.1926 -0.8183
    9CHL1   C11  626   3.994   1.410   9.952 -0.2866 -0.3244 -0.9543
    9CHL1  H11A  627   3.891   1.372   9.973 -0.5556  0.3139 -1.0863
    9CHL1  H11B  628   4.064   1.324   9.956  2.3072  1.6692 -0.4079
    9CHL1    C9  629   4.037   1.511  10.062  0.2709  0.4687 -0.4741
    9CHL1    H9  630   4.139   1.549  10.045 -0.3185  1.9852 -0.8020
    9CHL1   C10  631   4.046   1.440  10.205  0.2660  0.1687 -0.6763
    9CHL1   C19  632   3.934   1.338  10.224  0.0510 -0.0622  0.2350
    9CHL1  H19A  633   3.935   1.251  10.154 -2.1257  0.2291 -0.2366
    9CHL1  H19B  634   3.934   1.294  10.325 -1.9775 -0.6675  0.0084
    9CHL1  H19C  635   3.839   1.395  10.219  0.7061  0.9900 -1.0422
    9CHL1    C1  636   4.180   1.363  10.214  0.7433 -0.1707  0.7716
    9CHL1   H1A  637   4.166   1.284  10.137 -1.7964  0.1352  0.8400
    9CHL1   H1B  638   4.258   1.433  10.178 -1.5650  1.1005 -2.1540
    9CHL1    C2  639   4.213   1.296  10.348  0.6702 -0.2288 -0.0397
    9CHL1   H2A  640   4.305   1.238  10.327  0.9436  0.8436 -2.1440
    9CHL1   H2B  641   4.133   1.224  10.376  0.3442  0.4023  0.6697
    9CHL1   C20  642   3.811   1.669   9.569 -0.2650 -0.7404 -0.2550
    9CHL1   H20  643   3.703   1.672   9.596 -0.3056 -1.0316 -0.3821
    9CHL1   C21  644   3.841   1.537   9.492 -0.7191 -0.3186  0.6069
    9CHL1  H21A  645   3.925   1.550   9.421 -0.9605 -0.2619  0.3298
    9CHL1  H21B  646   3.755   1.501   9.432  1.1962 -1.9423 -1.3137
    9CHL1  H21C  647   3.880   1.452   9.553  0.4412 -0.2554 -0.0327
    9CHL1   C22  648   3.824   1.786   9.467 -0.4943  0.3908 -0.1441
    9CHL1  H22A  649   3.820   1.887   9.513  2.5199  1.5727 -2.1759
    9CHL1  H22B  650   3.925   1.764   9.426 -0.8712 -1.1998 -0.3008
    9CHL1   C23  651   3.730   1.776   9.346 -0.4461  0.2870  0.2424
    9CHL1  H23A  652   3.753   1.679   9.296  1.3088  0.1233  1.2534
    9CHL1  H23B  653   3.630   1.765   9.393  0.3229 -0.4979  1.8056
    9CHL1   C24  654   3.748   1.892   9.253  0.7598 -0.3285 -0.2104
    9CHL1  H24A  655   3.733   1.980   9.319 -1.1190 -2.0994  1.9392
    9CHL1  H24B  656   3.852   1.889   9.214  0.0632  0.2177 -2.2025
    9CHL1   C25  657   3.639   1.909   9.144  0.8462  0.3781  0.1448
    9CHL1   H25  658   3.539   1.878   9.183  1.7558  0.0912  2.3957
    9CHL1   C26  659   3.635   2.046   9.084 -0.1063 -0.3230 -0.4184
    9CHL1  H26A  660   3.552   2.064   9.013 -0.7733  1.5092  0.7759
    9CHL1  H26B  661   3.623   2.124   9.161  0.7176 -2.5804  2.1556
    9CHL1  H26C  662   3.732   2.066   9.033  0.4530 -2.5435 -0.3229
    9CHL1   C27  663   3.659   1.810   9.027 -0.5395  0.0631 -0.0156
    9CHL1  H27A  664   3.769   1.817   9.010 -0.2577  0.1568  1.7190
    9CHL1  H27B  665   3.628   1.712   9.068  1.6466 -1.6237 -2.0943
    9CHL1  H27C  666   3.604   1.843   8.936 -0.1526  1.9634  0.3878
   10CHL1    C3  667   0.405   6.072  10.069 -0.1981 -0.0028 -0.3647
   10CHL1    H3  668   0.367   6.172  10.040 -1.5756 -0.2606  0.4414
   10CHL1    O3  669   0.388   6.062  10.209  0.3385  0.4625  0.0110
   10CHL1   H3'  670   0.385   5.967  10.221 -0.2591  0.3983 -0.6255
   10CHL1    C4  671   0.326   5.962  10.006  0.1886  0.3667 -0.1691
   10CHL1   H4A  672   0.369   5.865  10.041  2.6374  1.0821 -0.9728
   10CHL1   H4B  673   0.222   5.970  10.043  1.1112  0.3077  2.6788
   10CHL1    C5  674   0.349   5.965   9.857  0.4657 -0.2979  0.2495
   10CHL1    C6  675   0.246   5.992   9.776 -0.1219 -0.2768  0.6156
   10CHL1    H6  676   0.149   6.016   9.822  0.3288 -1.7845  2.4529
   10CHL1    C7  677   0.256   6.001   9.623 -0.1689  0.1752  0.6516
   10CHL1   H7A  678   0.173   5.949   9.571  0.3317  0.8135 -0.8568
   10CHL1   H7B  679   0.241   6.104   9.584 -1.8129 -1.2060 -2.7687
   10CHL1    C8  680   0.390   5.944   9.571 -0.0429  0.4519  1.2460
   10CHL1    H8  681   0.375   5.834   9.583  2.6141 -0.0279  0.6869
   10CHL1   C14  682   0.401   5.988   9.430  0.5542 -0.2025 -0.2207
   10CHL1   H14  683   0.410   6.099   9.419  1.5057 -0.3086 -0.6596
   10CHL1   C15  684   0.289   5.946   9.335  0.3318 -1.5433 -0.5019
   10CHL1  H15A  685   0.240   5.847   9.341 -2.8282 -0.0159  0.8334
   10CHL1  H15B  686   0.202   6.015   9.344  2.2859  1.7004 -3.6825
   10CHL1   C16  687   0.350   5.977   9.195  0.6719  0.2317  0.0039
   10CHL1  H16A  688   0.320   5.884   9.143  2.6639 -1.0000  0.9327
   10CHL1  H16B  689   0.311   6.067   9.142 -1.4686 -0.1628  0.8186
   10CHL1   C17  690   0.504   5.986   9.223 -0.4173  0.1615  0.3977
   10CHL1   H17  691   0.541   6.090   9.230  2.5959 -0.8110  0.2984
   10CHL1   C13  692   0.527   5.933   9.365  0.0492  0.5989  1.0307
   10CHL1   C18  693   0.531   5.777   9.364  0.1156  0.4727  0.1809
   10CHL1  H18A  694   0.523   5.731   9.464  1.8916 -0.3198  0.0011
   10CHL1  H18B  695   0.448   5.733   9.304  1.6967 -1.2860 -0.8211
   10CHL1  H18C  696   0.629   5.739   9.328 -0.9186 -2.0381 -0.2234
   10CHL1   C12  697   0.647   5.991   9.440  0.0722 -0.5729  0.7697
   10CHL1  H12A  698   0.745   5.993   9.388 -0.1390  0.0882  0.3805
   10CHL1  H12B  699   0.642   6.101   9.454  0.7111 -0.2415 -1.3123
   10CHL1   C11  700   0.641   5.935   9.581 -0.2676 -0.5523 -0.6668
   10CHL1  H11A  701   0.666   5.827   9.596  0.9311  0.0809  2.7523
   10CHL1  H11B  702   0.723   5.983   9.639  0.4858 -1.7104 -0.7324
   10CHL1    C9  703   0.512   5.986   9.652 -0.4990  0.0624  0.3964
   10CHL1    H9  704   0.520   6.097   9.658 -1.4544  0.1056  1.1420
   10CHL1   C10  705   0.498   5.953   9.806  0.1305  0.5971 -0.5053
   10CHL1   C19  706   0.547   5.803   9.814  1.0948 -0.1131  0.3398
   10CHL1  H19A  707   0.517   5.766   9.915 -1.4973 -0.2863 -0.4048
   10CHL1  H19B  708   0.490   5.743   9.740 -0.5482  0.7522  0.8378
   10CHL1  H19C  709   0.656   5.793   9.796  1.0322  0.2397 -0.2577
   10CHL1    C1  710   0.581   6.060   9.880 -0.1764  0.6157  0.0747
   10CHL1   H1A  711   0.687   6.031   9.864 -0.1834  1.1652 -1.0296
   10CHL1   H1B  712   0.556   6.159   9.837 -1.4007 -0.5375 -2.0504
   10CHL1    C2  713   0.559   6.051  10.035  0.3186 -0.3667  0.3885
   10CHL1   H2A  714   0.612   6.125  10.097 -0.5678 -1.8954  3.1400
   10CHL1   H2B  715   0.597   5.952  10.070  2.1065  0.3599  0.5754
   10CHL1   C20  716   0.605   5.926   9.126  0.7282 -0.5547  0.3465
   10CHL1   H20  717   0.679   5.877   9.192  0.1668  2.1525  3.1729
   10CHL1   C21  718   0.671   6.056   9.058  0.0285 -0.0340  0.1706
   10CHL1  H21A  719   0.704   6.133   9.131 -0.6267  0.2964  0.1220
   10CHL1  H21B  720   0.588   6.097   8.998  0.6300  2.0451  0.6726
   10CHL1  H21C  721   0.753   6.025   8.989 -0.0791 -1.3324  0.5896
   10CHL1   C22  722   0.543   5.835   9.010 -0.1141  0.2164  0.3216
   10CHL1  H22A  723   0.500   5.742   9.054  0.5635 -0.3783 -0.2660
   10CHL1  H22B  724   0.459   5.888   8.961 -0.4762  2.2267  2.9152
   10CHL1   C23  725   0.647   5.780   8.911  0.1022 -0.1848  0.5512
   10CHL1  H23A  726   0.659   5.869   8.845 -1.7596 -0.3496 -0.0730
   10CHL1  H23B  727   0.740   5.758   8.968  0.0353  0.1670  0.7997
   10CHL1   C24  728   0.593   5.652   8.847 -0.5719 -0.0584  0.3415
   10CHL1  H24A  729   0.671   5.591   8.797  1.3666  0.4981  2.5261
   10CHL1  H24B  730   0.547   5.584   8.922  0.0862  0.7373  1.4932
   10CHL1   C25  731   0.480   5.678   8.736 -0.5919 -0.2749  0.2019
   10CHL1   H25  732   0.403   5.742   8.783 -0.1403 -0.4287  1.1789
   10CHL1   C26  733   0.526   5.759   8.612 -0.2328 -0.0620 -0.2574
   10CHL1  H26A  734   0.612   5.703   8.569  1.0958  2.5212 -1.1833
   10CHL1  H26B  735   0.445   5.743   8.538 -0.4746 -0.3673  0.0699
   10CHL1  H26C  736   0.541   5.867   8.636  0.0283  0.2812 -1.8756
   10CHL1   C27  737   0.419   5.539   8.696  0.0205 -0.5524  0.0305
   10CHL1  H27A  738   0.380   5.481   8.782  2.6511 -2.3152  0.1614
   10CHL1  H27B  739   0.337   5.565   8.626 -0.8762  1.0532  1.5780
   10CHL1  H27C  740   0.493   5.477   8.641 -0.1592 -0.9780  0.2668
   11CHL1    C3  741   6.141   3.230  10.166 -0.3261  0.1680 -0.2164
   11CHL1    H3  742   6.237   3.253  10.114 -1.8153  2.8400 -1.9850
   11CHL1    O3  743   6.171   3.222  10.307 -0.5625 -0.4835 -0.3378
   11CHL1   H3'  744   6.090   3.207  10.355 -0.4487  2.0358  0.8251
   11CHL1    C4  745   6.044   3.345  10.144 -0.5396  0.6994 -0.4365
   11CHL1   H4A  746   5.955   3.322  10.207 -0.5296  3.5462  0.7238
   11CHL1   H4B  747   6.078   3.437  10.194 -0.2576 -0.1320  0.9652
   11CHL1    C5  748   6.005   3.359   9.998 -0.4737 -0.1917  0.0841
   11CHL1    C6  749   6.021   3.476   9.933 -0.2578 -0.0175 -0.7674
   11CHL1    H6  750   6.053   3.571   9.979 -1.6480  1.7463 -3.2288
   11CHL1    C7  751   5.973   3.500   9.792  0.2140  0.1737  0.0270
   11CHL1   H7A  752   5.923   3.600   9.793  1.6515  0.9298  1.7000
   11CHL1   H7B  753   6.062   3.511   9.727  1.3001 -0.4197  1.3669
   11CHL1    C8  754   5.885   3.386   9.740 -0.1301 -0.0015  0.8812
   11CHL1    H8  755   5.783   3.396   9.784 -1.0010 -3.6769  0.0852
   11CHL1   C14  756   5.869   3.395   9.590  0.2351 -0.2455 -0.3359
   11CHL1   H14  757   5.972   3.378   9.552  0.7906  2.4576 -0.1799
   11CHL1   C15  758   5.818   3.525   9.533 -0.2386  0.1943 -0.0122
   11CHL1  H15A  759   5.740   3.569   9.599  0.1511 -1.2800  1.5062
   11CHL1  H15B  760   5.904   3.595   9.539  1.4422 -1.7306 -0.7145
   11CHL1   C16  761   5.767   3.482   9.395 -0.7611 -0.1433  0.1184
   11CHL1  H16A  762   5.658   3.502   9.398 -0.5398  1.1602  0.0328
   11CHL1  H16B  763   5.829   3.553   9.336 -1.0629 -0.0742 -0.1173
   11CHL1   C17  764   5.800   3.334   9.383 -0.3925  0.2946 -0.3277
   11CHL1   H17  765   5.908   3.324   9.360 -0.1471 -0.3177  0.9828
   11CHL1   C13  766   5.784   3.282   9.529  0.1170  0.0980 -0.0612
   11CHL1   C18  767   5.635   3.301   9.583  0.3256 -0.1781  0.2910
   11CHL1  H18A  768   5.610   3.408   9.602  3.0555  0.5668  0.1206
   11CHL1  H18B  769   5.562   3.252   9.515 -0.3393 -0.8924  1.4890
   11CHL1  H18C  770   5.614   3.253   9.681  0.0160 -2.1931 -0.7167
   11CHL1   C12  771   5.849   3.143   9.560 -0.7826 -0.2950 -0.1490
   11CHL1  H12A  772   5.790   3.066   9.506 -1.0013  0.6725 -1.3208
   11CHL1  H12B  773   5.951   3.147   9.515 -1.4342  2.3742 -1.5817
   11CHL1   C11  774   5.859   3.123   9.710  0.1218 -0.0653 -0.7390
   11CHL1  H11A  775   5.757   3.113   9.753  0.3717 -0.0586 -0.1303
   11CHL1  H11B  776   5.903   3.025   9.738 -0.9319  0.2291  2.2550
   11CHL1    C9  777   5.927   3.247   9.778 -0.0798 -0.1012  0.5137
   11CHL1    H9  778   6.025   3.246   9.725  0.2779  1.9023  1.0408
   11CHL1   C10  779   5.957   3.229   9.930 -0.1111 -0.1609 -0.5025
   11CHL1   C19  780   5.818   3.187   9.999 -0.1795  0.1095 -0.3442
   11CHL1  H19A  781   5.818   3.189  10.110 -0.4149  1.0852 -0.3478
   11CHL1  H19B  782   5.730   3.237   9.954  0.6216  0.6851 -1.3088
   11CHL1  H19C  783   5.794   3.081   9.977  2.3329 -0.2428 -1.7286
   11CHL1    C1  784   6.070   3.122   9.957  0.8327  0.4952 -0.5913
   11CHL1   H1A  785   6.039   3.022   9.919  1.6004  0.9128 -2.4328
   11CHL1   H1B  786   6.160   3.165   9.908 -0.3172  2.4576 -1.0856
   11CHL1    C2  787   6.097   3.099  10.109  0.9209 -0.1906  0.0199
   11CHL1   H2A  788   6.171   3.018  10.122 -0.7044 -1.5697  1.0992
   11CHL1   H2B  789   6.006   3.059  10.158  1.6408 -0.4251  1.2048
   11CHL1   C20  790   5.725   3.265   9.269 -0.1336  0.2019  0.3646
   11CHL1   H20  791   5.632   3.220   9.308 -0.2802 -0.9422 -1.1848
   11CHL1   C21  792   5.811   3.145   9.214  0.6368  0.1835 -0.4532
   11CHL1  H21A  793   5.907   3.165   9.161 -0.0747  0.9175 -1.5009
   11CHL1  H21B  794   5.755   3.075   9.149  0.3490 -1.2783  1.2941
   11CHL1  H21C  795   5.821   3.070   9.295 -0.7647  0.3636 -0.1033
   11CHL1   C22  796   5.681   3.360   9.148  0.7978 -0.0967 -0.6927
   11CHL1  H22A  797   5.650   3.458   9.190  0.5703 -0.2858 -0.4073
   11CHL1  H22B  798   5.761   3.389   9.077 -0.3826  2.3257 -1.1313
   11CHL1   C23  799   5.567   3.303   9.063 -0.9349 -0.2011  0.1540
   11CHL1  H23A  800   5.605   3.219   9.001 -1.8310 -0.1411 -0.4956
   11CHL1  H23B  801   5.488   3.272   9.135 -0.5418  2.7413  2.0377
   11CHL1   C24  802   5.512   3.421   8.970 -0.5964  0.4909 -0.0788
   11CHL1  H24A  803   5.467   3.500   9.035 -0.8337  1.1082 -0.9760
   11CHL1  H24B  804   5.592   3.464   8.907 -0.5118 -2.4557 -2.1782
   11CHL1   C25  805   5.409   3.377   8.864  0.2694  0.0148  0.0172
   11CHL1   H25  806   5.365   3.459   8.802 -1.6219 -0.7183  0.3363
   11CHL1   C26  807   5.461   3.276   8.760  0.0785 -0.3343  0.1125
   11CHL1  H26A  808   5.499   3.179   8.800 -0.2154 -0.5911 -0.2277
   11CHL1  H26B  809   5.379   3.251   8.689  0.0035 -1.1921  0.4945
   11CHL1  H26C  810   5.540   3.320   8.695 -1.4029  0.0748 -1.5018
   11CHL1   C27  811   5.284   3.321   8.934  0.1287 -1.0336 -0.6429
   11CHL1  H27A  812   5.211   3.311   8.850 -0.1489  0.3327 -0.5850
   11CHL1  H27B  813   5.297   3.219   8.976 -0.7354 -1.5746 -1.6369
   11CHL1  H27C  814   5.237   3.391   9.006 -1.3349 -0.8645 -1.7145
   12CHL1    C3  815   6.002   5.207  10.269  0.9558 -0.4253  0.1045
   12CHL1    H3  816   6.048   5.111  10.237  1.5763 -0.3540  0.7672
   12CHL1    O3  817   6.011   5.213  10.411  0.2079 -0.1651 -0.3454
   12CHL1   H3'  818   5.920   5.208  10.440  0.7251 -2.7403  1.1304
   12CHL1    C4  819   6.089   5.317  10.209  0.7509 -0.3999  0.4364
   12CHL1   H4A  820   6.050   5.415  10.244 -0.6452  0.6953 -3.6419
   12CHL1   H4B  821   6.188   5.304  10.257  1.2252  1.4277  0.0187
   12CHL1    C5  822   6.094   5.323  10.054  0.3150 -0.4717 -0.0705
   12CHL1    C6  823   6.206   5.311   9.975  0.1601  0.2474  0.0116
   12CHL1    H6  824   6.307   5.303  10.018  0.2466  3.4688  0.6138
   12CHL1    C7  825   6.199   5.318   9.825 -0.8652  0.4928 -0.6341
   12CHL1   H7A  826   6.273   5.393   9.788  0.4512 -1.3236 -1.8602
   12CHL1   H7B  827   6.226   5.219   9.782  1.1331  0.3296  0.8342
   12CHL1    C8  828   6.067   5.371   9.767  0.1872 -0.2039  0.2396
   12CHL1    H8  829   6.058   5.481   9.782  1.4755 -0.1655  0.7995
   12CHL1   C14  830   6.051   5.365   9.617 -0.0813 -0.6100  0.9716
   12CHL1   H14  831   6.064   5.264   9.573  1.7247  0.9175 -2.3928
   12CHL1   C15  832   6.166   5.438   9.537  0.5117  0.9762  0.5834
   12CHL1  H15A  833   6.195   5.539   9.573  0.2596  0.9944  0.7424
   12CHL1  H15B  834   6.255   5.371   9.539 -0.7912 -0.9479 -1.4182
   12CHL1   C16  835   6.110   5.440   9.395  0.1627  0.1049  0.1871
   12CHL1  H16A  836   6.091   5.540   9.352 -1.5442 -0.0787  0.4328
   12CHL1  H16B  837   6.165   5.377   9.322 -2.7955 -1.9634 -0.4449
   12CHL1   C17  838   5.956   5.392   9.403 -1.1371  1.0498 -0.4231
   12CHL1   H17  839   5.963   5.284   9.378  1.2561  1.1240 -0.3125
   12CHL1   C13  840   5.918   5.410   9.551  0.0697 -0.4215 -0.2600
   12CHL1   C18  841   5.886   5.555   9.570  0.0898 -0.0992 -0.5859
   12CHL1  H18A  842   5.889   5.591   9.675 -0.6780 -1.9880  0.1347
   12CHL1  H18B  843   5.962   5.608   9.508  1.4711 -3.2728 -1.8190
   12CHL1  H18C  844   5.783   5.577   9.537 -0.6209 -0.8903  0.9883
   12CHL1   C12  845   5.811   5.321   9.615  0.2124 -0.4070  0.1636
   12CHL1  H12A  846   5.709   5.347   9.580  0.9439  1.5333 -0.7024
   12CHL1  H12B  847   5.845   5.219   9.587 -0.2852 -0.5745  0.1632
   12CHL1   C11  848   5.810   5.332   9.768 -0.0313 -0.2691  0.6035
   12CHL1  H11A  849   5.774   5.434   9.793  0.3149 -0.0143  0.0917
   12CHL1  H11B  850   5.739   5.256   9.807 -0.6025  0.3950  0.8719
   12CHL1    C9  851   5.944   5.304   9.836 -0.5511  0.0675 -0.3615
   12CHL1    H9  852   5.958   5.195   9.817 -0.7905 -0.0979  0.3817
   12CHL1   C10  853   5.951   5.323   9.992  0.1151 -0.0443 -0.2536
   12CHL1   C19  854   5.886   5.467  10.015 -0.5477  0.5779  0.1062
   12CHL1  H19A  855   5.918   5.542   9.940 -1.6723  0.8792 -0.0959
   12CHL1  H19B  856   5.775   5.462  10.020 -0.4852 -1.5728  0.2619
   12CHL1  H19C  857   5.913   5.509  10.115 -2.4577 -0.7503  1.2589
   12CHL1    C1  858   5.865   5.214  10.065  0.7473 -0.2295 -0.1000
   12CHL1   H1A  859   5.763   5.217  10.021  1.0697  0.6161 -0.8157
   12CHL1   H1B  860   5.913   5.116  10.042 -1.6713 -1.3665 -0.6555
   12CHL1    C2  861   5.859   5.232  10.221 -0.1202 -0.2924  0.7951
   12CHL1   H2A  862   5.805   5.146  10.265  0.4099 -0.6201  0.8194
   12CHL1   H2B  863   5.822   5.329  10.260  2.4665  0.2863  2.0483
   12CHL1   C20  864   5.856   5.442   9.299  0.6013  0.2064  0.1009
   12CHL1   H20  865   5.841   5.552   9.301  2.6326  0.5009  1.8645
   12CHL1   C21  866   5.731   5.359   9.301  0.8431  0.4650 -0.0238
   12CHL1  H21A  867   5.760   5.253   9.315 -0.8116  0.1853  1.7598
   12CHL1  H21B  868   5.672   5.377   9.209  2.3176  3.7604 -0.4841
   12CHL1  H21C  869   5.666   5.380   9.389  1.1013  0.0165  0.2756
   12CHL1   C22  870   5.914   5.441   9.157  0.1111 -0.1400 -0.6107
   12CHL1  H22A  871   6.025   5.446   9.151  0.1328 -0.1316 -0.2294
   12CHL1  H22B  872   5.893   5.337   9.124 -3.0804  0.3521 -0.3791
   12CHL1   C23  873   5.846   5.529   9.051 -0.1040 -0.9864 -0.1872
   12CHL1  H23A  874   5.736   5.521   9.054 -0.1462 -0.3904  0.0069
   12CHL1  H23B  875   5.863   5.638   9.063 -2.3038 -0.6188 -0.0518
   12CHL1   C24  876   5.894   5.489   8.908  0.5874 -0.6331  0.2407
   12CHL1  H24A  877   6.002   5.513   8.896  0.2916  0.5855 -0.1168
   12CHL1  H24B  878   5.875   5.382   8.886  0.9059 -0.3969 -1.2811
   12CHL1   C25  879   5.829   5.569   8.799  0.2015 -0.4011  0.0497
   12CHL1   H25  880   5.852   5.678   8.803  2.2030 -0.6361 -2.2688
   12CHL1   C26  881   5.900   5.517   8.668 -0.4869 -0.3360  0.5312
   12CHL1  H26A  882   6.003   5.559   8.671  0.5486 -2.7265  1.1533
   12CHL1  H26B  883   5.913   5.406   8.677  1.0404 -0.1628  0.7348
   12CHL1  H26C  884   5.847   5.549   8.576  2.0593  1.1808 -0.5035
   12CHL1   C27  885   5.680   5.554   8.787 -0.0846 -0.2747 -0.1860
   12CHL1  H27A  886   5.640   5.620   8.867  4.3004  3.0298 -0.3348
   12CHL1  H27B  887   5.637   5.613   8.703 -0.7886  1.8566  1.5801
   12CHL1  H27C  888   5.650   5.447   8.793  2.8214 -1.1074  0.8771
   13CHL1    C3  889   5.406   0.146  10.049  0.4204 -0.2164  0.3546
   13CHL1    H3  890   5.304   0.114  10.016  0.2695 -1.2236  1.7076
   13CHL1    O3  891   5.417   0.121  10.187  0.5654 -1.1566  0.4543
   13CHL1   H3'  892   5.489   0.180  10.210  1.9527 -1.3169 -2.8555
   13CHL1    C4  893   5.512   0.067   9.974  0.3543 -0.1625 -0.3306
   13CHL1   H4A  894   5.611   0.083  10.021  0.3671  0.7453 -0.6530
   13CHL1   H4B  895   5.494  -0.041   9.993 -4.7242  0.6762  1.3895
   13CHL1    C5  896   5.513   0.101   9.829 -0.5879 -0.2733  0.7079
   13CHL1    C6  897   5.504   0.001   9.741 -0.4892 -0.1985  0.6743
   13CHL1    H6  898   5.508  -0.106   9.767  1.2494 -0.9463 -2.2294
   13CHL1    C7  899   5.510   0.014   9.586 -0.3000 -0.2117 -0.8056
   13CHL1   H7A  900   5.575  -0.069   9.550 -0.7083 -0.5461 -0.7722
   13CHL1   H7B  901   5.413  -0.003   9.535 -0.4539 -2.6803  0.1542
   13CHL1    C8  902   5.568   0.154   9.553  0.5832  0.7188  1.2271
   13CHL1    H8  903   5.676   0.161   9.576  1.1294  2.4928 -1.4071
   13CHL1   C14  904   5.552   0.176   9.404 -0.4794  0.4706  0.0757
   13CHL1   H14  905   5.442   0.175   9.388 -0.4930 -2.5821 -0.2275
   13CHL1   C15  906   5.600   0.070   9.306  0.7969  0.3871  0.3762
   13CHL1  H15A  907   5.699   0.030   9.337  0.9496  0.1694 -0.3737
   13CHL1  H15B  908   5.527  -0.013   9.290 -1.1161  2.3535 -1.8698
   13CHL1   C16  909   5.626   0.147   9.176  0.6566  0.6451  0.2767
   13CHL1  H16A  910   5.734   0.154   9.151  0.5830  1.7610  0.2213
   13CHL1  H16B  911   5.569   0.117   9.085 -1.0793  0.7219  1.2777
   13CHL1   C17  912   5.578   0.292   9.198  0.3729 -0.3842 -0.2848
   13CHL1   H17  913   5.467   0.286   9.198  0.3611 -0.6420  1.1638
   13CHL1   C13  914   5.612   0.308   9.353 -0.0111  0.3538  0.5075
   13CHL1   C18  915   5.761   0.315   9.369 -0.4629 -0.1347 -0.3698
   13CHL1  H18A  916   5.820   0.238   9.315 -0.2248  0.4643 -0.9925
   13CHL1  H18B  917   5.792   0.410   9.321 -0.8815 -0.7831 -1.9815
   13CHL1  H18C  918   5.794   0.326   9.474 -0.8206 -0.6442 -0.2033
   13CHL1   C12  919   5.548   0.422   9.431  0.2007  0.1241  0.2139
   13CHL1  H12A  920   5.596   0.517   9.398 -0.6088 -0.5790 -3.4004
   13CHL1  H12B  921   5.439   0.430   9.413 -0.0248 -1.2052  0.9005
   13CHL1   C11  922   5.556   0.403   9.582 -0.4826 -0.3189  0.4212
   13CHL1  H11A  923   5.665   0.418   9.599 -0.0714  0.8927 -2.6335
   13CHL1  H11B  924   5.488   0.479   9.625 -0.4923  0.6151 -1.1369
   13CHL1    C9  925   5.515   0.269   9.633  0.8686  0.4206  0.1050
   13CHL1    H9  926   5.405   0.262   9.619  0.8796 -0.4201  0.3548
   13CHL1   C10  927   5.519   0.252   9.792  0.6764  0.4648  0.0237
   13CHL1   C19  928   5.651   0.309   9.846  0.0393  0.8305  0.4492
   13CHL1  H19A  929   5.667   0.307   9.956  1.2437 -0.3424  0.2877
   13CHL1  H19B  930   5.737   0.257   9.798 -0.4560  1.1814 -0.8332
   13CHL1  H19C  931   5.662   0.414   9.810  3.8105 -0.4243 -2.8382
   13CHL1    C1  932   5.408   0.326   9.864  0.3677  0.6789  0.5193
   13CHL1   H1A  933   5.417   0.436   9.857 -1.9464  0.9223  0.4887
   13CHL1   H1B  934   5.309   0.302   9.818 -0.1074  0.1162  1.7908
   13CHL1    C2  935   5.398   0.295  10.021 -0.2464  0.3407  0.4251
   13CHL1   H2A  936   5.297   0.331  10.052 -1.3252 -1.4827 -0.7643
   13CHL1   H2B  937   5.481   0.350  10.070  0.2583  1.3518 -1.4716
   13CHL1   C20  938   5.631   0.395   9.092  0.1162 -0.5661 -0.1333
   13CHL1   H20  939   5.738   0.410   9.117  0.0861 -1.4804  0.6048
   13CHL1   C21  940   5.559   0.530   9.115  0.7311 -0.8081  0.3659
   13CHL1  H21A  941   5.449   0.522   9.130  0.3624  1.1433 -0.9316
   13CHL1  H21B  942   5.577   0.604   9.034  1.2561 -2.1595 -0.7788
   13CHL1  H21C  943   5.591   0.571   9.213  1.3149  0.9503 -0.5071
   13CHL1   C22  944   5.630   0.335   8.943 -0.6913  0.2405 -0.2833
   13CHL1  H22A  945   5.729   0.286   8.932  0.9821  3.2661  0.2051
   13CHL1  H22B  946   5.543   0.269   8.924  0.1177 -1.1014  0.4667
   13CHL1   C23  947   5.630   0.441   8.827 -0.5077  0.4762  0.2463
   13CHL1  H23A  948   5.521   0.456   8.814 -0.7076  0.1175  1.4204
   13CHL1  H23B  949   5.690   0.533   8.846 -1.4297  1.1613 -0.1222
   13CHL1   C24  950   5.705   0.374   8.705  1.2050  0.7800  0.1753
   13CHL1  H24A  951   5.812   0.356   8.730  1.0177 -0.8451 -0.0858
   13CHL1  H24B  952   5.669   0.271   8.686 -0.2834  1.4663 -0.8691
   13CHL1   C25  953   5.701   0.451   8.568  0.1711  0.3223 -0.0305
   13CHL1   H25  954   5.707   0.376   8.486  1.0297 -1.3197  1.4654
   13CHL1   C26  955   5.572   0.532   8.555 -0.0053  0.4521  0.1384
   13CHL1  H26A  956   5.485   0.463   8.568 -0.0816  0.7861  1.5020
   13CHL1  H26B  957   5.568   0.595   8.646 -1.1415  1.1403 -0.3598
   13CHL1  H26C  958   5.565   0.591   8.461  0.0047  0.6192  0.2411
   13CHL1   C27  959   5.830   0.533   8.556 -0.0992 -0.9132  0.1826
   13CHL1  H27A  960   5.924   0.477   8.577  0.7362  1.0149  2.0175
   13CHL1  H27B  961   5.832   0.570   8.451  0.8826 -3.2348 -0.6817
   13CHL1  H27C  962   5.823   0.609   8.637 -0.0148 -1.1712  0.4320
   14CHL1    C3  963   6.634   4.087  10.470 -0.0655 -0.5600  0.0256
   14CHL1    H3  964   6.591   4.189  10.469 -0.0743 -0.5351  1.4652
   14CHL1    O3  965   6.634   4.042  10.605 -0.3247 -0.4139 -0.4014
   14CHL1   H3'  966   6.669   3.953  10.603 -1.5558 -0.9454 -2.7657
   14CHL1    C4  967   6.552   3.990  10.385 -0.0390 -0.5963  0.1507
   14CHL1   H4A  968   6.596   3.888  10.397  1.0298  0.0350  2.1242
   14CHL1   H4B  969   6.445   3.997  10.411 -0.2900 -0.7729 -0.8257
   14CHL1    C5  970   6.567   4.019  10.237  0.4870 -0.5823 -0.0167
   14CHL1    C6  971   6.465   4.058  10.162 -0.4520  0.7738 -0.1415
   14CHL1    H6  972   6.365   4.055  10.207 -0.0940 -3.5593  0.7782
   14CHL1    C7  973   6.469   4.081  10.019 -0.2009 -0.0952  0.1502
   14CHL1   H7A  974   6.383   4.029   9.974 -0.6098 -0.2610  1.0954
   14CHL1   H7B  975   6.453   4.190  10.000 -1.2842  0.0714  1.7483
   14CHL1    C8  976   6.595   4.030   9.948 -0.2049 -0.4444  0.5596
   14CHL1    H8  977   6.587   3.920   9.934 -1.1332 -0.2393 -0.7468
   14CHL1   C14  978   6.606   4.092   9.807 -0.1462  0.1106  0.0581
   14CHL1   H14  979   6.612   4.201   9.827 -0.4104 -0.1068  1.4291
   14CHL1   C15  980   6.485   4.081   9.717  0.2517 -0.0580  0.5442
   14CHL1  H15A  981   6.444   3.977   9.718  0.3159 -0.0936 -0.1477
   14CHL1  H15B  982   6.407   4.143   9.768 -0.6033 -0.8118  0.1823
   14CHL1   C16  983   6.537   4.113   9.582 -0.3523  0.8200  0.2006
   14CHL1  H16A  984   6.511   4.036   9.506 -0.7597  0.1781  0.9752
   14CHL1  H16B  985   6.492   4.198   9.528 -0.6688  0.5999  0.1125
   14CHL1   C17  986   6.692   4.127   9.596  0.1810  0.4391 -0.5525
   14CHL1   H17  987   6.701   4.237   9.613 -1.8005  0.3245  1.6650
   14CHL1   C13  988   6.729   4.050   9.723 -0.3258 -0.1022  0.1990
   14CHL1   C18  989   6.722   3.898   9.715  0.0731  0.0339  1.6434
   14CHL1  H18A  990   6.810   3.862   9.659 -0.8074  0.9622 -0.4359
   14CHL1  H18B  991   6.719   3.838   9.809  2.2622 -3.3476 -0.2425
   14CHL1  H18C  992   6.628   3.862   9.667 -0.3640  0.5344  2.1135
   14CHL1   C12  993   6.854   4.100   9.797 -0.8880 -0.0305 -0.7481
   14CHL1  H12A  994   6.953   4.065   9.763 -1.0132 -2.6118  1.2314
   14CHL1  H12B  995   6.853   4.211   9.804 -0.9399  0.0631 -2.0189
   14CHL1   C11  996   6.852   4.047   9.948  0.5184  0.4449  0.1080
   14CHL1  H11A  997   6.875   3.939   9.945  0.6470  0.4437  0.8887
   14CHL1  H11B  998   6.932   4.094  10.009 -1.1253 -0.3363  3.0703
   14CHL1    C9  999   6.718   4.065  10.027  0.3861  0.8372 -0.2381
   14CHL1    H9 1000   6.710   4.174  10.045  0.8506  0.9434 -0.6458
   14CHL1   C10 1001   6.711   4.023  10.175  0.3890 -0.3395  0.1155
   14CHL1   C19 1002   6.767   3.877  10.192  0.3870  0.7617 -0.0465
   14CHL1  H19A 1003   6.756   3.839  10.295 -1.2013  0.9542 -0.1153
   14CHL1  H19B 1004   6.711   3.803  10.130 -2.7704  1.4218  1.8021
   14CHL1  H19C 1005   6.871   3.871  10.153  0.1203  0.6060 -0.7621
   14CHL1    C1 1006   6.789   4.119  10.261  0.6961 -0.2299 -0.4397
   14CHL1   H1A 1007   6.897   4.116  10.233  0.3282 -1.0118 -1.8268
   14CHL1   H1B 1008   6.743   4.217  10.236  0.1490 -0.6744 -1.1976
   14CHL1    C2 1009   6.778   4.085  10.411  0.4564 -0.4351 -0.0856
   14CHL1   H2A 1010   6.858   4.133  10.472  0.4021 -1.4109  0.7875
   14CHL1   H2B 1011   6.806   3.979  10.424 -2.4451 -1.3809 -0.8740
   14CHL1   C20 1012   6.776   4.091   9.465 -0.1617 -0.1412 -0.5101
   14CHL1   H20 1013   6.741   3.989   9.439  1.5243 -0.5037 -1.4461
   14CHL1   C21 1014   6.927   4.090   9.496  0.0939  0.4826  0.4054
   14CHL1  H21A 1015   6.946   4.006   9.567 -1.2596  0.2265  0.4976
   14CHL1  H21B 1016   6.963   4.185   9.543  0.7437 -0.5656  2.1386
   14CHL1  H21C 1017   6.987   4.060   9.407  0.9210 -0.5753  1.2896
   14CHL1   C22 1018   6.742   4.179   9.338  0.0167 -0.2382  0.3873
   14CHL1  H22A 1019   6.635   4.210   9.338 -0.1121 -0.5085  2.7344
   14CHL1  H22B 1020   6.784   4.280   9.355 -1.9965  0.3904  1.9997
   14CHL1   C23 1021   6.777   4.128   9.196 -0.0420  0.3668  0.5124
   14CHL1  H23A 1022   6.887   4.124   9.183 -0.2719 -3.3220 -1.5565
   14CHL1  H23B 1023   6.742   4.023   9.190  1.0569 -0.1588  2.5046
   14CHL1   C24 1024   6.721   4.229   9.089  0.0361 -0.2883 -0.3563
   14CHL1  H24A 1025   6.610   4.228   9.096 -0.0265  1.4588 -0.6682
   14CHL1  H24B 1026   6.771   4.328   9.093 -1.5839  0.5882 -0.9286
   14CHL1   C25 1027   6.747   4.178   8.945 -0.1904  0.1264 -0.4624
   14CHL1   H25 1028   6.744   4.067   8.947 -1.9487  0.1224 -1.6734
   14CHL1   C26 1029   6.625   4.217   8.864  1.1908 -0.1223  0.8992
   14CHL1  H26A 1030   6.616   4.327   8.854  1.1699 -0.2179 -0.2520
   14CHL1  H26B 1031   6.629   4.175   8.762 -0.1919  1.7184  0.0237
   14CHL1  H26C 1032   6.532   4.175   8.909 -1.7929  5.4580  0.7841
   14CHL1   C27 1033   6.872   4.234   8.879 -0.1992 -0.3980 -0.1974
   14CHL1  H27A 1034   6.962   4.187   8.925 -0.2806 -1.7015 -1.2915
   14CHL1  H27B 1035   6.864   4.213   8.770 -0.4530 -0.2655 -0.2039
   14CHL1  H27C 1036   6.886   4.344   8.883 -1.6744 -0.1851 -0.3478
   15CHL1    C3 1037   6.252   2.597  10.245 -0.5210  0.3877  0.4355
   15CHL1    H3 1038   6.281   2.704  10.235  1.4541 -0.2990 -2.6651
   15CHL1    O3 1039   6.287   2.548  10.373 -0.0093  0.1170 -0.0681
   15CHL1   H3' 1040   6.221   2.485  10.403  1.5774 -1.1108  1.0273
   15CHL1    C4 1041   6.107   2.560  10.222 -0.2161 -0.4217  0.3353
   15CHL1   H4A 1042   6.091   2.451  10.238  0.4572 -0.7860 -1.3537
   15CHL1   H4B 1043   6.051   2.610  10.305 -2.2970 -1.5700 -0.2887
   15CHL1    C5 1044   6.052   2.597  10.085  0.4762  0.4332 -0.4265
   15CHL1    C6 1045   5.955   2.685  10.077 -0.3020  0.3477 -0.3695
   15CHL1    H6 1046   5.915   2.723  10.172 -0.5345 -0.2369 -0.2300
   15CHL1    C7 1047   5.906   2.725   9.943  0.6066  0.3748  0.4518
   15CHL1   H7A 1048   5.795   2.727   9.934  0.4838  1.6478  1.8485
   15CHL1   H7B 1049   5.947   2.824   9.914  0.8281 -0.1396 -1.1153
   15CHL1    C8 1050   5.957   2.631   9.833 -0.5483  0.3281 -0.2275
   15CHL1    H8 1051   5.906   2.533   9.841  2.5545 -1.3570  0.6941
   15CHL1   C14 1052   5.942   2.692   9.691 -0.2943 -0.3390  0.0528
   15CHL1   H14 1053   6.006   2.782   9.689 -0.0934 -0.4945 -1.1300
   15CHL1   C15 1054   5.806   2.743   9.663  0.0385  0.1224 -0.2484
   15CHL1  H15A 1055   5.733   2.671   9.705  0.9663 -0.6310  0.1209
   15CHL1  H15B 1056   5.777   2.843   9.702 -0.7522  0.7798 -2.3709
   15CHL1   C16 1057   5.801   2.755   9.507 -0.1471 -0.3119 -0.1117
   15CHL1  H16A 1058   5.716   2.692   9.471  0.3898 -0.0143 -2.0241
   15CHL1  H16B 1059   5.798   2.859   9.468 -0.1872  0.1790  1.1585
   15CHL1   C17 1060   5.928   2.694   9.452 -0.6595 -0.7335 -0.5627
   15CHL1   H17 1061   5.999   2.780   9.447 -1.5003 -0.0630 -1.7308
   15CHL1   C13 1062   5.983   2.605   9.570  0.2399 -0.1797  0.2004
   15CHL1   C18 1063   5.907   2.470   9.560 -0.7811 -0.6936 -0.7842
   15CHL1  H18A 1064   5.942   2.414   9.470  0.4979  2.1737 -2.2308
   15CHL1  H18B 1065   5.930   2.400   9.643 -0.7078 -1.1126 -1.1502
   15CHL1  H18C 1066   5.797   2.484   9.551 -1.0805 -0.0550  2.5226
   15CHL1   C12 1067   6.134   2.579   9.582 -0.0776  0.2585  0.0286
   15CHL1  H12A 1068   6.171   2.506   9.507 -1.0136  1.1713 -1.3752
   15CHL1  H12B 1069   6.188   2.675   9.578  1.1232 -0.2195  2.5683
   15CHL1   C11 1070   6.167   2.525   9.727 -0.1370  0.2105  0.6106
   15CHL1  H11A 1071   6.156   2.414   9.732  3.2378 -0.2898 -0.6801
   15CHL1  H11B 1072   6.277   2.531   9.741 -0.0942 -1.5179  1.2447
   15CHL1    C9 1073   6.106   2.606   9.846 -0.6252  0.3105 -0.1674
   15CHL1    H9 1074   6.149   2.708   9.851 -0.5816  0.2840  0.0392
   15CHL1   C10 1075   6.139   2.534   9.978  0.0462  0.4443  0.9432
   15CHL1   C19 1076   6.106   2.385   9.973  0.2507 -0.0069 -0.0723
   15CHL1  H19A 1077   6.183   2.341   9.904  1.7679 -1.0228  2.1391
   15CHL1  H19B 1078   6.122   2.335  10.071  1.0738 -0.4495 -0.4142
   15CHL1  H19C 1079   6.004   2.360   9.937  0.9502 -2.0331 -0.7826
   15CHL1    C1 1080   6.291   2.556  10.002 -0.5282  0.5209 -0.5605
   15CHL1   H1A 1081   6.350   2.486   9.939 -1.6328  0.2011 -1.2698
   15CHL1   H1B 1082   6.322   2.662   9.990  0.9308  0.0705 -0.9502
   15CHL1    C2 1083   6.329   2.518  10.145  0.0291  1.1530  0.4947
   15CHL1   H2A 1084   6.439   2.523  10.157  0.1055 -0.4822  0.7202
   15CHL1   H2B 1085   6.304   2.412  10.166 -0.5679  1.1486 -0.2017
   15CHL1   C20 1086   5.912   2.643   9.308  0.1391 -0.6496  0.0200
   15CHL1   H20 1087   5.863   2.543   9.306  0.7115 -0.9342 -0.2058
   15CHL1   C21 1088   6.049   2.622   9.238  0.1575 -0.0515 -0.4528
   15CHL1  H21A 1089   6.028   2.567   9.144 -1.7446 -0.2276  0.0258
   15CHL1  H21B 1090   6.120   2.560   9.297  2.3697  0.5382 -2.3454
   15CHL1  H21C 1091   6.085   2.725   9.222 -1.6942  0.5857 -0.7872
   15CHL1   C22 1092   5.821   2.742   9.231  0.2413  0.7920  0.4926
   15CHL1  H22A 1093   5.717   2.759   9.267 -0.5936 -1.5635 -0.5456
   15CHL1  H22B 1094   5.884   2.833   9.239  0.5384  0.6066  0.2966
   15CHL1   C23 1095   5.799   2.705   9.080 -0.5070 -0.3937  0.0714
   15CHL1  H23A 1096   5.900   2.708   9.033  0.1145  0.7888  1.3683
   15CHL1  H23B 1097   5.764   2.601   9.069 -0.4920 -0.3740 -0.1561
   15CHL1   C24 1098   5.706   2.802   9.007 -0.1379  0.2275  1.2763
   15CHL1  H24A 1099   5.598   2.780   9.018 -0.0756 -1.2534 -0.5236
   15CHL1  H24B 1100   5.733   2.900   9.051  0.3238  0.5757  0.2448
   15CHL1   C25 1101   5.735   2.810   8.858  0.1428 -0.4447  0.4069
   15CHL1   H25 1102   5.844   2.829   8.851  0.2918 -0.1531  2.7968
   15CHL1   C26 1103   5.683   2.676   8.797  0.5154 -0.2444 -0.0582
   15CHL1  H26A 1104   5.573   2.674   8.788  0.4639 -2.0594  0.4686
   15CHL1  H26B 1105   5.714   2.649   8.693 -0.6823  0.0241 -0.4940
   15CHL1  H26C 1106   5.698   2.590   8.866 -1.0843  0.7648  1.6276
   15CHL1   C27 1107   5.671   2.940   8.801 -0.5534  0.0697  0.0384
   15CHL1  H27A 1108   5.571   2.956   8.847  0.1753  2.6151  0.9375
   15CHL1  H27B 1109   5.720   3.036   8.830  0.3742 -0.8074  1.5173
   15CHL1  H27C 1110   5.657   2.940   8.691  0.0685  0.3693 -0.0476
   16CHL1    C3 1111   0.703   3.223  10.330  0.4623 -0.1975  0.0512
   16CHL1    H3 1112   0.678   3.121  10.293  0.2298 -0.6685  1.4388
   16CHL1    O3 1113   0.711   3.210  10.470  0.0308 -0.1253 -0.2322
   16CHL1   H3' 1114   0.800   3.242  10.486  0.5870 -1.3309 -0.8053
   16CHL1    C4 1115   0.843   3.249  10.260 -0.4133  0.1066  0.5417
   16CHL1   H4A 1116   0.871   3.354  10.281  0.2109  0.0048  0.2334
   16CHL1   H4B 1117   0.911   3.170  10.298 -1.6845 -1.3789 -0.1066
   16CHL1    C5 1118   0.829   3.231  10.108 -0.2558  0.1798  0.0298
   16CHL1    C6 1119   0.903   3.144  10.039  0.6038  0.4012  0.0839
   16CHL1    H6 1120   0.975   3.081  10.094  0.9571  0.4605 -0.3074
   16CHL1    C7 1121   0.886   3.130   9.887  0.9924 -0.3791  0.6815
   16CHL1   H7A 1122   0.985   3.108   9.841  0.9123 -0.3362  0.4849
   16CHL1   H7B 1123   0.813   3.050   9.864 -0.7834  1.1849  0.6229
   16CHL1    C8 1124   0.825   3.261   9.824 -0.0921 -0.4355 -0.1263
   16CHL1    H8 1125   0.898   3.342   9.846 -1.0109  0.3614  0.0647
   16CHL1   C14 1126   0.784   3.238   9.679 -0.1902  1.0335 -0.5310
   16CHL1   H14 1127   0.722   3.145   9.684  2.6324 -0.9274  1.9626
   16CHL1   C15 1128   0.903   3.202   9.584  0.2425 -0.4126 -0.4677
   16CHL1  H15A 1129   0.991   3.265   9.604  0.1178 -0.6793  1.0677
   16CHL1  H15B 1130   0.932   3.096   9.601  1.3746  0.0098  0.4040
   16CHL1   C16 1131   0.856   3.239   9.445  0.1322 -0.4145 -0.4234
   16CHL1  H16A 1132   0.924   3.314   9.398  1.2694 -0.2456  1.3976
   16CHL1  H16B 1133   0.844   3.148   9.382  0.8608  0.6443 -2.1897
   16CHL1   C17 1134   0.709   3.294   9.467 -0.7695 -0.3067  0.1416
   16CHL1   H17 1135   0.652   3.199   9.462  0.0461 -0.7548 -0.8716
   16CHL1   C13 1136   0.712   3.343   9.609 -0.2746  0.7076 -0.5428
   16CHL1   C18 1137   0.792   3.468   9.616 -0.9146 -0.5038 -0.4329
   16CHL1  H18A 1138   0.847   3.481   9.711 -0.1487  0.1157 -0.9419
   16CHL1  H18B 1139   0.869   3.466   9.536  0.4550  1.8026  0.7327
   16CHL1  H18C 1140   0.725   3.551   9.584 -0.1673 -0.2806 -1.4652
   16CHL1   C12 1141   0.572   3.360   9.676  0.5881  0.0944  0.7419
   16CHL1  H12A 1142   0.512   3.443   9.633 -1.1866 -0.4381  2.0358
   16CHL1  H12B 1143   0.508   3.269   9.665  1.1564 -0.4414  1.6693
   16CHL1   C11 1144   0.595   3.396   9.824 -0.5566  0.4232 -0.8065
   16CHL1  H11A 1145   0.619   3.504   9.835 -0.0033  0.5350 -2.7443
   16CHL1  H11B 1146   0.495   3.394   9.872  0.5449 -0.9650  1.5876
   16CHL1    C9 1147   0.692   3.299   9.897 -0.4747  0.0288  0.0483
   16CHL1    H9 1148   0.629   3.208   9.902 -0.3123 -0.0486  0.9160
   16CHL1   C10 1149   0.724   3.334  10.048 -0.8164 -0.1020  0.7303
   16CHL1   C19 1150   0.780   3.477  10.056 -0.4300  0.3987  0.8047
   16CHL1  H19A 1151   0.792   3.508  10.162 -2.5070  0.0743  1.1843
   16CHL1  H19B 1152   0.873   3.500  10.000 -1.4174  2.0646 -0.2404
   16CHL1  H19C 1153   0.697   3.543  10.023 -0.6650 -0.0047  0.5731
   16CHL1    C1 1154   0.598   3.318  10.128 -0.5510 -0.2756  1.1462
   16CHL1   H1A 1155   0.522   3.390  10.092 -0.0904 -0.9703 -1.4051
   16CHL1   H1B 1156   0.549   3.220  10.109  0.0819  0.0101 -2.6322
   16CHL1    C2 1157   0.607   3.324  10.287  0.8261  0.4118 -0.1696
   16CHL1   H2A 1158   0.505   3.299  10.325  1.1939  0.7544  1.0854
   16CHL1   H2B 1159   0.639   3.425  10.318 -0.7843  0.7620  0.4831
   16CHL1   C20 1160   0.655   3.384   9.364 -0.2806  0.5762 -0.0534
   16CHL1   H20 1161   0.666   3.491   9.392  0.5741  0.1634  1.2661
   16CHL1   C21 1162   0.510   3.354   9.356 -0.6579  0.6851 -0.8304
   16CHL1  H21A 1163   0.458   3.362   9.454 -1.7445  0.7281 -1.3942
   16CHL1  H21B 1164   0.501   3.250   9.318  3.2965  0.0057 -0.2876
   16CHL1  H21C 1165   0.454   3.424   9.290 -0.7932  0.2929 -1.1321
   16CHL1   C22 1166   0.725   3.372   9.229  0.8355  0.1187  0.2840
   16CHL1  H22A 1167   0.830   3.405   9.246  0.5925  0.7969  0.5091
   16CHL1  H22B 1168   0.735   3.264   9.206  1.8775 -0.0384  1.3784
   16CHL1   C23 1169   0.663   3.445   9.113  0.0915 -0.3930  0.1582
   16CHL1  H23A 1170   0.559   3.407   9.104 -0.0766  0.2459 -0.8689
   16CHL1  H23B 1171   0.655   3.552   9.141  1.2027  0.1372 -1.3907
   16CHL1   C24 1172   0.734   3.433   8.974 -0.3456 -0.1214 -0.9149
   16CHL1  H24A 1173   0.834   3.480   8.964 -0.8056  0.7862 -1.4368
   16CHL1  H24B 1174   0.744   3.325   8.950 -0.9412 -0.9620  2.2333
   16CHL1   C25 1175   0.664   3.504   8.858  0.3901 -0.7504  0.6633
   16CHL1   H25 1176   0.564   3.457   8.846  0.5669 -1.7651  2.7445
   16CHL1   C26 1177   0.646   3.652   8.878  0.3863  0.3083 -0.6325
   16CHL1  H26A 1178   0.561   3.679   8.944  0.1716  1.0656 -1.2050
   16CHL1  H26B 1179   0.739   3.701   8.913 -0.0960 -1.0317  2.8855
   16CHL1  H26C 1180   0.624   3.698   8.779  0.0595  0.4617 -0.4893
   16CHL1   C27 1181   0.727   3.484   8.716 -0.0039  0.5493 -0.2710
   16CHL1  H27A 1182   0.758   3.377   8.703 -1.2056  0.2268 -0.5541
   16CHL1  H27B 1183   0.661   3.503   8.629 -3.4151  1.5156  2.3263
   16CHL1  H27C 1184   0.829   3.530   8.713  0.5399 -0.5949  0.0050
   17CHL1    C3 1185   2.411   1.434  10.534  0.3343 -0.2846  0.5982
   17CHL1    H3 1186   2.307   1.396  10.540 -0.1818  1.2912  2.6519
   17CHL1    O3 1187   2.481   1.407  10.650  0.0835  0.8276 -0.3073
   17CHL1   H3' 1188   2.478   1.315  10.677 -1.2766  1.0633  0.4587
   17CHL1    C4 1189   2.475   1.348  10.424  0.4155  0.9541 -0.0919
   17CHL1   H4A 1190   2.578   1.391  10.418  1.2747 -0.4350  2.9336
   17CHL1   H4B 1191   2.488   1.244  10.458  1.1509  1.1893  0.3732
   17CHL1    C5 1192   2.406   1.361  10.286 -0.4555  0.2832  0.5523
   17CHL1    C6 1193   2.355   1.255  10.220  0.1791  0.1562 -0.2347
   17CHL1    H6 1194   2.383   1.164  10.275  1.3919  0.0094 -1.0550
   17CHL1    C7 1195   2.290   1.262  10.087  0.3944  0.6332 -0.3240
   17CHL1   H7A 1196   2.328   1.189  10.013  0.2993  1.4386 -1.1957
   17CHL1   H7B 1197   2.181   1.248  10.100  0.5762 -0.1541  0.4604
   17CHL1    C8 1198   2.302   1.400  10.011  0.8738  0.0427  0.3287
   17CHL1    H8 1199   2.402   1.398   9.965  1.4004 -2.9959  1.3652
   17CHL1   C14 1200   2.184   1.408   9.910 -0.2405  0.7208  0.4108
   17CHL1   H14 1201   2.088   1.412   9.967  0.6460 -1.2905  2.1710
   17CHL1   C15 1202   2.172   1.304   9.806  0.2073  1.0601  0.3813
   17CHL1  H15A 1203   2.265   1.285   9.747  0.7394  3.0044  0.5461
   17CHL1  H15B 1204   2.133   1.212   9.856 -1.4716  2.0445  0.9635
   17CHL1   C16 1205   2.078   1.364   9.699 -0.2192 -0.7165 -0.1324
   17CHL1  H16A 1206   2.112   1.330   9.599 -1.0647 -2.6264  0.1955
   17CHL1  H16B 1207   1.981   1.323   9.733  1.4839 -3.0723  2.3658
   17CHL1   C17 1208   2.080   1.516   9.712  0.0908  0.8319  0.8272
   17CHL1   H17 1209   1.986   1.544   9.763  0.8578 -0.4386  3.0500
   17CHL1   C13 1210   2.190   1.542   9.824  1.3460 -0.2630 -0.5696
   17CHL1   C18 1211   2.318   1.550   9.742  0.0438 -0.0900 -0.1386
   17CHL1  H18A 1212   2.411   1.548   9.802 -0.2690 -0.2334  0.3488
   17CHL1  H18B 1213   2.333   1.464   9.673 -2.6018 -0.8825  0.1441
   17CHL1  H18C 1214   2.331   1.640   9.678  3.3190 -1.1170 -1.1363
   17CHL1   C12 1215   2.170   1.653   9.920  0.4042  0.2879 -0.2075
   17CHL1  H12A 1216   2.185   1.752   9.873  1.9390  0.1326 -0.1151
   17CHL1  H12B 1217   2.063   1.644   9.948  0.0985 -0.4948 -1.5587
   17CHL1   C11 1218   2.274   1.649  10.041  0.6235 -0.2067 -0.5752
   17CHL1  H11A 1219   2.376   1.672  10.004 -0.3300  2.3199 -1.9000
   17CHL1  H11B 1220   2.248   1.732  10.110 -0.5441 -0.4836 -0.6682
   17CHL1    C9 1221   2.290   1.513  10.115  0.2794 -0.1459 -0.0827
   17CHL1    H9 1222   2.190   1.496  10.161  0.4662 -1.6705 -0.1857
   17CHL1   C10 1223   2.387   1.508  10.241  0.0439  0.1829 -0.3203
   17CHL1   C19 1224   2.530   1.553  10.198  0.1031  0.0315 -0.5415
   17CHL1  H19A 1225   2.541   1.664  10.196  0.1145  0.0163 -1.4426
   17CHL1  H19B 1226   2.613   1.515  10.262 -0.6888 -0.4287  0.2445
   17CHL1  H19C 1227   2.550   1.513  10.097  1.6502  0.7656 -0.5709
   17CHL1    C1 1228   2.340   1.605  10.356 -0.3681 -0.0970 -0.1499
   17CHL1   H1A 1229   2.361   1.712  10.335  2.7016  0.0474  2.7216
   17CHL1   H1B 1230   2.232   1.586  10.374 -0.8264  1.2184 -1.3343
   17CHL1    C2 1231   2.415   1.581  10.493 -0.1931  0.3964 -0.3402
   17CHL1   H2A 1232   2.371   1.638  10.578 -1.0912  1.1214 -1.2626
   17CHL1   H2B 1233   2.521   1.611  10.496  0.6861 -2.1945 -1.9115
   17CHL1   C20 1234   2.088   1.599   9.583  0.2847 -0.5297  0.3106
   17CHL1   H20 1235   2.182   1.581   9.528  0.2096 -2.2923  0.7202
   17CHL1   C21 1236   2.076   1.751   9.612  0.5825 -0.0504 -0.2114
   17CHL1  H21A 1237   2.056   1.819   9.526  0.1838 -1.2321 -1.0891
   17CHL1  H21B 1238   2.172   1.781   9.658  0.3706 -0.3949  0.4722
   17CHL1  H21C 1239   2.004   1.779   9.692  0.4999 -2.4951  0.6561
   17CHL1   C22 1240   1.968   1.570   9.493 -0.5051 -0.0912 -0.4967
   17CHL1  H22A 1241   1.946   1.462   9.501 -0.5587  0.0349  1.7246
   17CHL1  H22B 1242   1.883   1.626   9.538  0.5926  0.7115  0.6479
   17CHL1   C23 1243   1.997   1.622   9.353 -0.6350 -0.8963 -0.2612
   17CHL1  H23A 1244   2.079   1.695   9.368 -0.9355 -0.4039 -0.9439
   17CHL1  H23B 1245   2.042   1.539   9.294 -0.2286  0.5046 -2.0177
   17CHL1   C24 1246   1.886   1.693   9.283 -0.7138 -0.1454  0.0784
   17CHL1  H24A 1247   1.801   1.622   9.269 -1.4237  0.4000  1.5100
   17CHL1  H24B 1248   1.854   1.775   9.350  0.3304  1.8684 -1.7471
   17CHL1   C25 1249   1.918   1.742   9.144  0.1304 -0.4641  0.1331
   17CHL1   H25 1250   2.020   1.786   9.144  0.3654 -0.7438 -3.2299
   17CHL1   C26 1251   1.931   1.626   9.044  0.1056 -0.2898 -0.2050
   17CHL1  H26A 1252   1.944   1.665   8.941  0.9039 -1.0184 -0.3876
   17CHL1  H26B 1253   2.007   1.549   9.066  1.5692  1.0849 -0.2786
   17CHL1  H26C 1254   1.829   1.580   9.039 -1.4021  2.5930  1.2867
   17CHL1   C27 1255   1.807   1.838   9.103  0.7647  0.2197 -0.4457
   17CHL1  H27A 1256   1.795   1.913   9.184  0.9015  1.5544 -1.6192
   17CHL1  H27B 1257   1.851   1.895   9.019  0.3623 -0.6213 -1.2362
   17CHL1  H27C 1258   1.710   1.789   9.080  0.5104  0.7671 -0.5700
   18CHL1    C3 1259   0.230   4.844  10.341  0.2820  0.2302  0.2910
   18CHL1    H3 1260   0.207   4.738  10.316 -0.4778  0.4407  0.0823
   18CHL1    O3 1261   0.230   4.876  10.477 -0.2787  0.7842 -0.1367
   18CHL1   H3' 1262   0.185   4.961  10.487 -0.8579  0.7014 -1.7537
   18CHL1    C4 1263   0.361   4.887  10.267 -0.1302 -0.6019  0.1216
   18CHL1   H4A 1264   0.373   4.993  10.300 -3.0466  0.2962 -1.3650
   18CHL1   H4B 1265   0.437   4.819  10.311  0.3258 -1.0609 -1.3287
   18CHL1    C5 1266   0.366   4.880  10.121 -0.7160 -0.4030  0.5813
   18CHL1    C6 1267   0.475   4.825  10.063  0.1882 -0.9521 -0.9924
   18CHL1    H6 1268   0.562   4.790  10.121 -0.7342 -4.2920 -1.3981
   18CHL1    C7 1269   0.484   4.835   9.907 -0.5793 -0.0725 -0.4030
   18CHL1   H7A 1270   0.580   4.864   9.859  0.0649  1.2002  1.5706
   18CHL1   H7B 1271   0.460   4.736   9.860  2.1578 -2.4568  2.7769
   18CHL1    C8 1272   0.379   4.931   9.847 -0.1022 -0.8250  0.1709
   18CHL1    H8 1273   0.412   5.035   9.865  0.1938 -1.2262  2.1739
   18CHL1   C14 1274   0.373   4.907   9.690 -0.8434 -0.0622 -0.8046
   18CHL1   H14 1275   0.342   4.802   9.668  0.7382 -1.5795  3.2875
   18CHL1   C15 1276   0.503   4.918   9.603  0.2061  0.2093  0.0511
   18CHL1  H15A 1277   0.566   4.996   9.650  0.1900 -0.6042  1.4844
   18CHL1  H15B 1278   0.556   4.822   9.621  4.4508  2.0486 -1.3870
   18CHL1   C16 1279   0.461   4.948   9.461 -0.0389 -0.7505 -0.1793
   18CHL1  H16A 1280   0.498   5.050   9.440 -1.1586 -0.2672  0.1033
   18CHL1  H16B 1281   0.508   4.879   9.388 -0.3166  0.5299 -1.6101
   18CHL1   C17 1282   0.305   4.954   9.472 -0.8848  0.3112  0.0393
   18CHL1   H17 1283   0.288   4.844   9.472  1.5708 -0.1376  1.4478
   18CHL1   C13 1284   0.269   4.997   9.621  0.4954 -0.4343 -0.2585
   18CHL1   C18 1285   0.309   5.143   9.640 -0.0949 -0.1537  0.1510
   18CHL1  H18A 1286   0.263   5.203   9.559  2.0980  3.2853  1.2247
   18CHL1  H18B 1287   0.269   5.195   9.729  0.5629  0.7791 -0.0898
   18CHL1  H18C 1288   0.419   5.156   9.641 -0.0095 -0.8224  0.3465
   18CHL1   C12 1289   0.136   4.964   9.674  0.5024  0.1887 -0.4346
   18CHL1  H12A 1290   0.049   5.017   9.630 -0.1884 -1.3455 -1.0017
   18CHL1  H12B 1291   0.125   4.855   9.656  0.2811  0.2372 -0.5965
   18CHL1   C11 1292   0.130   4.977   9.824  0.6577  0.2528  0.3506
   18CHL1  H11A 1293   0.132   5.086   9.846  0.5238  0.0883  1.2225
   18CHL1  H11B 1294   0.028   4.938   9.845 -0.2943  2.4284  0.0366
   18CHL1    C9 1295   0.244   4.909   9.906 -0.5361 -0.5478  0.6384
   18CHL1    H9 1296   0.216   4.801   9.899  3.4448 -1.7960  1.2763
   18CHL1   C10 1297   0.250   4.947  10.055  0.3279  0.7500  0.4468
   18CHL1   C19 1298   0.268   5.102  10.079  0.5317  0.0677  0.2263
   18CHL1  H19A 1299   0.169   5.143  10.052  0.3623 -0.2072  0.4220
   18CHL1  H19B 1300   0.288   5.129  10.185 -0.1289 -0.3332  0.4574
   18CHL1  H19C 1301   0.353   5.147  10.023  2.0978 -2.7021  0.1505
   18CHL1    C1 1302   0.117   4.897  10.129 -0.2656 -0.2729  1.1665
   18CHL1   H1A 1303   0.037   4.954  10.078 -0.2640 -0.0227  1.4425
   18CHL1   H1B 1304   0.113   4.787  10.120 -0.3025 -0.1502 -0.5260
   18CHL1    C2 1305   0.117   4.924  10.274 -0.5509 -0.2652 -0.2311
   18CHL1   H2A 1306   0.024   4.908  10.332 -0.2166  0.5269  0.5272
   18CHL1   H2B 1307   0.141   5.028  10.301  0.7453  0.3395 -3.2434
   18CHL1   C20 1308   0.234   5.021   9.359  0.5449 -0.6939  0.0532
   18CHL1   H20 1309   0.241   5.131   9.375  0.7396 -0.3702 -2.0334
   18CHL1   C21 1310   0.086   4.981   9.362 -0.0993 -0.0971 -0.5444
   18CHL1  H21A 1311   0.080   4.877   9.399 -0.7304  0.4414  0.9457
   18CHL1  H21B 1312   0.051   4.982   9.256  1.4156  1.1123 -1.0839
   18CHL1  H21C 1313   0.022   5.045   9.426  1.5668  1.9510 -0.8157
   18CHL1   C22 1314   0.295   4.995   9.216  0.4568  0.0197 -0.2989
   18CHL1  H22A 1315   0.397   5.038   9.203  1.2694 -1.1115  1.7985
   18CHL1  H22B 1316   0.302   4.885   9.203 -1.7984 -0.1016 -0.7820
   18CHL1   C23 1317   0.223   5.060   9.096  0.1154 -0.2002  0.6079
   18CHL1  H23A 1318   0.130   5.002   9.077  0.7531 -1.8283  2.1769
   18CHL1  H23B 1319   0.200   5.162   9.135  2.0447  0.4165  0.2355
   18CHL1   C24 1320   0.318   5.067   8.976 -0.2774 -0.0579  1.0465
   18CHL1  H24A 1321   0.419   5.111   8.993  0.4753 -1.4144  0.2724
   18CHL1  H24B 1322   0.332   4.961   8.946  0.9370 -0.0309  1.4786
   18CHL1   C25 1323   0.257   5.148   8.857  0.9695  0.5496  0.3352
   18CHL1   H25 1324   0.294   5.251   8.876  3.7331 -0.3369  0.0730
   18CHL1   C26 1325   0.315   5.113   8.716 -0.0320 -0.5324  0.6253
   18CHL1  H26A 1326   0.259   5.164   8.635  1.2412  1.8013  1.1360
   18CHL1  H26B 1327   0.423   5.139   8.714 -0.5749  2.7401 -4.1973
   18CHL1  H26C 1328   0.310   5.004   8.693  2.0125 -0.4999 -0.1787
   18CHL1   C27 1329   0.102   5.158   8.859  0.5483 -0.9454 -0.4043
   18CHL1  H27A 1330   0.056   5.206   8.948 -2.3880 -0.1301 -2.2087
   18CHL1  H27B 1331   0.073   5.215   8.769 -1.7383  0.3949  1.0683
   18CHL1  H27C 1332   0.058   5.057   8.846  0.3472 -0.9382  0.2004
   19CHL1    C3 1333   6.078   3.965  10.320  0.5712 -0.2279 -0.0192
   19CHL1    H3 1334   6.189   3.956  10.315  0.6523  0.8315 -0.1953
   19CHL1    O3 1335   6.044   3.962  10.455 -0.2947  0.0679  0.1246
   19CHL1   H3' 1336   6.054   4.050  10.493 -1.4508 -0.5860  2.1159
   19CHL1    C4 1337   6.034   4.101  10.278  0.3040  0.1153 -0.2678
   19CHL1   H4A 1338   5.926   4.122  10.293  0.1239 -0.6447 -0.4904
   19CHL1   H4B 1339   6.085   4.179  10.339 -0.4854  0.8001 -0.4758
   19CHL1    C5 1340   6.059   4.124  10.130  0.9289 -0.1338  0.0978
   19CHL1    C6 1341   6.128   4.237  10.089  0.7153  0.2189  0.3422
   19CHL1    H6 1342   6.154   4.304  10.172 -0.2739 -1.5425  2.1646
   19CHL1    C7 1343   6.149   4.272   9.945 -0.0246  0.3455  0.4610
   19CHL1   H7A 1344   6.130   4.381   9.931 -0.6614  0.3853  1.5728
   19CHL1   H7B 1345   6.256   4.257   9.917 -0.4823  1.6997 -2.5115
   19CHL1    C8 1346   6.049   4.194   9.846  0.1810 -0.5618 -0.2155
   19CHL1    H8 1347   5.952   4.245   9.867  0.0413 -1.1333  0.5800
   19CHL1   C14 1348   6.105   4.204   9.704 -0.1006  0.5249 -0.1529
   19CHL1   H14 1349   6.193   4.139   9.686 -1.7250 -2.1720  0.9769
   19CHL1   C15 1350   6.156   4.345   9.657 -0.3443  0.5127 -0.1180
   19CHL1  H15A 1351   6.079   4.421   9.682  1.1004  1.7403  0.8448
   19CHL1  H15B 1352   6.248   4.379   9.711 -1.4002  1.7837  0.9580
   19CHL1   C16 1353   6.171   4.327   9.502  0.1765  0.2890  0.0354
   19CHL1  H16A 1354   6.118   4.415   9.460 -0.4957  1.8050  3.6728
   19CHL1  H16B 1355   6.280   4.324   9.480  0.0667  1.9686 -0.8880
   19CHL1   C17 1356   6.108   4.183   9.472  0.6057  0.6833 -0.7012
   19CHL1   H17 1357   6.192   4.110   9.473  1.2876  1.4056 -2.0687
   19CHL1   C13 1358   6.018   4.148   9.596 -0.5517  0.2786 -0.6383
   19CHL1   C18 1359   5.883   4.222   9.587  0.1301  0.2844 -0.4027
   19CHL1  H18A 1360   5.831   4.175   9.500  1.1290 -2.3720  0.3491
   19CHL1  H18B 1361   5.812   4.207   9.671 -0.3803 -1.4410 -1.1018
   19CHL1  H18C 1362   5.895   4.331   9.570 -0.1296  0.1916 -1.2638
   19CHL1   C12 1363   6.005   3.990   9.628  0.0536  0.6611  0.4089
   19CHL1  H12A 1364   5.935   3.943   9.556 -1.1469  2.2146  0.5167
   19CHL1  H12B 1365   6.105   3.949   9.603 -0.7731  0.1175 -2.3654
   19CHL1   C11 1366   5.960   3.971   9.773  0.1783 -0.3947 -0.1301
   19CHL1  H11A 1367   5.857   4.014   9.772 -0.4073 -1.7286  0.0651
   19CHL1  H11B 1368   5.952   3.866   9.808  1.5241 -0.2416  0.7123
   19CHL1    C9 1369   6.046   4.046   9.878  0.3126  0.5133  0.0213
   19CHL1    H9 1370   6.149   4.005   9.867  0.3213  0.3634  0.6036
   19CHL1   C10 1371   6.003   4.024  10.030 -0.1547 -0.5533  0.3562
   19CHL1   C19 1372   5.849   4.055  10.030 -0.6103 -0.2701 -0.6594
   19CHL1  H19A 1373   5.811   4.022  10.129  2.1104 -0.4733  0.4230
   19CHL1  H19B 1374   5.813   4.159  10.023 -2.8680 -1.0052 -0.8315
   19CHL1  H19C 1375   5.809   3.975   9.964 -0.6739 -1.5303  0.8490
   19CHL1    C1 1376   6.026   3.879  10.081  0.7061  0.0525 -0.1535
   19CHL1   H1A 1377   5.963   3.811  10.020 -0.2956 -0.4185  1.3694
   19CHL1   H1B 1378   6.133   3.859  10.057  1.0592  2.1111 -0.5602
   19CHL1    C2 1379   6.007   3.860  10.238 -0.1120 -0.2313  0.0072
   19CHL1   H2A 1380   6.044   3.761  10.269  4.1112  0.9332 -0.7541
   19CHL1   H2B 1381   5.897   3.862  10.255  0.2025  0.6680  2.3411
   19CHL1   C20 1382   6.045   4.179   9.333 -0.0569  0.0078 -0.7336
   19CHL1   H20 1383   5.955   4.245   9.332 -0.1286 -0.0897 -0.9064
   19CHL1   C21 1384   5.998   4.040   9.275  0.3346 -0.2999 -0.5660
   19CHL1  H21A 1385   5.938   3.991   9.354  4.6625  0.2773  3.5504
   19CHL1  H21B 1386   6.089   3.977   9.285  0.7893  0.4649  0.3775
   19CHL1  H21C 1387   5.947   4.040   9.177 -0.8225  1.4205 -0.0124
   19CHL1   C22 1388   6.135   4.246   9.224 -0.4640 -0.4433  0.6871
   19CHL1  H22A 1389   6.153   4.355   9.239  0.5825 -0.2457 -1.6429
   19CHL1  H22B 1390   6.232   4.195   9.243 -1.0282 -1.4180  1.0500
   19CHL1   C23 1391   6.097   4.240   9.071  0.4630 -0.0594 -0.0538
   19CHL1  H23A 1392   6.087   4.134   9.038  0.9003 -0.0331 -0.2791
   19CHL1  H23B 1393   5.998   4.288   9.057  0.0226 -1.1968 -1.0898
   19CHL1   C24 1394   6.198   4.312   8.982 -0.4605  0.2855 -0.1374
   19CHL1  H24A 1395   6.216   4.415   9.020 -0.3448 -0.5975  2.3204
   19CHL1  H24B 1396   6.296   4.260   8.983  0.1549  1.4323  0.4545
   19CHL1   C25 1397   6.152   4.332   8.837  0.4917 -0.3429  0.2012
   19CHL1   H25 1398   6.048   4.373   8.831  1.2149  2.0710  2.3008
   19CHL1   C26 1399   6.239   4.435   8.770 -0.6510 -0.4092  0.0175
   19CHL1  H26A 1400   6.347   4.411   8.776 -1.1583 -3.0359 -0.1109
   19CHL1  H26B 1401   6.217   4.437   8.661 -3.2608  1.6005  0.4778
   19CHL1  H26C 1402   6.226   4.539   8.805 -0.1480 -0.3675  0.0895
   19CHL1   C27 1403   6.163   4.201   8.755 -0.6029  0.2808  0.3120
   19CHL1  H27A 1404   6.104   4.118   8.798  0.0459 -0.5313 -0.3305
   19CHL1  H27B 1405   6.130   4.218   8.650 -1.9855  1.3133  0.8870
   19CHL1  H27C 1406   6.268   4.164   8.757  0.1537  2.0974 -1.3643
   20CHL1    C3 1407   2.946   2.764  10.545  0.0793  0.1895 -0.1491
   20CHL1    H3 1408   3.014   2.686  10.507  1.4865  0.5347  1.5391
   20CHL1    O3 1409   2.923   2.742  10.688 -0.5559  0.0897 -0.3401
   20CHL1   H3' 1410   2.918   2.647  10.698  0.4321  0.0726  0.0880
   20CHL1    C4 1411   3.027   2.895  10.527  0.1519 -0.2599 -0.0379
   20CHL1   H4A 1412   2.970   2.968  10.589 -0.9134 -0.1595 -1.0892
   20CHL1   H4B 1413   3.119   2.876  10.585 -0.1415 -1.0739  0.1788
   20CHL1    C5 1414   3.056   2.943  10.387 -0.1967  0.6026  0.1345
   20CHL1    C6 1415   3.182   2.974  10.354 -0.5163 -0.1099  0.3734
   20CHL1    H6 1416   3.269   2.956  10.418 -0.1716  0.3904  0.0516
   20CHL1    C7 1417   3.236   3.005  10.218 -0.3334 -0.4793  0.2680
   20CHL1   H7A 1418   3.299   3.097  10.214  0.0861 -0.7971 -0.9026
   20CHL1   H7B 1419   3.299   2.917  10.195  1.5100  0.8240  0.0653
   20CHL1    C8 1420   3.114   3.022  10.115  0.8339  0.1231 -0.4796
   20CHL1    H8 1421   3.065   3.120  10.133 -2.3484 -1.8054  2.7076
   20CHL1   C14 1422   3.156   3.002   9.971  0.3208 -0.2768 -0.5272
   20CHL1   H14 1423   3.175   2.893   9.954  0.1049 -0.7304  1.8683
   20CHL1   C15 1424   3.279   3.080   9.918  0.2104  0.5120  0.2891
   20CHL1  H15A 1425   3.274   3.188   9.945 -1.9546  0.0069  2.0990
   20CHL1  H15B 1426   3.371   3.026   9.949  1.3132  1.3058 -1.4120
   20CHL1   C16 1427   3.271   3.066   9.764  0.1553 -0.1756  0.0428
   20CHL1  H16A 1428   3.274   3.167   9.717  0.2673  1.0985  2.6511
   20CHL1  H16B 1429   3.360   3.006   9.734  0.0933 -1.6072  2.5126
   20CHL1   C17 1430   3.136   3.004   9.729 -0.4021  0.1931  0.1569
   20CHL1   H17 1431   3.154   2.895   9.721 -2.7390 -0.2624  0.3268
   20CHL1   C13 1432   3.047   3.020   9.859  0.6204 -0.5781 -1.3120
   20CHL1   C18 1433   2.988   3.172   9.866 -0.1452  0.8020  0.5451
   20CHL1  H18A 1434   2.885   3.167   9.826  0.0247 -1.6535  0.2718
   20CHL1  H18B 1435   2.983   3.217   9.967  1.2346 -0.6381  1.3158
   20CHL1  H18C 1436   3.038   3.240   9.793  0.8978 -1.9664 -1.4950
   20CHL1   C12 1437   2.932   2.916   9.886 -0.0708 -0.8840  0.0015
   20CHL1  H12A 1438   2.849   2.941   9.816  0.7776  1.8285 -0.1639
   20CHL1  H12B 1439   2.970   2.816   9.858  1.4221 -0.6214  1.0058
   20CHL1   C11 1440   2.888   2.934  10.037 -0.2823  0.0096 -0.1137
   20CHL1  H11A 1441   2.838   3.032  10.047  2.1669  1.3546 -0.1561
   20CHL1  H11B 1442   2.802   2.863  10.040 -0.7330  0.5244 -0.6686
   20CHL1    C9 1443   2.996   2.922  10.144  0.0248  0.3087  0.1641
   20CHL1    H9 1444   3.044   2.823  10.127  0.6233  0.8164 -1.3072
   20CHL1   C10 1445   2.940   2.922  10.284 -0.2141 -0.0062 -0.3179
   20CHL1   C19 1446   2.850   3.047  10.309 -0.1959 -0.3373 -0.1809
   20CHL1  H19A 1447   2.899   3.136  10.266 -0.7808  0.6763  1.1803
   20CHL1  H19B 1448   2.745   3.048  10.272 -0.1157  2.7780 -0.5689
   20CHL1  H19C 1449   2.833   3.055  10.418  0.0051  0.4623 -0.2011
   20CHL1    C1 1450   2.856   2.798  10.316 -0.2511 -0.0202  0.2525
   20CHL1   H1A 1451   2.771   2.798  10.245 -1.2561  1.0624  1.4139
   20CHL1   H1B 1452   2.929   2.716  10.296  1.8356  0.9387  3.1729
   20CHL1    C2 1453   2.815   2.772  10.466 -0.1431  0.5677  0.5286
   20CHL1   H2A 1454   2.766   2.672  10.471 -2.0194  1.3968 -0.4410
   20CHL1   H2B 1455   2.740   2.842  10.509 -1.6426 -1.9864  2.3751
   20CHL1   C20 1456   3.084   3.047   9.591 -0.6101  0.2290 -0.0210
   20CHL1   H20 1457   3.056   3.152   9.612 -0.1950 -0.0047  1.8791
   20CHL1   C21 1458   2.951   2.977   9.555 -0.4129 -0.2338 -0.4198
   20CHL1  H21A 1459   2.868   3.019   9.616 -0.8723  0.0168 -1.1914
   20CHL1  H21B 1460   2.957   2.869   9.580 -1.7626  0.4778  3.5945
   20CHL1  H21C 1461   2.930   3.005   9.449  1.8708  1.0532 -0.5942
   20CHL1   C22 1462   3.174   3.038   9.467  0.5486  0.2979 -0.9714
   20CHL1  H22A 1463   3.283   3.040   9.489  1.2452 -2.7136 -3.3797
   20CHL1  H22B 1464   3.157   2.938   9.422  1.8289 -0.7846  0.8051
   20CHL1   C23 1465   3.149   3.151   9.366  0.2140  0.5111 -0.0163
   20CHL1  H23A 1466   3.041   3.151   9.343  0.0280  1.6076  0.8163
   20CHL1  H23B 1467   3.157   3.248   9.418  1.6497  0.3585  0.1008
   20CHL1   C24 1468   3.226   3.153   9.231  0.9692 -0.2375  0.6262
   20CHL1  H24A 1469   3.178   3.242   9.186  2.9298  0.6311  0.1468
   20CHL1  H24B 1470   3.334   3.173   9.244  1.2510 -0.0874 -1.5676
   20CHL1   C25 1471   3.213   3.030   9.140 -0.4685  0.0428  0.1514
   20CHL1   H25 1472   3.293   2.958   9.169 -0.4119  0.6360  1.5347
   20CHL1   C26 1473   3.080   2.961   9.135  0.5045 -0.0082 -0.8633
   20CHL1  H26A 1474   3.042   2.911   9.226 -0.0688  1.7524 -0.1004
   20CHL1  H26B 1475   2.998   3.030   9.106  1.8164  1.5350 -1.0356
   20CHL1  H26C 1476   3.086   2.880   9.059  3.4213 -0.8483  0.1247
   20CHL1   C27 1477   3.255   3.064   8.997 -0.1369 -0.8201  1.0736
   20CHL1  H27A 1478   3.176   3.117   8.940  1.1831  1.3216  1.1092
   20CHL1  H27B 1479   3.352   3.118   9.008  0.7094 -2.3094  1.1564
   20CHL1  H27C 1480   3.286   2.973   8.941  1.1409 -0.3711  1.0233
   21CHL1    C3 1481   0.227   0.542   9.862 -0.5277 -0.3064 -0.0748
   21CHL1    H3 1482   0.312   0.481   9.827  1.2014  1.3377  1.0653
   21CHL1    O3 1483   0.256   0.564   9.995  0.0878  0.4186 -0.3245
   21CHL1   H3' 1484   0.244   0.477  10.034 -2.0740  0.6207 -0.4156
   21CHL1    C4 1485   0.243   0.677   9.786  0.7231  0.1064 -0.0987
   21CHL1   H4A 1486   0.169   0.748   9.828  1.5150  0.6923  0.3336
   21CHL1   H4B 1487   0.348   0.711   9.803  0.7731  0.1729 -0.5262
   21CHL1    C5 1488   0.219   0.652   9.639 -0.1538 -1.0953 -0.7828
   21CHL1    C6 1489   0.307   0.692   9.543  0.1643  0.0066  0.0464
   21CHL1    H6 1490   0.404   0.743   9.559  0.0045  1.1251 -2.1632
   21CHL1    C7 1491   0.280   0.681   9.396  0.8349  0.1804  0.4812
   21CHL1   H7A 1492   0.294   0.777   9.343 -1.8961 -0.2416 -1.2773
   21CHL1   H7B 1493   0.352   0.614   9.344  2.7391  1.8214  0.9095
   21CHL1    C8 1494   0.132   0.653   9.361 -0.0606  0.1020  0.3424
   21CHL1    H8 1495   0.084   0.753   9.357  1.0209  0.5934 -1.6692
   21CHL1   C14 1496   0.126   0.593   9.221 -0.1353 -0.1853 -0.5215
   21CHL1   H14 1497   0.187   0.500   9.223  2.4725  1.4311  0.1113
   21CHL1   C15 1498   0.195   0.674   9.114  0.1692  0.3607  0.2163
   21CHL1  H15A 1499   0.170   0.781   9.128  1.1584  0.8110 -1.2583
   21CHL1  H15B 1500   0.305   0.655   9.116  0.3331  1.2807  0.3475
   21CHL1   C16 1501   0.125   0.615   8.988 -0.4346  0.3092  0.1915
   21CHL1  H16A 1502   0.079   0.696   8.929 -1.5113 -1.0902 -0.9607
   21CHL1  H16B 1503   0.201   0.559   8.929  0.6171  1.2459  0.6206
   21CHL1   C17 1504   0.003   0.528   9.033  0.0325 -0.8326  0.3618
   21CHL1   H17 1505   0.046   0.426   9.044  0.7190 -0.4186  1.7561
   21CHL1   C13 1506  -0.019   0.568   9.174 -0.4282  0.3556 -0.6184
   21CHL1   C18 1507  -0.101   0.696   9.175  0.3767 -0.6805  0.0242
   21CHL1  H18A 1508  -0.197   0.681   9.121 -0.5498 -0.4966  1.5611
   21CHL1  H18B 1509  -0.129   0.726   9.278 -3.7905 -2.3042 -0.4309
   21CHL1  H18C 1510  -0.044   0.776   9.124 -1.8753  1.4194  0.6256
   21CHL1   C12 1511  -0.086   0.472   9.267 -0.5671 -0.1693 -0.4038
   21CHL1  H12A 1512  -0.197   0.468   9.258 -0.7205 -1.1337  1.3929
   21CHL1  H12B 1513  -0.043   0.372   9.243  0.3380 -0.0445  0.5866
   21CHL1   C11 1514  -0.068   0.506   9.418 -0.0069 -0.9708 -0.0120
   21CHL1  H11A 1515  -0.152   0.575   9.442  1.5233  1.1920 -0.5929
   21CHL1  H11B 1516  -0.078   0.411   9.474  4.3497 -1.6250  0.0294
   21CHL1    C9 1517   0.073   0.554   9.461  0.1655 -0.2438  0.5002
   21CHL1    H9 1518   0.146   0.470   9.459 -0.6780 -1.0001  1.0783
   21CHL1   C10 1519   0.075   0.600   9.608  0.1393 -0.3436  1.0470
   21CHL1   C19 1520  -0.033   0.707   9.640  0.1835 -0.0610  0.2845
   21CHL1  H19A 1521  -0.139   0.674   9.642  0.3385 -0.6740  3.3617
   21CHL1  H19B 1522  -0.018   0.750   9.741  2.0422  1.4266 -0.5584
   21CHL1  H19C 1523  -0.029   0.803   9.585  0.1411  0.7050  1.5788
   21CHL1    C1 1524   0.058   0.473   9.695 -0.2348  0.5897  0.0428
   21CHL1   H1A 1525  -0.043   0.429   9.684  0.4518 -1.6049  1.7687
   21CHL1   H1B 1526   0.129   0.395   9.661 -1.6773 -0.1544 -1.3529
   21CHL1    C2 1527   0.080   0.496   9.842 -0.2190 -0.4299  0.6177
   21CHL1   H2A 1528   0.060   0.399   9.892  4.0527  0.2049  4.1844
   21CHL1   H2B 1529   0.003   0.563   9.886 -1.1188 -2.1642  1.7789
   21CHL1   C20 1530  -0.112   0.516   8.925 -0.2894 -0.4778 -0.6793
   21CHL1   H20 1531  -0.142   0.620   8.898 -0.2786  0.2875  1.9512
   21CHL1   C21 1532  -0.236   0.423   8.975 -0.8042  0.4852  0.7105
   21CHL1  H21A 1533  -0.291   0.389   8.885 -2.0159 -2.1825  2.3475
   21CHL1  H21B 1534  -0.303   0.484   9.039  0.7128  0.1984  2.6676
   21CHL1  H21C 1535  -0.217   0.332   9.035 -1.6207 -0.6892 -0.7377
   21CHL1   C22 1536  -0.040   0.442   8.809  0.2846 -0.2012  0.6406
   21CHL1  H22A 1537   0.062   0.483   8.794  0.0030  0.4375  0.4047
   21CHL1  H22B 1538  -0.039   0.334   8.834  0.8687 -0.3134  0.1377
   21CHL1   C23 1539  -0.108   0.473   8.675  0.4341 -0.1859 -0.0945
   21CHL1  H23A 1540  -0.082   0.403   8.592  0.7436  1.9071 -1.8564
   21CHL1  H23B 1541  -0.218   0.467   8.691  0.3325  0.8688 -0.3880
   21CHL1   C24 1542  -0.051   0.605   8.615  0.7595  0.4307  0.3040
   21CHL1  H24A 1543  -0.084   0.693   8.674 -0.4123 -1.8298  3.2542
   21CHL1  H24B 1544   0.059   0.600   8.630  0.6983 -2.1381  0.3747
   21CHL1   C25 1545  -0.094   0.628   8.464  0.2302 -0.2107  0.3109
   21CHL1   H25 1546  -0.041   0.546   8.411 -0.6578 -0.1463 -0.7180
   21CHL1   C26 1547  -0.240   0.604   8.449 -0.4932  0.0267 -0.1180
   21CHL1  H26A 1548  -0.285   0.616   8.348 -1.7845  1.5705  0.6021
   21CHL1  H26B 1549  -0.283   0.504   8.472  0.2121 -0.5784 -1.3279
   21CHL1  H26C 1550  -0.294   0.689   8.496 -0.1143  1.1020 -1.5435
   21CHL1   C27 1551  -0.032   0.754   8.387  0.2951 -0.7923 -0.1104
   21CHL1  H27A 1552  -0.049   0.848   8.444 -1.4176 -1.7984  1.1440
   21CHL1  H27B 1553   0.078   0.754   8.371  0.0585  0.6960 -2.0397
   21CHL1  H27C 1554  -0.087   0.760   8.291  2.1575  1.2006 -1.1403
   22CHL1    C3 1555   5.581   1.154  10.264 -0.1632  0.6352 -0.2726
   22CHL1    H3 1556   5.551   1.055  10.223 -0.4737  1.5197 -2.3521
   22CHL1    O3 1557   5.635   1.122  10.390 -0.1479  0.2645 -0.3725
   22CHL1   H3' 1558   5.667   1.199  10.436  2.1914 -0.2175 -1.0605
   22CHL1    C4 1559   5.685   1.210  10.163  0.0488  0.0927 -0.0948
   22CHL1   H4A 1560   5.723   1.302  10.212 -3.2541  1.2428  0.5013
   22CHL1   H4B 1561   5.770   1.138  10.156  0.7740  0.9571 -0.3530
   22CHL1    C5 1562   5.629   1.231  10.024 -0.6599  0.4003  0.1951
   22CHL1    C6 1563   5.674   1.170   9.911 -0.7055  0.1432 -0.2524
   22CHL1    H6 1564   5.751   1.093   9.929 -0.4834  0.5495  0.5854
   22CHL1    C7 1565   5.616   1.190   9.776  0.0615 -1.0230 -0.3216
   22CHL1   H7A 1566   5.692   1.206   9.697 -0.7236 -1.5167 -1.2046
   22CHL1   H7B 1567   5.561   1.098   9.747 -2.0032 -0.7027  2.1576
   22CHL1    C8 1568   5.524   1.317   9.777 -0.1485  0.1445 -0.2208
   22CHL1    H8 1569   5.584   1.409   9.769 -1.8145  1.3211  0.2408
   22CHL1   C14 1570   5.442   1.301   9.650 -0.1070  0.1698  0.8208
   22CHL1   H14 1571   5.384   1.207   9.666  1.6632 -1.4267 -1.4723
   22CHL1   C15 1572   5.514   1.274   9.513 -1.1556  0.2064 -0.9887
   22CHL1  H15A 1573   5.601   1.339   9.492 -1.8201  0.5868 -2.7441
   22CHL1  H15B 1574   5.551   1.170   9.501  2.0962  1.0376  0.6963
   22CHL1   C16 1575   5.406   1.308   9.403  0.1134  0.0806  0.2597
   22CHL1  H16A 1576   5.453   1.392   9.347  0.4096 -0.8224 -0.9019
   22CHL1  H16B 1577   5.394   1.217   9.339  1.3006 -0.3689  0.6580
   22CHL1   C17 1578   5.284   1.361   9.483  0.2334 -0.5583  0.2974
   22CHL1   H17 1579   5.219   1.274   9.504 -0.7378  0.1542  0.3366
   22CHL1   C13 1580   5.335   1.406   9.621  0.2958 -0.1486 -0.6528
   22CHL1   C18 1581   5.399   1.547   9.603  0.0164  0.0734 -0.0708
   22CHL1  H18A 1582   5.468   1.570   9.687 -0.0345 -0.2727  0.0696
   22CHL1  H18B 1583   5.447   1.561   9.504  0.0897 -2.8495 -0.5331
   22CHL1  H18C 1584   5.326   1.631   9.611  1.5301  1.3719  0.4879
   22CHL1   C12 1585   5.232   1.402   9.744  0.1039 -0.0296 -0.0096
   22CHL1  H12A 1586   5.170   1.491   9.724  1.5226  1.1609  0.6704
   22CHL1  H12B 1587   5.155   1.322   9.742 -0.6747  0.7304 -1.3965
   22CHL1   C11 1588   5.317   1.423   9.866  0.3076  0.3576  0.2968
   22CHL1  H11A 1589   5.370   1.520   9.873 -1.6804  1.6093 -0.9324
   22CHL1  H11B 1590   5.250   1.419   9.955  0.9448 -2.6828  0.7724
   22CHL1    C9 1591   5.429   1.319   9.892 -0.0422 -0.3133 -0.4743
   22CHL1    H9 1592   5.375   1.223   9.878 -0.3024 -0.2632  0.1185
   22CHL1   C10 1593   5.510   1.324  10.030 -0.2077  0.6160  0.0359
   22CHL1   C19 1594   5.548   1.476  10.047 -0.2787  0.2669 -0.1859
   22CHL1  H19A 1595   5.600   1.517   9.958  1.4886 -0.2781  0.5523
   22CHL1  H19B 1596   5.463   1.545  10.071  0.2422  0.6625  0.5645
   22CHL1  H19C 1597   5.617   1.473  10.134  1.4151  1.2714 -1.4544
   22CHL1    C1 1598   5.409   1.277  10.139  0.2704  0.0173  0.3335
   22CHL1   H1A 1599   5.329   1.354  10.145 -1.7107 -1.9645  0.7502
   22CHL1   H1B 1600   5.364   1.184  10.099  1.0370 -0.4849  0.6190
   22CHL1    C2 1601   5.467   1.246  10.271  0.1295 -0.8223 -0.3903
   22CHL1   H2A 1602   5.385   1.220  10.342  0.7111  1.6021  1.2934
   22CHL1   H2B 1603   5.501   1.343  10.312 -0.2681 -1.2019  0.8996
   22CHL1   C20 1604   5.190   1.449   9.397 -0.9627  0.0513 -1.0980
   22CHL1   H20 1605   5.241   1.547   9.385 -3.7211  1.5593 -1.4502
   22CHL1   C21 1606   5.058   1.477   9.469  0.8353 -0.9451 -0.2517
   22CHL1  H21A 1607   5.067   1.561   9.540 -2.7152 -0.3375 -0.3748
   22CHL1  H21B 1608   5.012   1.390   9.520 -0.8488  0.8975  1.5506
   22CHL1  H21C 1609   4.990   1.519   9.391 -0.3797  0.8469  1.6902
   22CHL1   C22 1610   5.162   1.390   9.256 -0.3603 -0.1544 -0.2564
   22CHL1  H22A 1611   5.113   1.477   9.207  0.1662  0.1844 -0.1945
   22CHL1  H22B 1612   5.261   1.386   9.204 -0.4611 -0.0479 -0.4589
   22CHL1   C23 1613   5.092   1.253   9.244 -0.7011  0.3500 -0.4335
   22CHL1  H23A 1614   5.158   1.174   9.287 -0.1771 -1.1714 -3.6711
   22CHL1  H23B 1615   4.992   1.244   9.291 -0.5735 -0.9671 -0.3690
   22CHL1   C24 1616   5.076   1.230   9.090  0.3169  0.2569 -0.2382
   22CHL1  H24A 1617   5.016   1.313   9.047  0.8587  1.4446  1.2246
   22CHL1  H24B 1618   5.180   1.229   9.052  0.4743  0.3163  0.1853
   22CHL1   C25 1619   5.014   1.093   9.051 -0.7647  0.3171 -0.7246
   22CHL1   H25 1620   5.054   1.022   9.127  0.3444  1.6418 -0.0275
   22CHL1   C26 1621   4.864   1.100   9.056  0.5346  0.0366 -0.1256
   22CHL1  H26A 1622   4.832   1.178   8.983 -2.3198 -1.8824 -1.1150
   22CHL1  H26B 1623   4.819   1.002   9.028 -2.9471  1.4348  0.1694
   22CHL1  H26C 1624   4.831   1.132   9.156  1.1024  0.6463 -0.1297
   22CHL1   C27 1625   5.054   1.046   8.911 -0.1887 -0.4720  0.4752
   22CHL1  H27A 1626   5.042   1.130   8.839 -0.1091 -0.7527  0.1331
   22CHL1  H27B 1627   5.162   1.019   8.910 -0.7585 -3.1467 -2.1502
   22CHL1  H27C 1628   5.004   0.951   8.882 -0.2513 -0.0865 -0.7663
   23CHL1    C3 1629   3.143   4.160  10.179  0.9370 -0.3278  0.2993
   23CHL1    H3 1630   3.061   4.089  10.156 -0.0284  0.2764  1.7576
   23CHL1    O3 1631   3.113   4.206  10.313  0.2532 -0.1507  0.3413
   23CHL1   H3' 1632   3.194   4.241  10.350  0.2485 -0.4246  0.6228
   23CHL1    C4 1633   3.282   4.098  10.167 -0.1642  0.3024 -0.8926
   23CHL1   H4A 1634   3.359   4.160  10.217 -1.4310 -0.8743  2.8410
   23CHL1   H4B 1635   3.290   4.009  10.233 -0.0413 -0.6882 -2.1949
   23CHL1    C5 1636   3.313   4.065  10.024 -0.8314  0.1562  0.2218
   23CHL1    C6 1637   3.354   3.939   9.999  0.1982  0.0237  0.9239
   23CHL1    H6 1638   3.364   3.870  10.084  1.2439 -0.9132  0.0824
   23CHL1    C7 1639   3.403   3.890   9.867  0.4786  0.0056 -0.4111
   23CHL1   H7A 1640   3.505   3.850   9.849  1.4538  2.8487 -1.7832
   23CHL1   H7B 1641   3.332   3.818   9.819 -0.1802  0.1087  0.3934
   23CHL1    C8 1642   3.428   4.019   9.771 -0.4510  1.2862  0.2993
   23CHL1    H8 1643   3.529   4.055   9.802  1.1373  0.9565 -3.8532
   23CHL1   C14 1644   3.458   3.983   9.627  0.0957  0.5606 -0.6421
   23CHL1   H14 1645   3.367   3.930   9.593 -0.6647  0.5254  1.3001
   23CHL1   C15 1646   3.579   3.880   9.598 -0.4147 -0.3878 -0.0486
   23CHL1  H15A 1647   3.667   3.907   9.659 -0.9334  0.1029  0.4949
   23CHL1  H15B 1648   3.532   3.786   9.632 -3.3589  1.2947  0.8897
   23CHL1   C16 1649   3.601   3.901   9.450  0.6694  0.4619  0.6824
   23CHL1  H16A 1650   3.709   3.918   9.429  0.9988 -0.6688  1.3541
   23CHL1  H16B 1651   3.566   3.816   9.387  1.8657  0.4438  0.0092
   23CHL1   C17 1652   3.520   4.028   9.403  0.6150  0.1796  0.2188
   23CHL1   H17 1653   3.421   3.990   9.368 -0.7222 -0.2073  3.9149
   23CHL1   C13 1654   3.484   4.100   9.537  0.1271  0.4729  0.0346
   23CHL1   C18 1655   3.607   4.180   9.578 -0.5311  0.6130 -0.2876
   23CHL1  H18A 1656   3.706   4.135   9.554  0.2593  1.8168  0.6221
   23CHL1  H18B 1657   3.609   4.276   9.522 -0.6834  0.7822 -0.0056
   23CHL1  H18C 1658   3.607   4.193   9.689  0.4593 -2.5119  0.1667
   23CHL1   C12 1659   3.362   4.190   9.527 -0.4621  0.2119  0.7537
   23CHL1  H12A 1660   3.375   4.278   9.461  0.9855 -0.8730 -0.4707
   23CHL1  H12B 1661   3.278   4.131   9.482  2.0096 -2.4339 -0.7173
   23CHL1   C11 1662   3.329   4.237   9.672  0.7820 -0.4330  0.0603
   23CHL1  H11A 1663   3.413   4.303   9.701  0.1038  0.1627  0.7022
   23CHL1  H11B 1664   3.241   4.304   9.672  0.5300 -0.7352  1.0627
   23CHL1    C9 1665   3.310   4.124   9.776 -0.6107 -0.4440 -0.2520
   23CHL1    H9 1666   3.227   4.057   9.745 -0.1447 -0.3758 -1.7142
   23CHL1   C10 1667   3.295   4.174   9.922  0.3455 -0.0706  0.0534
   23CHL1   C19 1668   3.404   4.279   9.949  0.3329  0.6352 -0.2996
   23CHL1  H19A 1669   3.394   4.378   9.899  2.3146  0.9673 -0.1478
   23CHL1  H19B 1670   3.406   4.298  10.059  0.4775  2.1823 -0.5483
   23CHL1  H19C 1671   3.504   4.238   9.921  1.4063  1.3143  2.2402
   23CHL1    C1 1672   3.153   4.231   9.941  0.1500 -0.9127  0.6109
   23CHL1   H1A 1673   3.135   4.307   9.862  1.2808 -1.4947 -0.2392
   23CHL1   H1B 1674   3.079   4.153   9.915 -1.5958  1.1629 -0.9787
   23CHL1    C2 1675   3.125   4.285  10.085  0.7641 -0.0316  0.1539
   23CHL1   H2A 1676   3.023   4.328  10.084  0.8902  0.2642 -0.1704
   23CHL1   H2B 1677   3.191   4.357  10.137  0.6063  0.5061 -0.3829
   23CHL1   C20 1678   3.578   4.108   9.287 -1.0297  0.6121  0.5420
   23CHL1   H20 1679   3.668   4.161   9.325 -0.5363 -1.2398  2.1371
   23CHL1   C21 1680   3.482   4.220   9.216  0.4826  0.7509  0.5263
   23CHL1  H21A 1681   3.459   4.299   9.290 -0.2166  1.4513 -0.4137
   23CHL1  H21B 1682   3.398   4.165   9.168  2.0235  0.1353 -1.6469
   23CHL1  H21C 1683   3.527   4.268   9.126 -1.2305  1.3185 -0.0502
   23CHL1   C22 1684   3.642   4.019   9.177 -0.2785  0.0183  0.0846
   23CHL1  H22A 1685   3.673   4.100   9.108 -0.6507  0.7823  0.8058
   23CHL1  H22B 1686   3.728   3.964   9.220 -0.1714  1.8757  2.4329
   23CHL1   C23 1687   3.550   3.924   9.100  0.4952 -1.1809  0.6587
   23CHL1  H23A 1688   3.494   3.861   9.172 -0.6430 -1.5237 -0.4855
   23CHL1  H23B 1689   3.467   3.983   9.055  0.9461 -0.1885  1.1060
   23CHL1   C24 1690   3.621   3.836   9.004 -0.0125 -1.0599  0.3136
   23CHL1  H24A 1691   3.660   3.902   8.924 -2.4367  2.3103  1.7084
   23CHL1  H24B 1692   3.711   3.793   9.053  0.3411 -0.1137  0.5146
   23CHL1   C25 1693   3.532   3.727   8.947 -0.1481  0.5352  0.2138
   23CHL1   H25 1694   3.505   3.656   9.029 -0.9700  0.0132 -0.4918
   23CHL1   C26 1695   3.401   3.774   8.882  0.6049 -0.7413 -0.2817
   23CHL1  H26A 1696   3.333   3.698   8.838 -1.0540  0.3108  0.3627
   23CHL1  H26B 1697   3.343   3.836   8.954  3.1843  1.8450 -0.2557
   23CHL1  H26C 1698   3.434   3.854   8.813 -1.2139  1.4685  1.2877
   23CHL1   C27 1699   3.607   3.633   8.844 -0.5883 -0.1856 -0.6376
   23CHL1  H27A 1700   3.537   3.555   8.808  2.4488 -2.9041 -1.1543
   23CHL1  H27B 1701   3.643   3.697   8.761  2.2081 -1.1995 -0.3075
   23CHL1  H27C 1702   3.695   3.581   8.889  0.3250  2.7785  1.2776
   24CHL1    C3 1703   4.326   3.243  10.199 -0.2499  0.1142 -0.0779
   24CHL1    H3 1704   4.383   3.151  10.172  0.6901  0.8280 -0.6000
   24CHL1    O3 1705   4.333   3.269  10.337 -0.2845  0.3734  0.0380
   24CHL1   H3' 1706   4.264   3.212  10.373  0.3397 -1.7163 -1.8328
   24CHL1    C4 1707   4.392   3.355  10.118 -1.0104 -0.5849 -0.2780
   24CHL1   H4A 1708   4.354   3.457  10.140  2.2133  1.0739 -1.7110
   24CHL1   H4B 1709   4.494   3.353  10.162 -0.5268 -0.0544 -1.3598
   24CHL1    C5 1710   4.393   3.320   9.972 -1.0012 -0.5651 -0.1616
   24CHL1    C6 1711   4.507   3.304   9.898  0.7629 -0.6578 -0.1346
   24CHL1    H6 1712   4.603   3.305   9.953 -0.8104 -1.9795  2.8633
   24CHL1    C7 1713   4.508   3.293   9.752 -0.3485 -0.4932  0.1291
   24CHL1   H7A 1714   4.584   3.358   9.703  0.8958 -2.9119 -1.3552
   24CHL1   H7B 1715   4.535   3.192   9.715 -1.1266 -0.2387 -1.1944
   24CHL1    C8 1716   4.375   3.337   9.685 -0.4713 -0.0921 -0.6287
   24CHL1    H8 1717   4.360   3.446   9.697 -2.7381 -0.2489 -1.5249
   24CHL1   C14 1718   4.370   3.308   9.534 -1.0304  0.1190  0.1751
   24CHL1   H14 1719   4.390   3.199   9.539 -0.0703  0.2756 -0.0542
   24CHL1   C15 1720   4.477   3.362   9.433  0.0440 -0.3976 -0.6275
   24CHL1  H15A 1721   4.466   3.471   9.453 -1.2006 -0.4209 -1.0754
   24CHL1  H15B 1722   4.585   3.343   9.450  0.2181 -0.1538 -1.4485
   24CHL1   C16 1723   4.422   3.334   9.293 -0.6543  0.1668  0.1359
   24CHL1  H16A 1724   4.438   3.432   9.243 -0.6676  0.3428  0.4679
   24CHL1  H16B 1725   4.485   3.256   9.245 -0.2313 -0.3431  1.4568
   24CHL1   C17 1726   4.272   3.285   9.318 -0.3562 -0.2866  0.8657
   24CHL1   H17 1727   4.277   3.174   9.313 -1.4348 -0.3980  1.8607
   24CHL1   C13 1728   4.235   3.322   9.465  0.2190 -0.6361  0.5510
   24CHL1   C18 1729   4.186   3.475   9.473 -0.6126 -0.1639  0.1291
   24CHL1  H18A 1730   4.259   3.548   9.432 -2.3980  1.0096 -1.1510
   24CHL1  H18B 1731   4.097   3.487   9.407 -0.9904 -2.2488  0.2170
   24CHL1  H18C 1732   4.167   3.503   9.579 -0.3419  1.0686 -0.1270
   24CHL1   C12 1733   4.137   3.222   9.529 -0.7785 -0.1927 -0.7502
   24CHL1  H12A 1734   4.036   3.236   9.485 -0.9059  0.2006 -0.3480
   24CHL1  H12B 1735   4.166   3.116   9.514 -2.9308 -0.7808 -1.1201
   24CHL1   C11 1736   4.121   3.262   9.679  0.0395  0.8321  0.0326
   24CHL1  H11A 1737   4.062   3.356   9.685 -0.0818  0.7960 -0.5081
   24CHL1  H11B 1738   4.058   3.184   9.727 -1.0940  2.3767  1.1418
   24CHL1    C9 1739   4.261   3.264   9.752  0.6883 -0.5138 -1.1829
   24CHL1    H9 1740   4.288   3.156   9.753 -1.7074 -1.1714 -0.9039
   24CHL1   C10 1741   4.254   3.306   9.905  0.2277  0.3580 -0.0516
   24CHL1   C19 1742   4.166   3.440   9.913  0.3331  0.2529  0.1978
   24CHL1  H19A 1743   4.059   3.411   9.897  0.4177  0.0705 -0.0591
   24CHL1  H19B 1744   4.167   3.498  10.007 -2.7376 -0.0569  0.5392
   24CHL1  H19C 1745   4.199   3.512   9.836 -2.3396  0.4821 -0.8511
   24CHL1    C1 1746   4.184   3.199   9.987  0.1754 -0.1893 -0.0932
   24CHL1   H1A 1747   4.078   3.191   9.955  0.8683 -2.1086 -2.1536
   24CHL1   H1B 1748   4.229   3.103   9.955  0.7851 -0.3791  1.2607
   24CHL1    C2 1749   4.180   3.222  10.136 -0.2810  0.5730  0.1601
   24CHL1   H2A 1750   4.132   3.135  10.186 -0.1890 -0.1422 -0.9560
   24CHL1   H2B 1751   4.119   3.313  10.153 -0.4739  0.4104  0.3375
   24CHL1   C20 1752   4.183   3.335   9.204 -0.0570 -0.4617  0.3225
   24CHL1   H20 1753   4.168   3.445   9.210 -3.2999 -0.8513  2.0670
   24CHL1   C21 1754   4.042   3.282   9.207  0.0669  0.1107 -0.0412
   24CHL1  H21A 1755   4.032   3.172   9.220 -0.4350 -0.0343 -1.3995
   24CHL1  H21B 1756   4.003   3.303   9.105  2.3413 -0.2531 -1.0306
   24CHL1  H21C 1757   3.993   3.330   9.294  1.3208 -0.0856  0.8039
   24CHL1   C22 1758   4.245   3.314   9.063 -0.2269 -0.0789  0.1620
   24CHL1  H22A 1759   4.169   3.344   8.988  0.8773  0.3839 -0.8116
   24CHL1  H22B 1760   4.335   3.379   9.060 -0.0063 -0.2432  2.0039
   24CHL1   C23 1761   4.288   3.167   9.031  0.1170 -0.1038  0.1886
   24CHL1  H23A 1762   4.306   3.113   9.126 -0.8672 -1.5628 -0.4206
   24CHL1  H23B 1763   4.198   3.123   8.983  0.5427  1.6918 -2.4913
   24CHL1   C24 1764   4.401   3.167   8.927  0.5171  1.2685  0.3269
   24CHL1  H24A 1765   4.362   3.189   8.825  2.1181  2.9745  0.0361
   24CHL1  H24B 1766   4.480   3.239   8.955  0.9470 -0.0903  2.8738
   24CHL1   C25 1767   4.465   3.025   8.923 -0.1763 -0.2875 -0.3571
   24CHL1   H25 1768   4.513   3.001   9.021  0.7275  3.3778  0.2870
   24CHL1   C26 1769   4.370   2.921   8.883 -0.2406  0.1405  0.1664
   24CHL1  H26A 1770   4.293   2.910   8.962  2.1420 -1.2411  2.4808
   24CHL1  H26B 1771   4.335   2.944   8.781 -0.2131  0.3798  0.2113
   24CHL1  H26C 1772   4.425   2.824   8.884  0.6528  0.6304 -0.8878
   24CHL1   C27 1773   4.575   3.038   8.816  0.1398 -0.0123  1.6985
   24CHL1  H27A 1774   4.646   3.122   8.835  1.1824  0.0047 -1.6714
   24CHL1  H27B 1775   4.638   2.949   8.799  1.0390  0.9642 -0.4116
   24CHL1  H27C 1776   4.517   3.063   8.724 -0.1243  3.4089  2.6273
   25CHL1    C3 1777   6.628   4.570  10.668 -0.0731  0.2186  0.1103
   25CHL1    H3 1778   6.702   4.653  10.660  0.5387 -0.3329 -0.0020
   25CHL1    O3 1779   6.603   4.534  10.804  0.7971 -0.0090  0.1161
   25CHL1   H3' 1780   6.591   4.439  10.802  2.8090 -0.3204  0.4971
   25CHL1    C4 1781   6.488   4.619  10.609 -0.0498 -0.5018  0.0308
   25CHL1   H4A 1782   6.414   4.541  10.639  1.0059 -1.4341  0.2929
   25CHL1   H4B 1783   6.468   4.712  10.666  3.6438  1.6378 -1.7868
   25CHL1    C5 1784   6.504   4.654  10.458  0.2843  0.5098 -0.7201
   25CHL1    C6 1785   6.458   4.768  10.407  0.1436  0.0434  0.2661
   25CHL1    H6 1786   6.415   4.842  10.476  0.7389  0.5345  0.1091
   25CHL1    C7 1787   6.453   4.794  10.255  0.2690 -0.0092 -0.1636
   25CHL1   H7A 1788   6.353   4.837  10.233  0.8645  1.7048  0.3312
   25CHL1   H7B 1789   6.523   4.876  10.230 -0.3653  0.8928  0.9097
   25CHL1    C8 1790   6.475   4.678  10.159 -0.6044 -0.4382 -0.4603
   25CHL1    H8 1791   6.385   4.613  10.152 -2.2226  1.6296  0.2395
   25CHL1   C14 1792   6.519   4.722  10.017 -0.2120 -0.3396 -0.7014
   25CHL1   H14 1793   6.613   4.776  10.039 -1.5227  2.6437 -1.8232
   25CHL1   C15 1794   6.427   4.817   9.944 -0.2504 -0.0810 -0.0761
   25CHL1  H15A 1795   6.326   4.773   9.953 -0.8186  0.8684 -1.5172
   25CHL1  H15B 1796   6.428   4.921   9.982 -0.5103  0.9749 -2.7360
   25CHL1   C16 1797   6.485   4.802   9.805  0.1264  0.1588 -0.2297
   25CHL1  H16A 1798   6.402   4.793   9.731 -1.1594 -0.5171  1.2451
   25CHL1  H16B 1799   6.548   4.893   9.796 -0.0865  0.2082 -1.5831
   25CHL1   C17 1800   6.589   4.688   9.796  0.1919  0.9099  0.1892
   25CHL1   H17 1801   6.691   4.730   9.807  0.1434  0.9678  0.4247
   25CHL1   C13 1802   6.560   4.606   9.925  0.3581  0.0119 -0.5927
   25CHL1   C18 1803   6.438   4.515   9.899  0.0602 -0.4578 -0.0826
   25CHL1  H18A 1804   6.358   4.579   9.857 -0.4745 -0.0564  1.4874
   25CHL1  H18B 1805   6.456   4.427   9.833  1.8488 -0.7688  0.7450
   25CHL1  H18C 1806   6.398   4.465   9.990  0.1904  0.1217  0.3010
   25CHL1   C12 1807   6.670   4.528   9.986 -0.4648  0.4660 -1.1396
   25CHL1  H12A 1808   6.713   4.443   9.928  1.6656  0.1311  0.7879
   25CHL1  H12B 1809   6.756   4.597  10.001  0.4281 -1.1335  2.1761
   25CHL1   C11 1810   6.628   4.472  10.130  0.9703 -0.2482  0.3566
   25CHL1  H11A 1811   6.548   4.398  10.111 -0.4486  0.5639  2.8086
   25CHL1  H11B 1812   6.705   4.411  10.182 -0.2040 -2.0532  0.0864
   25CHL1    C9 1813   6.581   4.590  10.222  0.3154  0.0680  0.1414
   25CHL1    H9 1814   6.669   4.657  10.216  1.2196 -1.2378 -3.1097
   25CHL1   C10 1815   6.560   4.533  10.370  0.0400 -0.4245 -0.5817
   25CHL1   C19 1816   6.447   4.428  10.374  0.9860  0.0366 -0.5284
   25CHL1  H19A 1817   6.354   4.468  10.328  0.0730  0.7756  1.8186
   25CHL1  H19B 1818   6.461   4.343  10.304 -2.9783  0.1968 -1.7647
   25CHL1  H19C 1819   6.414   4.394  10.475  1.6759  0.0924 -0.2810
   25CHL1    C1 1820   6.689   4.476  10.437  0.3881 -2.0843  0.2526
   25CHL1   H1A 1821   6.712   4.377  10.390 -0.0850 -0.9844 -2.4712
   25CHL1   H1B 1822   6.770   4.547  10.409 -1.8396  1.3331  1.8628
   25CHL1    C2 1823   6.685   4.453  10.588 -0.2463  0.1780 -0.2743
   25CHL1   H2A 1824   6.788   4.430  10.624 -1.0836 -0.9799  1.5999
   25CHL1   H2B 1825   6.628   4.359  10.611  1.9587 -1.0980  0.2360
   25CHL1   C20 1826   6.586   4.616   9.657  0.0290  0.0869 -0.4050
   25CHL1   H20 1827   6.496   4.552   9.657  1.2069 -1.6782  1.4028
   25CHL1   C21 1828   6.715   4.527   9.654 -0.2666  0.6247  0.5297
   25CHL1  H21A 1829   6.721   4.472   9.557 -0.0122 -2.4968  2.1953
   25CHL1  H21B 1830   6.707   4.450   9.734 -2.8103 -0.2120 -0.4150
   25CHL1  H21C 1831   6.806   4.590   9.659  1.5121 -1.8687  1.7048
   25CHL1   C22 1832   6.577   4.699   9.529  0.1527  0.2164  0.9130
   25CHL1  H22A 1833   6.483   4.758   9.522  0.0403  0.0717  1.1901
   25CHL1  H22B 1834   6.652   4.780   9.521 -0.4565  0.5891 -3.2311
   25CHL1   C23 1835   6.591   4.615   9.393 -0.1091 -0.3861 -0.2460
   25CHL1  H23A 1836   6.699   4.589   9.387 -0.3935 -1.6466 -0.1291
   25CHL1  H23B 1837   6.529   4.525   9.409  0.4810 -0.6016  0.9654
   25CHL1   C24 1838   6.568   4.708   9.276 -0.4059 -0.2582 -0.4746
   25CHL1  H24A 1839   6.466   4.752   9.279  0.0940  0.8855  0.3355
   25CHL1  H24B 1840   6.633   4.798   9.282 -0.9418  0.0402  2.0281
   25CHL1   C25 1841   6.569   4.636   9.142 -0.8067 -0.8141  0.1902
   25CHL1   H25 1842   6.662   4.575   9.139 -0.7545 -0.7112 -1.9652
   25CHL1   C26 1843   6.442   4.549   9.129 -0.8654  0.2127  0.7048
   25CHL1  H26A 1844   6.348   4.601   9.158 -0.3726  0.3357  2.1584
   25CHL1  H26B 1845   6.437   4.500   9.029 -2.4478  0.1382  0.7953
   25CHL1  H26C 1846   6.450   4.466   9.202  0.5644 -1.3425 -1.1045
   25CHL1   C27 1847   6.586   4.734   9.024 -0.7722  0.3411 -0.0353
   25CHL1  H27A 1848   6.503   4.807   9.010  0.3387  1.9538  1.3723
   25CHL1  H27B 1849   6.669   4.807   9.036 -0.7021  0.9898 -3.5534
   25CHL1  H27C 1850   6.618   4.681   8.932  2.0886  2.6227 -0.4782
   26CHL1    C3 1851   6.531   6.719  10.269 -1.0558  0.8849 -0.3594
   26CHL1    H3 1852   6.489   6.617  10.255  1.0379 -0.2050  0.8922
   26CHL1    O3 1853   6.543   6.755  10.406 -0.6276 -0.1591  1.1639
   26CHL1   H3' 1854   6.584   6.842  10.402 -0.1175 -0.4225  0.3537
   26CHL1    C4 1855   6.665   6.706  10.196  0.1153 -0.2254 -0.5761
   26CHL1   H4A 1856   6.734   6.790  10.219 -1.1497  0.5867  0.3438
   26CHL1   H4B 1857   6.710   6.619  10.249  1.8276  1.4068  0.7623
   26CHL1    C5 1858   6.655   6.688  10.050  0.3096  0.0968  0.0330
   26CHL1    C6 1859   6.715   6.580   9.994 -0.4700 -0.2979  0.2664
   26CHL1    H6 1860   6.765   6.514  10.066  0.9718  1.2956  0.7815
   26CHL1    C7 1861   6.721   6.563   9.848  0.0273  0.3322 -0.2477
   26CHL1   H7A 1862   6.829   6.542   9.836 -0.2721 -0.9369 -0.9156
   26CHL1   H7B 1863   6.654   6.478   9.822  0.6311 -0.8728  1.8340
   26CHL1    C8 1864   6.680   6.692   9.771 -0.0696  0.5416 -0.6120
   26CHL1    H8 1865   6.765   6.763   9.777 -0.1888  0.5609  1.8555
   26CHL1   C14 1866   6.646   6.648   9.632 -0.1237 -0.0471  0.1059
   26CHL1   H14 1867   6.559   6.580   9.642 -0.0738  0.1179  2.1508
   26CHL1   C15 1868   6.749   6.569   9.552 -0.6973 -0.0890 -0.3954
   26CHL1  H15A 1869   6.846   6.621   9.569 -0.6760 -0.2128 -0.1300
   26CHL1  H15B 1870   6.762   6.463   9.580  3.6883  0.4646  0.4554
   26CHL1   C16 1871   6.700   6.585   9.409  0.8228 -0.2331  0.9893
   26CHL1  H16A 1872   6.788   6.616   9.349 -0.5014  1.6438 -0.0772
   26CHL1  H16B 1873   6.672   6.490   9.360  1.3722  0.4057 -0.6205
   26CHL1   C17 1874   6.592   6.693   9.405  0.0189 -0.5471  0.0670
   26CHL1   H17 1875   6.489   6.652   9.410 -0.2804  0.2158  0.2340
   26CHL1   C13 1876   6.607   6.766   9.541 -0.0628  0.1274 -0.4922
   26CHL1   C18 1877   6.722   6.864   9.523  0.2594  0.0101 -0.0950
   26CHL1  H18A 1878   6.739   6.914   9.620 -2.3185  2.8238 -0.9374
   26CHL1  H18B 1879   6.811   6.823   9.471  1.2031 -0.4437  1.7901
   26CHL1  H18C 1880   6.683   6.947   9.460 -0.7805  0.9654  1.7053
   26CHL1   C12 1881   6.492   6.838   9.610 -0.0281  0.1429  0.3111
   26CHL1  H12A 1882   6.465   6.928   9.552  1.6197  0.7169  0.3782
   26CHL1  H12B 1883   6.404   6.774   9.590  1.5786 -1.9638 -0.3749
   26CHL1   C11 1884   6.498   6.882   9.749 -0.3718  0.3247  0.0358
   26CHL1  H11A 1885   6.569   6.968   9.752  0.7441 -0.5871  2.2816
   26CHL1  H11B 1886   6.399   6.921   9.783 -1.0435 -2.7120  1.9515
   26CHL1    C9 1887   6.554   6.761   9.833  0.7036  0.2103  0.5535
   26CHL1    H9 1888   6.476   6.681   9.831  0.3073  0.5701  1.2685
   26CHL1   C10 1889   6.577   6.796   9.977 -0.9280 -0.3709  0.2475
   26CHL1   C19 1890   6.656   6.935   9.981  0.1600  0.1699 -0.5789
   26CHL1  H19A 1891   6.748   6.922   9.919  0.5219  1.6056 -0.3847
   26CHL1  H19B 1892   6.586   7.013   9.943 -1.3425 -0.0259  1.6317
   26CHL1  H19C 1893   6.676   6.972  10.084 -0.6220 -1.3321  0.1443
   26CHL1    C1 1894   6.440   6.822  10.050  0.3308  0.4063 -0.5926
   26CHL1   H1A 1895   6.375   6.907  10.020 -2.4239 -1.0745  0.7316
   26CHL1   H1B 1896   6.369   6.743  10.017  0.4067  0.6056 -1.2489
   26CHL1    C2 1897   6.446   6.823  10.202  0.6397 -0.5373  0.4361
   26CHL1   H2A 1898   6.342   6.830  10.241  0.5337  1.1210 -0.0590
   26CHL1   H2B 1899   6.487   6.923  10.229 -1.7359  0.0563  2.2631
   26CHL1   C20 1900   6.594   6.776   9.277  0.0655 -0.0315  0.4132
   26CHL1   H20 1901   6.693   6.825   9.265 -0.2432  1.4527  3.0020
   26CHL1   C21 1902   6.488   6.895   9.266 -0.6257  0.4433  0.1175
   26CHL1  H21A 1903   6.502   6.954   9.173 -1.1487 -0.6955 -0.7077
   26CHL1  H21B 1904   6.497   6.973   9.344 -1.1401  2.0599 -1.3695
   26CHL1  H21C 1905   6.384   6.856   9.265 -1.3795  2.2954 -2.0106
   26CHL1   C22 1906   6.569   6.687   9.154  0.0040  0.2585  0.3386
   26CHL1  H22A 1907   6.629   6.595   9.166 -0.7442 -0.3906 -0.7610
   26CHL1  H22B 1908   6.459   6.668   9.158 -0.1349  0.9683  0.1059
   26CHL1   C23 1909   6.607   6.751   9.017 -0.2134 -0.1357 -0.2990
   26CHL1  H23A 1910   6.564   6.853   9.017 -0.8061 -0.3510  1.2881
   26CHL1  H23B 1911   6.717   6.759   9.007 -0.3422  1.2561 -0.7478
   26CHL1   C24 1912   6.543   6.678   8.893 -0.1772  0.0653 -1.0045
   26CHL1  H24A 1913   6.564   6.573   8.865  1.2363  1.0222 -3.9226
   26CHL1  H24B 1914   6.434   6.700   8.895 -0.2988 -0.6005 -0.3435
   26CHL1   C25 1915   6.581   6.759   8.760  0.3188  0.3401  0.2716
   26CHL1   H25 1916   6.690   6.779   8.755  0.8502 -2.3322 -2.2308
   26CHL1   C26 1917   6.551   6.665   8.637 -0.3028  0.3163 -0.1191
   26CHL1  H26A 1918   6.589   6.563   8.660  0.6531  0.7581  0.3589
   26CHL1  H26B 1919   6.442   6.648   8.626 -0.1099 -0.3587 -1.1171
   26CHL1  H26C 1920   6.599   6.703   8.544  0.3784 -1.0339 -0.3488
   26CHL1   C27 1921   6.499   6.889   8.748 -0.2277 -0.6408 -0.0768
   26CHL1  H27A 1922   6.523   6.933   8.649 -1.6256  0.3980  0.0112
   26CHL1  H27B 1923   6.391   6.875   8.773 -0.3639  0.7041  0.1989
   26CHL1  H27C 1924   6.527   6.958   8.830 -0.9360 -1.8391  1.2136
   27CHL1    C3 1925   2.094   4.356  10.317  0.4288  0.6881 -0.3121
   27CHL1    H3 1926   1.994   4.328  10.276 -0.1996 -2.0287  2.6411
   27CHL1    O3 1927   2.073   4.371  10.458 -0.0009 -0.1632 -0.1264
   27CHL1   H3' 1928   2.104   4.288  10.495 -1.3707 -0.7180 -0.1300
   27CHL1    C4 1929   2.186   4.237  10.294  0.1028 -0.2108 -0.0890
   27CHL1   H4A 1930   2.278   4.246  10.356 -0.9267 -0.6578  1.5584
   27CHL1   H4B 1931   2.137   4.144  10.330  0.5232 -0.0879  0.8267
   27CHL1    C5 1932   2.228   4.229  10.146 -0.9269  0.6656  0.1547
   27CHL1    C6 1933   2.231   4.107  10.074 -0.2013 -0.2379 -0.0777
   27CHL1    H6 1934   2.214   4.012  10.127  0.2103 -0.3341 -0.1186
   27CHL1    C7 1935   2.288   4.087   9.933  0.0032  0.2149 -0.3240
   27CHL1   H7A 1936   2.356   3.999   9.934  0.8310  0.8391  0.5468
   27CHL1   H7B 1937   2.207   4.056   9.864 -1.3291 -0.0178  1.2924
   27CHL1    C8 1938   2.349   4.215   9.863  0.4169  0.1337  0.3784
   27CHL1    H8 1939   2.458   4.225   9.884  1.0908 -0.3178 -2.4955
   27CHL1   C14 1940   2.347   4.206   9.709  0.4203  0.9427 -0.0489
   27CHL1   H14 1941   2.239   4.195   9.684  0.5221 -0.6337  0.0819
   27CHL1   C15 1942   2.399   4.078   9.638  0.4983  0.4332 -1.1293
   27CHL1  H15A 1943   2.496   4.054   9.686  0.9610  1.4325 -1.5566
   27CHL1  H15B 1944   2.329   3.994   9.662  1.6987 -0.2627  0.0821
   27CHL1   C16 1945   2.401   4.124   9.495  0.2486 -0.1693 -0.1619
   27CHL1  H16A 1946   2.497   4.100   9.444 -0.8451  0.0431 -2.4215
   27CHL1  H16B 1947   2.322   4.071   9.438 -0.9891  1.7496 -0.3102
   27CHL1   C17 1948   2.366   4.278   9.486  0.2137  0.0402  0.4551
   27CHL1   H17 1949   2.257   4.293   9.476  0.6028  3.2755  0.0935
   27CHL1   C13 1950   2.404   4.320   9.623 -0.2908  0.1719  0.4498
   27CHL1   C18 1951   2.560   4.337   9.640  0.5374  0.1782  0.0644
   27CHL1  H18A 1952   2.587   4.435   9.594  1.6857 -0.2314 -0.1802
   27CHL1  H18B 1953   2.593   4.345   9.746  0.7546  1.2544 -0.0720
   27CHL1  H18C 1954   2.622   4.261   9.587  2.1312  1.7088 -0.3571
   27CHL1   C12 1955   2.337   4.452   9.673  0.0800  0.0848 -0.6074
   27CHL1  H12A 1956   2.385   4.538   9.621  0.0987 -0.2154 -1.0957
   27CHL1  H12B 1957   2.229   4.451   9.647  0.1604  1.4522 -1.0765
   27CHL1   C11 1958   2.340   4.472   9.827  0.7932  0.1254  1.1546
   27CHL1  H11A 1959   2.446   4.494   9.852  1.3712  0.3016 -1.1381
   27CHL1  H11B 1960   2.288   4.566   9.854 -0.5026  0.4404 -2.0070
   27CHL1    C9 1961   2.285   4.347   9.901 -0.2614 -0.0749 -0.5040
   27CHL1    H9 1962   2.182   4.337   9.860 -0.1901 -0.5692 -0.5685
   27CHL1   C10 1963   2.270   4.354  10.061  0.5392 -0.5345  0.1644
   27CHL1   C19 1964   2.403   4.403  10.122  0.0311 -0.5286  1.1257
   27CHL1  H19A 1965   2.488   4.333  10.106  0.8213  0.0525  2.5579
   27CHL1  H19B 1966   2.422   4.499  10.070  1.5595 -2.2079 -1.6666
   27CHL1  H19C 1967   2.395   4.429  10.230  1.3570  0.8909  0.9202
   27CHL1    C1 1968   2.155   4.458  10.095  0.4729 -0.1693 -0.1879
   27CHL1   H1A 1969   2.173   4.556  10.045 -0.5988 -0.3213 -0.8941
   27CHL1   H1B 1970   2.061   4.417  10.053 -0.5888  1.4871  0.4778
   27CHL1    C2 1971   2.131   4.487  10.246 -0.7177 -0.4792 -0.0775
   27CHL1   H2A 1972   2.039   4.546  10.267  0.5042  1.5491 -0.2155
   27CHL1   H2B 1973   2.223   4.518  10.300 -1.1483  0.4434  0.1503
   27CHL1   C20 1974   2.432   4.343   9.356  0.9739  0.0195  0.0840
   27CHL1   H20 1975   2.541   4.330   9.367  1.1106  1.3746  0.5792
   27CHL1   C21 1976   2.385   4.488   9.343  0.5097 -0.5065  0.0207
   27CHL1  H21A 1977   2.412   4.535   9.246 -2.2677 -0.8964 -1.0465
   27CHL1  H21B 1978   2.429   4.559   9.416 -1.2490 -0.3123  0.9644
   27CHL1  H21C 1979   2.277   4.497   9.370  0.2957  0.0071 -0.9625
   27CHL1   C22 1980   2.391   4.259   9.233  0.2978  0.5635 -0.1670
   27CHL1  H22A 1981   2.448   4.164   9.229  0.8615  0.9602 -2.5241
   27CHL1  H22B 1982   2.281   4.245   9.241  0.5924 -2.1368 -0.1299
   27CHL1   C23 1983   2.402   4.323   9.093 -0.0652 -0.1524 -0.4521
   27CHL1  H23A 1984   2.346   4.419   9.085  2.8330  1.8299  1.1359
   27CHL1  H23B 1985   2.509   4.340   9.068  0.0184  2.0232  1.0927
   27CHL1   C24 1986   2.344   4.238   8.978 -0.4012  0.5571  0.3056
   27CHL1  H24A 1987   2.235   4.233   8.993 -0.7345 -0.1916 -1.9552
   27CHL1  H24B 1988   2.367   4.297   8.887 -4.7696  0.4001 -1.1140
   27CHL1   C25 1989   2.421   4.104   8.953  0.7321  0.2495  0.1692
   27CHL1   H25 1990   2.449   4.057   9.050  1.1462 -1.0513 -0.5578
   27CHL1   C26 1991   2.341   4.012   8.868  0.6401  0.2209  0.1348
   27CHL1  H26A 1992   2.386   3.911   8.854 -0.3991 -0.0619 -1.5010
   27CHL1  H26B 1993   2.244   3.983   8.914  0.0590 -2.8131 -2.6057
   27CHL1  H26C 1994   2.326   4.044   8.762  0.0545 -2.0810 -0.5538
   27CHL1   C27 1995   2.564   4.125   8.886 -0.7017  0.8020 -0.0269
   27CHL1  H27A 1996   2.643   4.182   8.939  0.4086  0.7061 -1.5300
   27CHL1  H27B 1997   2.604   4.024   8.863 -1.7096  0.9261 -2.6519
   27CHL1  H27C 1998   2.553   4.163   8.783  1.9504 -0.4923 -0.8812
   28CHL1    C3 1999   6.543   3.118  10.170  0.1445  0.8650  0.1586
   28CHL1    H3 2000   6.446   3.169  10.185 -1.3053 -1.3690 -1.0637
   28CHL1    O3 2001   6.607   3.098  10.294 -0.4686 -0.3465  0.8029
   28CHL1   H3' 2002   6.541   3.118  10.360 -1.2606 -0.5498  0.0821
   28CHL1    C4 2003   6.513   2.987  10.097  0.1875 -0.3087  1.0726
   28CHL1   H4A 2004   6.607   2.927  10.091 -0.8189 -1.7773 -2.4009
   28CHL1   H4B 2005   6.444   2.921  10.154  0.0872  0.5216  1.9347
   28CHL1    C5 2006   6.468   3.003   9.955 -0.0020  0.2128  0.1305
   28CHL1    C6 2007   6.364   2.934   9.908 -0.3801 -0.2271 -0.7086
   28CHL1    H6 2008   6.317   2.865   9.979 -1.0544  1.0378  0.1110
   28CHL1    C7 2009   6.295   2.952   9.772 -1.0722  0.0806 -0.6430
   28CHL1   H7A 2010   6.281   2.848   9.733 -1.0885 -0.3964  0.5884
   28CHL1   H7B 2011   6.191   2.989   9.781 -0.0718  2.8555  0.3451
   28CHL1    C8 2012   6.382   3.039   9.675  0.8764 -0.4441 -1.1430
   28CHL1    H8 2013   6.458   2.969   9.634 -0.4819 -0.9297 -2.9502
   28CHL1   C14 2014   6.295   3.094   9.565 -0.6185 -0.4066 -0.3401
   28CHL1   H14 2015   6.221   3.152   9.625 -0.8304 -1.4630  0.4469
   28CHL1   C15 2016   6.216   2.999   9.474 -0.5278 -0.5631 -0.0592
   28CHL1  H15A 2017   6.283   2.913   9.452  0.6737 -1.2530  4.9751
   28CHL1  H15B 2018   6.123   2.954   9.514 -0.2540 -2.2632 -1.2281
   28CHL1   C16 2019   6.189   3.072   9.340 -0.0417 -0.0548 -0.1703
   28CHL1  H16A 2020   6.245   3.013   9.265  2.6636  0.0621  1.5963
   28CHL1  H16B 2021   6.083   3.083   9.309 -0.3138  2.1765  1.3375
   28CHL1   C17 2022   6.257   3.212   9.359 -0.3939  0.3315 -0.3715
   28CHL1   H17 2023   6.187   3.282   9.409  1.0732  0.3731  1.7290
   28CHL1   C13 2024   6.365   3.192   9.471 -0.1192 -0.4243 -0.5508
   28CHL1   C18 2025   6.485   3.128   9.410  0.2341 -0.4673 -0.0379
   28CHL1  H18A 2026   6.551   3.089   9.490  0.7773  0.0208 -0.2412
   28CHL1  H18B 2027   6.455   3.049   9.338 -0.7884  1.0303 -1.3167
   28CHL1  H18C 2028   6.542   3.210   9.361  0.4123  1.2852  2.8876
   28CHL1   C12 2029   6.422   3.316   9.549 -0.1398  0.3930  0.2640
   28CHL1  H12A 2030   6.477   3.380   9.477  0.6243 -0.8866 -0.3277
   28CHL1  H12B 2031   6.332   3.376   9.573  0.4037  1.3057  0.0438
   28CHL1   C11 2032   6.498   3.272   9.670  0.7179  0.9911  0.1015
   28CHL1  H11A 2033   6.602   3.244   9.640  1.3712  3.7694 -0.5010
   28CHL1  H11B 2034   6.496   3.360   9.737 -1.1297  0.2769  1.0535
   28CHL1    C9 2035   6.439   3.154   9.755 -0.4754  0.0128 -0.9515
   28CHL1    H9 2036   6.356   3.211   9.802 -0.3160 -1.0411  0.7027
   28CHL1   C10 2037   6.528   3.113   9.874  0.1985 -0.0498  0.3611
   28CHL1   C19 2038   6.661   3.052   9.829  0.7330  0.1112  1.1032
   28CHL1  H19A 2039   6.719   2.986   9.897  1.0511 -2.9829 -1.9118
   28CHL1  H19B 2040   6.636   2.996   9.737 -0.2083  3.8209 -1.1143
   28CHL1  H19C 2041   6.720   3.133   9.782 -0.6241  1.5800  1.8199
   28CHL1    C1 2042   6.575   3.236   9.955  0.2522  0.2133 -0.4673
   28CHL1   H1A 2043   6.650   3.293   9.896  0.5805  1.5043  1.1202
   28CHL1   H1B 2044   6.493   3.305   9.984 -1.2683 -1.0586 -1.6083
   28CHL1    C2 2045   6.641   3.203  10.085  0.4437  0.8769  0.3803
   28CHL1   H2A 2046   6.680   3.295  10.133  0.2093  3.1742 -3.4174
   28CHL1   H2B 2047   6.735   3.149  10.064 -0.0502 -0.1364  0.7023
   28CHL1   C20 2048   6.307   3.290   9.236 -0.5126  0.4420  0.5491
   28CHL1   H20 2049   6.401   3.343   9.264  0.7099 -1.0376 -0.5919
   28CHL1   C21 2050   6.205   3.392   9.193  0.3301  0.4297  0.1911
   28CHL1  H21A 2051   6.232   3.447   9.100 -0.0082  0.1542 -0.0685
   28CHL1  H21B 2052   6.186   3.451   9.286  0.0426  1.1461 -0.3144
   28CHL1  H21C 2053   6.115   3.335   9.162  1.1724 -0.7082 -0.2308
   28CHL1   C22 2054   6.349   3.200   9.116  0.9489  0.7130 -0.2528
   28CHL1  H22A 2055   6.388   3.102   9.149 -0.4629  0.4136  0.6290
   28CHL1  H22B 2056   6.260   3.182   9.052  1.3594 -0.4844 -0.4998
   28CHL1   C23 2057   6.452   3.268   9.029  0.0561  0.1954  0.2986
   28CHL1  H23A 2058   6.444   3.377   9.049  1.0706  0.0223  1.8728
   28CHL1  H23B 2059   6.557   3.246   9.060  1.2052  1.6381 -2.2288
   28CHL1   C24 2060   6.435   3.226   8.882 -0.5230  0.2584  0.5532
   28CHL1  H24A 2061   6.449   3.116   8.882  0.8612  0.4165  0.2088
   28CHL1  H24B 2062   6.334   3.244   8.839 -1.0472 -0.7474  1.3079
   28CHL1   C25 2063   6.530   3.281   8.780  0.3936  0.1061 -0.7170
   28CHL1   H25 2064   6.627   3.242   8.816 -0.7232 -0.4323  1.9316
   28CHL1   C26 2065   6.501   3.217   8.640  1.0509  0.1716  0.0194
   28CHL1  H26A 2066   6.592   3.224   8.577  1.2572 -0.1664  0.2747
   28CHL1  H26B 2067   6.464   3.113   8.657 -1.9070  1.3935  1.7892
   28CHL1  H26C 2068   6.420   3.273   8.588 -0.2660 -1.1936  0.5257
   28CHL1   C27 2069   6.542   3.438   8.778  0.2092  0.5479  0.9536
   28CHL1  H27A 2070   6.580   3.479   8.874 -1.1978  0.0839  1.7335
   28CHL1  H27B 2071   6.605   3.448   8.687 -0.9713 -1.0719 -0.1031
   28CHL1  H27C 2072   6.449   3.495   8.757  0.3041  1.2115  2.2390
   29CHL1    C3 2073   0.188   0.473   6.578 -0.0313 -0.2045 -0.3178
   29CHL1    H3 2074   0.173   0.583   6.581  2.3065  0.1511  0.5436
   29CHL1    O3 2075   0.148   0.427   6.449 -0.3432 -0.0487 -0.0356
   29CHL1   H3' 2076   0.205   0.465   6.383  0.0393  1.7199  1.2434
   29CHL1    C4 2077   0.333   0.423   6.607  0.0882 -0.3740  0.0614
   29CHL1   H4A 2078   0.342   0.326   6.555 -0.4196 -0.5570  0.3069
   29CHL1   H4B 2079   0.398   0.478   6.535  0.8776  0.6891  1.5296
   29CHL1    C5 2080   0.383   0.418   6.754 -0.3112 -0.3117  0.5330
   29CHL1    C6 2081   0.497   0.477   6.790  0.7875  0.3851  0.5545
   29CHL1    H6 2082   0.561   0.526   6.715  0.6500  3.3838  2.2013
   29CHL1    C7 2083   0.556   0.493   6.928 -0.0875 -0.2628  0.7099
   29CHL1   H7A 2084   0.667   0.483   6.928  0.0756  1.2370  0.5805
   29CHL1   H7B 2085   0.532   0.597   6.961 -1.6008  0.1176 -1.4031
   29CHL1    C8 2086   0.492   0.390   7.022 -0.2675 -0.1061  0.2535
   29CHL1    H8 2087   0.542   0.294   6.995 -0.4169 -0.4899  1.2914
   29CHL1   C14 2088   0.521   0.419   7.174  0.8441  0.8260 -0.0859
   29CHL1   H14 2089   0.478   0.519   7.194  1.8875  1.2562  0.0290
   29CHL1   C15 2090   0.669   0.430   7.217 -0.2509 -0.0254 -0.2609
   29CHL1  H15A 2091   0.729   0.342   7.184 -1.1193 -0.2559 -1.2776
   29CHL1  H15B 2092   0.723   0.520   7.180 -1.9451  1.0295 -0.2555
   29CHL1   C16 2093   0.655   0.438   7.368 -0.0263 -0.5516 -0.3285
   29CHL1  H16A 2094   0.726   0.370   7.419  0.5755  0.8016  0.7202
   29CHL1  H16B 2095   0.679   0.540   7.406  1.4246 -1.0458  0.1285
   29CHL1   C17 2096   0.507   0.400   7.402 -0.2729  0.4160 -0.0823
   29CHL1   H17 2097   0.441   0.489   7.406 -1.4453 -0.1638 -3.2772
   29CHL1   C13 2098   0.453   0.323   7.277 -1.1056 -0.0170 -0.2147
   29CHL1   C18 2099   0.515   0.175   7.273  0.0213 -0.4174 -0.1010
   29CHL1  H18A 2100   0.454   0.114   7.343 -1.7191 -0.4022 -1.5386
   29CHL1  H18B 2101   0.488   0.128   7.176 -0.8077  0.9770 -0.5800
   29CHL1  H18C 2102   0.618   0.169   7.315  0.0937  2.7675  0.4045
   29CHL1   C12 2103   0.302   0.324   7.253 -0.4993 -0.3808 -0.4903
   29CHL1  H12A 2104   0.243   0.266   7.327 -1.1159  0.0228 -0.6626
   29CHL1  H12B 2105   0.268   0.428   7.273 -3.2927 -0.9304 -1.8490
   29CHL1   C11 2106   0.262   0.301   7.105 -0.8518  0.3417  0.3137
   29CHL1  H11A 2107   0.269   0.192   7.081 -2.2109 -0.2556  2.3559
   29CHL1  H11B 2108   0.155   0.324   7.091 -0.8460  0.2767  0.1657
   29CHL1    C9 2109   0.338   0.389   7.002 -0.7208  0.0355 -0.2491
   29CHL1    H9 2110   0.311   0.495   7.020  0.3070  0.4087 -0.7905
   29CHL1   C10 2111   0.286   0.365   6.855 -0.1333  0.4496  0.1331
   29CHL1   C19 2112   0.275   0.215   6.830  0.1088 -0.0591  0.1908
   29CHL1  H19A 2113   0.366   0.168   6.872  0.0298  0.6041  1.1457
   29CHL1  H19B 2114   0.192   0.167   6.886 -1.9641  1.5078 -1.3982
   29CHL1  H19C 2115   0.274   0.178   6.726  0.9047  0.4909 -0.0214
   29CHL1    C1 2116   0.148   0.430   6.820 -0.3169  0.5928  0.0196
   29CHL1   H1A 2117   0.078   0.365   6.877  0.7831 -0.3633  0.3201
   29CHL1   H1B 2118   0.151   0.537   6.848  1.1175  0.3657  0.8548
   29CHL1    C2 2119   0.096   0.409   6.680 -0.2079  0.6319  0.1354
   29CHL1   H2A 2120  -0.007   0.450   6.678 -0.9511 -0.8770  2.6119
   29CHL1   H2B 2121   0.100   0.300   6.659  1.1970  0.3625  1.5621
   29CHL1   C20 2122   0.483   0.328   7.536 -0.2198 -0.1068 -0.4025
   29CHL1   H20 2123   0.510   0.220   7.539 -0.3634 -0.1370 -0.1652
   29CHL1   C21 2124   0.330   0.316   7.579 -0.8144  0.8097  0.0347
   29CHL1  H21A 2125   0.326   0.276   7.682  0.7523 -0.6404 -0.4096
   29CHL1  H21B 2126   0.279   0.245   7.510 -0.2941  1.8719 -1.4991
   29CHL1  H21C 2127   0.277   0.413   7.576 -2.1785  0.0781 -0.5410
   29CHL1   C22 2128   0.563   0.404   7.649  0.2404  0.1039 -0.1289
   29CHL1  H22A 2129   0.529   0.376   7.751  0.7201  0.7493  0.2184
   29CHL1  H22B 2130   0.671   0.381   7.636  0.4972  0.3412  1.3527
   29CHL1   C23 2131   0.535   0.554   7.663  0.2694 -0.2245 -0.4199
   29CHL1  H23A 2132   0.591   0.620   7.593  0.0113 -0.0248 -0.4351
   29CHL1  H23B 2133   0.426   0.571   7.655  0.3503  0.8251  0.4663
   29CHL1   C24 2134   0.555   0.619   7.803 -0.0360  0.3213 -0.6677
   29CHL1  H24A 2135   0.537   0.727   7.786  0.0213  0.2566 -1.1355
   29CHL1  H24B 2136   0.487   0.581   7.883 -2.8644 -0.1267 -3.1056
   29CHL1   C25 2137   0.707   0.615   7.841  0.1929 -0.5701 -0.3153
   29CHL1   H25 2138   0.747   0.512   7.851  0.1358 -0.4179  2.0126
   29CHL1   C26 2139   0.799   0.696   7.739  0.2067  0.7761 -1.2364
   29CHL1  H26A 2140   0.895   0.705   7.794 -1.9197  1.8330  2.7499
   29CHL1  H26B 2141   0.802   0.644   7.642 -0.1742  0.3857 -1.0438
   29CHL1  H26C 2142   0.760   0.797   7.713 -1.0319  0.9673  1.0766
   29CHL1   C27 2143   0.715   0.680   7.980 -0.5014 -0.3070 -0.2166
   29CHL1  H27A 2144   0.668   0.613   8.055 -2.8342  0.2508 -1.0999
   29CHL1  H27B 2145   0.822   0.672   8.010 -0.2304 -1.3545 -1.3391
   29CHL1  H27C 2146   0.678   0.784   7.985 -3.7809 -1.3198 -0.9484
   30CHL1    C3 2147   4.179   5.827   7.186 -0.5214  0.3811 -0.4387
   30CHL1    H3 2148   4.281   5.868   7.166 -0.6660  0.7632 -0.4154
   30CHL1    O3 2149   4.125   5.771   7.069 -0.2772  0.4072  0.1341
   30CHL1   H3' 2150   4.031   5.768   7.087 -0.4157  1.0067 -0.4521
   30CHL1    C4 2151   4.192   5.713   7.300 -0.1758 -0.1925 -0.1774
   30CHL1   H4A 2152   4.097   5.657   7.311  0.0328 -0.3933  0.7431
   30CHL1   H4B 2153   4.272   5.641   7.274  1.7781  1.5740  0.6078
   30CHL1    C5 2154   4.225   5.779   7.430 -0.4394 -0.5374 -0.1759
   30CHL1    C6 2155   4.339   5.748   7.497  0.8558 -0.1061 -0.3733
   30CHL1    H6 2156   4.405   5.667   7.462 -0.8722 -0.1029 -4.0209
   30CHL1    C7 2157   4.369   5.802   7.630 -0.1586  0.0435 -0.0327
   30CHL1   H7A 2158   4.415   5.723   7.694  0.2999 -0.6219 -1.1528
   30CHL1   H7B 2159   4.456   5.871   7.627 -0.3316  0.4170  1.9878
   30CHL1    C8 2160   4.246   5.877   7.697  0.5417 -0.3400  0.3778
   30CHL1    H8 2161   4.173   5.798   7.721  2.4208 -2.0915  0.6661
   30CHL1   C14 2162   4.301   5.959   7.820  0.4230 -0.1363  0.2537
   30CHL1   H14 2163   4.372   6.029   7.771  2.5006 -1.8545  0.6581
   30CHL1   C15 2164   4.390   5.889   7.924  0.4783 -0.3644 -0.2639
   30CHL1  H15A 2165   4.341   5.792   7.948 -1.0318  0.5396  0.4435
   30CHL1  H15B 2166   4.494   5.877   7.886  0.3586  0.5715 -0.9083
   30CHL1   C16 2167   4.390   5.986   8.046 -0.2223  0.3683 -0.9561
   30CHL1  H16A 2168   4.360   5.934   8.140  0.8919 -0.4948 -1.0597
   30CHL1  H16B 2169   4.491   6.031   8.058  0.1225 -0.7372  0.5321
   30CHL1   C17 2170   4.280   6.095   8.012  0.1571 -0.6881  0.2531
   30CHL1   H17 2171   4.340   6.181   7.976  0.1618 -0.0484  1.6980
   30CHL1   C13 2172   4.195   6.037   7.893 -0.3187  0.5125 -0.3152
   30CHL1   C18 2173   4.087   5.936   7.955  0.5930 -0.5344 -0.1957
   30CHL1  H18A 2174   4.139   5.862   8.018 -1.1762 -1.1220  0.6481
   30CHL1  H18B 2175   4.027   5.989   8.033  2.8513 -0.3795  1.5454
   30CHL1  H18C 2176   4.025   5.893   7.874  0.3340  2.7076 -1.9160
   30CHL1   C12 2177   4.133   6.137   7.794  0.3061 -0.1531  0.7369
   30CHL1  H12A 2178   4.054   6.196   7.846  0.4435  0.4996  0.2229
   30CHL1  H12B 2179   4.214   6.207   7.764 -0.8197  0.3622 -1.3233
   30CHL1   C11 2180   4.072   6.063   7.670 -0.2138  0.2388  0.0187
   30CHL1  H11A 2181   3.988   6.000   7.707  1.0303 -0.9569  0.8935
   30CHL1  H11B 2182   4.028   6.129   7.592  1.1783  0.8170 -0.3021
   30CHL1    C9 2183   4.170   5.970   7.598  0.1654  0.0027  0.6090
   30CHL1    H9 2184   4.255   6.029   7.556  0.7750 -1.7961 -0.8511
   30CHL1   C10 2185   4.122   5.895   7.475 -0.6526 -0.8979  0.4871
   30CHL1   C19 2186   3.992   5.833   7.502 -0.2272  0.4166 -0.1902
   30CHL1  H19A 2187   3.952   5.783   7.411 -1.2348 -0.4135  0.6880
   30CHL1  H19B 2188   4.001   5.765   7.589  0.3041 -0.5031 -0.9448
   30CHL1  H19C 2189   3.910   5.901   7.533 -1.5910 -0.9188 -0.7641
   30CHL1    C1 2190   4.100   5.997   7.366 -0.0125 -0.4221 -0.4409
   30CHL1   H1A 2191   4.011   6.060   7.389 -0.9175 -1.9001  0.2936
   30CHL1   H1B 2192   4.183   6.071   7.360 -2.0087  1.8265 -3.1517
   30CHL1    C2 2193   4.082   5.936   7.231  0.2288 -0.0059  0.1162
   30CHL1   H2A 2194   4.066   6.007   7.147 -1.3868 -0.4353  0.0314
   30CHL1   H2B 2195   3.985   5.883   7.231 -0.3318  0.8976 -1.8871
   30CHL1   C20 2196   4.223   6.144   8.142  0.4303  0.3420 -0.1581
   30CHL1   H20 2197   4.166   6.069   8.201 -2.2386  3.1956  1.1504
   30CHL1   C21 2198   4.123   6.255   8.110 -0.0145  0.0197 -0.2334
   30CHL1  H21A 2199   4.039   6.233   8.041 -0.1088  0.5563 -0.2891
   30CHL1  H21B 2200   4.175   6.346   8.073 -2.8744  2.0331  0.3584
   30CHL1  H21C 2201   4.074   6.279   8.207 -0.6041  0.0315 -0.5343
   30CHL1   C22 2202   4.337   6.197   8.234  0.2640  0.0183  0.2130
   30CHL1  H22A 2203   4.405   6.114   8.266 -1.0492 -1.9427 -1.8120
   30CHL1  H22B 2204   4.404   6.267   8.179 -0.9372 -0.0813 -1.4131
   30CHL1   C23 2205   4.278   6.271   8.359 -0.1675  0.3369  1.0995
   30CHL1  H23A 2206   4.230   6.365   8.325  1.4604  0.8783  0.2198
   30CHL1  H23B 2207   4.195   6.203   8.390 -1.5750  0.5366 -1.9124
   30CHL1   C24 2208   4.378   6.292   8.471  0.2318  0.2550  0.6129
   30CHL1  H24A 2209   4.425   6.196   8.500 -0.9938 -0.9405 -1.1611
   30CHL1  H24B 2210   4.455   6.360   8.429  0.3312 -0.3232 -0.1426
   30CHL1   C25 2211   4.302   6.331   8.602 -0.3399 -0.0227  1.0554
   30CHL1   H25 2212   4.232   6.411   8.572  0.0987  0.2614  0.7788
   30CHL1   C26 2213   4.215   6.220   8.677  0.0891 -0.6804  0.4877
   30CHL1  H26A 2214   4.140   6.265   8.746  0.7535  1.4721 -0.1057
   30CHL1  H26B 2215   4.169   6.149   8.605  0.3040 -0.9570  0.6222
   30CHL1  H26C 2216   4.290   6.159   8.732  0.6373 -1.2788 -0.8767
   30CHL1   C27 2217   4.399   6.387   8.708 -0.8616 -0.6506 -0.4164
   30CHL1  H27A 2218   4.479   6.312   8.691 -0.2313  0.3190 -1.8843
   30CHL1  H27B 2219   4.445   6.486   8.687  1.1349 -1.3983  0.2158
   30CHL1  H27C 2220   4.353   6.374   8.808 -2.9462  1.2643 -1.0184
   31CHL1    C3 2221   6.462   0.385   6.751 -0.4411  0.0403  0.1734
   31CHL1    H3 2222   6.536   0.466   6.771 -4.0376  3.3264  1.4728
   31CHL1    O3 2223   6.465   0.388   6.607 -0.1869  0.6020 -0.3777
   31CHL1   H3' 2224   6.406   0.314   6.586  0.4091  0.2810 -0.9659
   31CHL1    C4 2225   6.509   0.251   6.811  0.6642 -0.3372  0.4586
   31CHL1   H4A 2226   6.425   0.180   6.797 -0.5950  1.4731 -1.8075
   31CHL1   H4B 2227   6.605   0.225   6.763  0.5443  0.3147 -0.1496
   31CHL1    C5 2228   6.524   0.270   6.962 -0.5777  0.2874  0.1735
   31CHL1    C6 2229   6.641   0.242   7.019 -0.2569  0.6425  0.3087
   31CHL1    H6 2230   6.721   0.197   6.959  1.8665  1.5740  2.2750
   31CHL1    C7 2231   6.663   0.234   7.170 -0.3469  0.0999 -0.0157
   31CHL1   H7A 2232   6.711   0.138   7.198  0.3316 -0.0710 -1.6351
   31CHL1   H7B 2233   6.727   0.317   7.207 -1.6458  0.1372  2.3163
   31CHL1    C8 2234   6.530   0.246   7.251  0.1228  0.2164 -0.4161
   31CHL1    H8 2235   6.482   0.146   7.243 -1.8166  1.0539  0.1711
   31CHL1   C14 2236   6.559   0.269   7.392 -0.3466 -0.5306  0.3729
   31CHL1   H14 2237   6.611   0.367   7.397 -1.6886  0.1421  2.2186
   31CHL1   C15 2238   6.645   0.165   7.467 -0.7719 -0.4481 -0.2490
   31CHL1  H15A 2239   6.618   0.062   7.436  2.1701 -0.9795 -1.3475
   31CHL1  H15B 2240   6.754   0.167   7.447 -1.0010  1.2715 -1.4880
   31CHL1   C16 2241   6.630   0.205   7.616 -0.3853 -0.4308  0.2921
   31CHL1  H16A 2242   6.614   0.110   7.672  0.3400 -1.4128 -1.0902
   31CHL1  H16B 2243   6.723   0.247   7.660  0.2711 -0.6139 -0.8713
   31CHL1   C17 2244   6.516   0.301   7.623  0.8085 -0.0852 -0.2619
   31CHL1   H17 2245   6.549   0.407   7.612 -0.5478  0.2429 -1.5114
   31CHL1   C13 2246   6.438   0.290   7.483  0.1218 -0.3490  0.7045
   31CHL1   C18 2247   6.350   0.162   7.488  0.1882 -0.5227  0.1335
   31CHL1  H18A 2248   6.384   0.081   7.555 -2.3266  0.2889  2.5913
   31CHL1  H18B 2249   6.246   0.187   7.518  0.2082  1.4748 -1.2523
   31CHL1  H18C 2250   6.344   0.118   7.386  1.8561  0.6692 -0.5224
   31CHL1   C12 2251   6.356   0.410   7.428 -0.5378  0.5869 -0.5130
   31CHL1  H12A 2252   6.264   0.435   7.486 -1.1813 -0.7551 -0.9062
   31CHL1  H12B 2253   6.412   0.504   7.441 -1.2838  0.9982 -0.1879
   31CHL1   C11 2254   6.320   0.388   7.280  0.1348 -0.1330  0.5827
   31CHL1  H11A 2255   6.240   0.312   7.290  0.7798 -0.8184  0.6194
   31CHL1  H11B 2256   6.279   0.480   7.234  0.9433  0.7009  1.4716
   31CHL1    C9 2257   6.435   0.354   7.184 -0.1452  0.2763 -0.3479
   31CHL1    H9 2258   6.500   0.444   7.178 -0.1569  0.2201 -1.4318
   31CHL1   C10 2259   6.401   0.323   7.040  0.5958 -0.2766  0.1086
   31CHL1   C19 2260   6.289   0.207   7.035  0.0906 -0.2073 -0.4494
   31CHL1  H19A 2261   6.318   0.117   7.094  0.6095  0.5397  0.4621
   31CHL1  H19B 2262   6.196   0.245   7.082  0.0779  0.7252 -1.2174
   31CHL1  H19C 2263   6.260   0.170   6.934 -2.2110  1.4570 -0.4611
   31CHL1    C1 2264   6.336   0.445   6.969 -0.3481  0.7472  0.3653
   31CHL1   H1A 2265   6.238   0.463   7.018  0.9773  0.4398  3.3798
   31CHL1   H1B 2266   6.400   0.530   6.999  1.6525 -0.3301 -0.5853
   31CHL1    C2 2267   6.331   0.439   6.813  0.2382  0.3674  0.2154
   31CHL1   H2A 2268   6.299   0.537   6.772 -1.1242  0.5770  1.6583
   31CHL1   H2B 2269   6.258   0.360   6.782  0.6056  0.2754 -0.4171
   31CHL1   C20 2270   6.434   0.288   7.751  0.1180 -0.3726 -0.4453
   31CHL1   H20 2271   6.381   0.191   7.748  1.1807 -1.0494  1.2614
   31CHL1   C21 2272   6.327   0.400   7.766 -0.2806  0.0675 -0.1320
   31CHL1  H21A 2273   6.356   0.502   7.733 -2.9786  0.9663  0.0719
   31CHL1  H21B 2274   6.284   0.388   7.868 -2.5278 -0.5392 -1.1105
   31CHL1  H21C 2275   6.250   0.373   7.691  0.2188  1.2498 -1.0975
   31CHL1   C22 2276   6.524   0.286   7.879  0.7892  0.2151 -0.6476
   31CHL1  H22A 2277   6.613   0.226   7.849  0.5005  0.0451 -1.1673
   31CHL1  H22B 2278   6.553   0.390   7.905  0.1125  0.3294 -0.3552
   31CHL1   C23 2279   6.461   0.209   8.000 -0.2253  0.2239  0.4444
   31CHL1  H23A 2280   6.369   0.269   8.014 -1.4992 -1.4443 -0.5354
   31CHL1  H23B 2281   6.434   0.106   7.968 -0.4243  0.6972 -0.9744
   31CHL1   C24 2282   6.551   0.224   8.119  0.3300 -0.8355 -0.3451
   31CHL1  H24A 2283   6.650   0.187   8.086  0.2890 -0.6200 -0.7030
   31CHL1  H24B 2284   6.570   0.333   8.127 -0.3924 -0.7960  1.2736
   31CHL1   C25 2285   6.500   0.154   8.240 -0.7261  0.0637  0.4997
   31CHL1   H25 2286   6.410   0.211   8.272 -0.6272  0.4718  0.0721
   31CHL1   C26 2287   6.471   0.006   8.214  1.1103 -0.6406 -0.3744
   31CHL1  H26A 2288   6.449  -0.041   8.312  0.3364  0.6298  0.0911
   31CHL1  H26B 2289   6.395  -0.007   8.134 -0.2470 -3.0598  1.1732
   31CHL1  H26C 2290   6.557  -0.051   8.175  1.3634 -0.9610  0.6262
   31CHL1   C27 2291   6.609   0.167   8.348 -0.7666 -0.4327 -0.4284
   31CHL1  H27A 2292   6.700   0.115   8.311  0.2252  1.4268 -0.7286
   31CHL1  H27B 2293   6.579   0.124   8.446 -0.8630  0.3001 -0.1316
   31CHL1  H27C 2294   6.644   0.272   8.359  0.8264 -1.0808  1.1567
   32CHL1    C3 2295   6.602   2.917   6.971 -0.1972 -0.5189  0.2070
   32CHL1    H3 2296   6.523   2.995   6.974 -0.8417 -1.0902 -0.9930
   32CHL1    O3 2297   6.632   2.865   6.839 -0.3177 -0.5149 -0.1649
   32CHL1   H3' 2298   6.587   2.780   6.836  0.2937 -0.8183 -2.0272
   32CHL1    C4 2299   6.735   2.980   7.027  1.2102  0.2604 -0.2055
   32CHL1   H4A 2300   6.821   2.909   7.020 -1.4782 -3.4005  0.7548
   32CHL1   H4B 2301   6.756   3.061   6.953 -1.2600  0.2025 -1.0560
   32CHL1    C5 2302   6.712   3.033   7.171  0.0900  0.4059 -0.0065
   32CHL1    C6 2303   6.725   3.156   7.213 -0.0573  0.9274 -0.2056
   32CHL1    H6 2304   6.764   3.225   7.137  1.6040 -1.5423 -1.7390
   32CHL1    C7 2305   6.704   3.206   7.359  0.3657  0.6306  0.3370
   32CHL1   H7A 2306   6.774   3.287   7.390  0.6027  0.5946 -0.1100
   32CHL1   H7B 2307   6.602   3.248   7.371  0.3437  1.6906 -2.7571
   32CHL1    C8 2308   6.712   3.088   7.461  0.2898  0.0360 -0.4773
   32CHL1    H8 2309   6.814   3.048   7.475 -0.3726 -1.3959  0.5626
   32CHL1   C14 2310   6.656   3.143   7.597 -0.4535 -0.6853 -0.1123
   32CHL1   H14 2311   6.553   3.183   7.586 -0.4897  0.7802  3.8735
   32CHL1   C15 2312   6.739   3.265   7.659  0.2085 -0.3088  0.3792
   32CHL1  H15A 2313   6.848   3.251   7.641 -0.2585 -2.5077 -1.1434
   32CHL1  H15B 2314   6.698   3.363   7.627  0.7943 -0.3795 -0.6154
   32CHL1   C16 2315   6.696   3.264   7.806  0.4682 -0.0499 -0.2261
   32CHL1  H16A 2316   6.786   3.250   7.870  1.6140  0.5090 -1.6580
   32CHL1  H16B 2317   6.635   3.349   7.843  0.8079  0.6241 -1.1713
   32CHL1   C17 2318   6.618   3.133   7.833 -0.3417 -0.1782  0.2369
   32CHL1   H17 2319   6.511   3.160   7.817 -0.0754 -0.1827 -1.8592
   32CHL1   C13 2320   6.654   3.045   7.708  0.3421  0.3472 -0.2709
   32CHL1   C18 2321   6.802   2.982   7.736  0.3830 -0.9466  0.0846
   32CHL1  H18A 2322   6.872   3.067   7.753 -0.8165  0.1662 -0.3676
   32CHL1  H18B 2323   6.798   2.904   7.814 -0.8622 -0.8619  0.1313
   32CHL1  H18C 2324   6.830   2.927   7.644 -1.1983  1.1826 -1.8214
   32CHL1   C12 2325   6.556   2.934   7.663  0.0905 -0.1915  0.0260
   32CHL1  H12A 2326   6.558   2.858   7.745  1.9813 -0.5518 -0.3045
   32CHL1  H12B 2327   6.451   2.969   7.678  0.0041 -0.2582 -0.4267
   32CHL1   C11 2328   6.598   2.872   7.528 -0.2298  0.0848  0.2187
   32CHL1  H11A 2329   6.695   2.820   7.544  0.1843  1.6098  3.5977
   32CHL1  H11B 2330   6.521   2.799   7.498  0.1331 -0.0352 -0.4377
   32CHL1    C9 2331   6.616   2.979   7.412 -0.1638 -0.3890  0.9163
   32CHL1    H9 2332   6.512   3.014   7.396 -0.9084 -3.5268 -2.6496
   32CHL1   C10 2333   6.658   2.923   7.276 -1.3471 -0.3039 -0.3403
   32CHL1   C19 2334   6.782   2.826   7.300  0.1923  0.3095 -0.4758
   32CHL1  H19A 2335   6.864   2.869   7.361 -0.2997 -1.0038  1.2164
   32CHL1  H19B 2336   6.743   2.744   7.365  0.0727  0.5421 -0.2507
   32CHL1  H19C 2337   6.808   2.777   7.204  1.8007 -0.5817  0.3827
   32CHL1    C1 2338   6.541   2.840   7.214 -0.2992 -0.2475  0.4669
   32CHL1   H1A 2339   6.527   2.742   7.263  3.4414  0.3043  3.0424
   32CHL1   H1B 2340   6.456   2.911   7.227  1.1199  1.6799 -0.3283
   32CHL1    C2 2341   6.556   2.809   7.064 -0.6352  0.3899 -0.3701
   32CHL1   H2A 2342   6.457   2.769   7.032 -1.2201  2.2668 -1.0463
   32CHL1   H2B 2343   6.625   2.723   7.062 -2.2331 -1.1145  2.5023
   32CHL1   C20 2344   6.649   3.081   7.976  0.1450  0.1059 -0.7206
   32CHL1   H20 2345   6.757   3.056   7.987  0.1247  0.3739  0.1564
   32CHL1   C21 2346   6.585   2.944   8.007 -0.0640  0.3398  0.3340
   32CHL1  H21A 2347   6.591   2.929   8.117  2.5115  1.6679  0.4313
   32CHL1  H21B 2348   6.640   2.866   7.949 -1.4289  0.3275 -1.0336
   32CHL1  H21C 2349   6.477   2.932   7.986 -0.3464  2.1122  0.6519
   32CHL1   C22 2350   6.624   3.183   8.093  0.2215  0.5587  0.3464
   32CHL1  H22A 2351   6.670   3.141   8.185  0.3462 -1.6963 -0.6706
   32CHL1  H22B 2352   6.687   3.272   8.072 -0.3624  0.8496 -0.2377
   32CHL1   C23 2353   6.482   3.227   8.112 -0.1987  0.4187  0.5311
   32CHL1  H23A 2354   6.445   3.270   8.016 -3.6935 -1.1813  1.0054
   32CHL1  H23B 2355   6.419   3.137   8.124  0.8554 -0.5149 -0.6247
   32CHL1   C24 2356   6.458   3.332   8.221  0.2142  0.1428  0.7476
   32CHL1  H24A 2357   6.494   3.277   8.310  0.1632 -2.3757 -0.6763
   32CHL1  H24B 2358   6.517   3.421   8.190 -2.5578  1.6126 -0.7684
   32CHL1   C25 2359   6.301   3.370   8.248 -0.7811  0.1268 -0.2352
   32CHL1   H25 2360   6.258   3.405   8.152  0.0451 -0.4978 -0.8519
   32CHL1   C26 2361   6.231   3.251   8.306 -0.2597  0.0083 -0.2729
   32CHL1  H26A 2362   6.127   3.280   8.332  0.0403  0.7189  0.1391
   32CHL1  H26B 2363   6.225   3.170   8.229  1.0398  1.5412 -2.0940
   32CHL1  H26C 2364   6.287   3.213   8.395 -1.4350  1.0264  0.9403
   32CHL1   C27 2365   6.301   3.486   8.340  0.2948 -0.2984 -0.5779
   32CHL1  H27A 2366   6.330   3.450   8.441 -1.5209 -0.0740  0.0659
   32CHL1  H27B 2367   6.379   3.557   8.304  2.3133 -2.0459  0.1105
   32CHL1  H27C 2368   6.199   3.524   8.363 -0.2795 -2.5464  0.9002
   33CHL1    C3 2369   4.645   6.010   6.973  0.0504  0.3518  0.0231
   33CHL1    H3 2370   4.604   5.922   7.027 -2.5651  1.8894  0.7803
   33CHL1    O3 2371   4.630   5.992   6.831  0.2726 -0.7559  0.3167
   33CHL1   H3' 2372   4.537   6.004   6.813 -0.2475 -1.2604  2.4198
   33CHL1    C4 2373   4.563   6.136   7.020  0.0382 -0.6745  0.5810
   33CHL1   H4A 2374   4.599   6.228   6.969  1.1723 -1.5126 -0.1864
   33CHL1   H4B 2375   4.454   6.129   6.998  0.5868 -1.2182 -2.4804
   33CHL1    C5 2376   4.582   6.145   7.175  0.3115  0.4878 -0.3789
   33CHL1    C6 2377   4.472   6.137   7.256  0.1469 -0.6187 -0.2728
   33CHL1    H6 2378   4.371   6.130   7.214  0.4176  0.2955 -1.1067
   33CHL1    C7 2379   4.488   6.151   7.409 -0.7464  0.1769 -0.2143
   33CHL1   H7A 2380   4.420   6.227   7.453  0.4975  1.1147  0.1542
   33CHL1   H7B 2381   4.482   6.057   7.467 -3.0278  0.7646  0.6203
   33CHL1    C8 2382   4.625   6.216   7.454 -0.4812  0.6884  0.5029
   33CHL1    H8 2383   4.624   6.324   7.428 -0.4037  1.3014  2.8776
   33CHL1   C14 2384   4.648   6.202   7.606  0.3339  0.1144 -0.0702
   33CHL1   H14 2385   4.634   6.092   7.614  0.7831  0.1499  1.6917
   33CHL1   C15 2386   4.538   6.262   7.694 -0.7353  0.1394 -0.0340
   33CHL1  H15A 2387   4.520   6.370   7.673  1.3916  1.1243  2.6172
   33CHL1  H15B 2388   4.443   6.206   7.685  0.0561 -1.3255  0.3423
   33CHL1   C16 2389   4.600   6.248   7.835 -0.0798 -0.0468  0.6029
   33CHL1  H16A 2390   4.591   6.335   7.903  0.2506 -0.4429  1.1574
   33CHL1  H16B 2391   4.563   6.156   7.885 -0.6387  0.7046  1.6037
   33CHL1   C17 2392   4.754   6.215   7.809  0.1550  0.1717  0.0701
   33CHL1   H17 2393   4.765   6.106   7.823 -1.0327  0.1666  1.1726
   33CHL1   C13 2394   4.779   6.237   7.662  0.6119 -0.1200 -0.1487
   33CHL1   C18 2395   4.802   6.390   7.638 -1.0274 -0.0046 -0.3178
   33CHL1  H18A 2396   4.807   6.406   7.528  1.1881 -2.9713 -0.7835
   33CHL1  H18B 2397   4.721   6.459   7.671  1.3648  2.5524  0.6240
   33CHL1  H18C 2398   4.899   6.421   7.682 -0.0407  0.7766 -2.8460
   33CHL1   C12 2399   4.883   6.146   7.590  0.0610 -0.4307 -0.2316
   33CHL1  H12A 2400   4.973   6.194   7.634  0.0730 -1.3149  0.7343
   33CHL1  H12B 2401   4.884   6.042   7.629  1.2347 -0.9186 -1.4605
   33CHL1   C11 2402   4.875   6.157   7.440 -0.2749  0.7767 -0.3123
   33CHL1  H11A 2403   4.906   6.258   7.407  1.5722  0.4683  0.3665
   33CHL1  H11B 2404   4.948   6.086   7.394  0.9085  2.0122 -0.3924
   33CHL1    C9 2405   4.734   6.136   7.378 -0.3453  0.0391 -1.5163
   33CHL1    H9 2406   4.712   6.029   7.399  0.5980 -0.1426 -1.4084
   33CHL1   C10 2407   4.730   6.158   7.225 -0.5959 -0.0298 -0.7372
   33CHL1   C19 2408   4.769   6.300   7.182 -1.1656 -0.2911 -0.4901
   33CHL1  H19A 2409   4.781   6.306   7.072 -0.5628  0.3531 -0.3973
   33CHL1  H19B 2410   4.689   6.373   7.207 -2.1958 -1.7207  0.6046
   33CHL1  H19C 2411   4.863   6.337   7.227 -0.5270 -0.9130 -1.2905
   33CHL1    C1 2412   4.816   6.048   7.158 -0.0313 -0.0663  0.0940
   33CHL1   H1A 2413   4.925   6.067   7.170 -0.2174 -0.5610  3.2564
   33CHL1   H1B 2414   4.789   5.955   7.213  0.1972 -0.7656 -0.9446
   33CHL1    C2 2415   4.797   6.024   7.012 -0.5097 -0.1342 -0.6983
   33CHL1   H2A 2416   4.850   5.930   6.984 -0.5209  0.0581 -1.3930
   33CHL1   H2B 2417   4.835   6.101   6.941 -1.6075  0.8977 -0.2087
   33CHL1   C20 2418   4.847   6.267   7.920 -0.6640  0.6896 -0.5511
   33CHL1   H20 2419   4.838   6.377   7.926 -0.1347  0.7825 -1.2580
   33CHL1   C21 2420   4.990   6.218   7.895  0.1192  0.2143  0.3424
   33CHL1  H21A 2421   5.001   6.109   7.874  2.4355 -0.0900  2.5295
   33CHL1  H21B 2422   5.058   6.233   7.982 -1.0216  0.6579  1.1841
   33CHL1  H21C 2423   5.034   6.271   7.808  1.7807 -2.2271 -0.4284
   33CHL1   C22 2424   4.799   6.208   8.060 -0.0611  0.2575  0.2236
   33CHL1  H22A 2425   4.690   6.226   8.076  0.2975  1.4517  1.5870
   33CHL1  H22B 2426   4.819   6.099   8.067  1.7611  0.5038 -0.6714
   33CHL1   C23 2427   4.865   6.295   8.170  0.8136  0.5802  0.0898
   33CHL1  H23A 2428   4.972   6.267   8.185  0.6021 -1.2375 -1.4342
   33CHL1  H23B 2429   4.872   6.403   8.145 -1.0857  1.1636  1.7761
   33CHL1   C24 2430   4.784   6.282   8.302  0.0127 -0.0830  0.7240
   33CHL1  H24A 2431   4.680   6.323   8.301 -0.5220 -1.3747  1.3609
   33CHL1  H24B 2432   4.758   6.175   8.314 -1.6995  0.4659  2.3692
   33CHL1   C25 2433   4.847   6.325   8.438  1.4409  0.1115 -0.3925
   33CHL1   H25 2434   4.935   6.259   8.452  1.1029  0.0225  1.6393
   33CHL1   C26 2435   4.904   6.463   8.428  0.7850  0.0454  0.0355
   33CHL1  H26A 2436   4.809   6.515   8.403  1.5402  1.3452 -0.2347
   33CHL1  H26B 2437   4.930   6.502   8.529 -0.2244 -0.9771  0.7122
   33CHL1  H26C 2438   4.972   6.482   8.342 -0.6542  0.9199 -0.9572
   33CHL1   C27 2439   4.751   6.309   8.554 -0.1640  0.1022  0.1541
   33CHL1  H27A 2440   4.662   6.375   8.538  0.5621  0.7744 -1.3077
   33CHL1  H27B 2441   4.729   6.202   8.572 -1.4764  0.1484 -0.9353
   33CHL1  H27C 2442   4.790   6.361   8.644 -0.8412 -0.3444  0.7115
   34CHL1    C3 2443   0.942   3.790   7.086 -0.0859 -0.0235 -0.0593
   34CHL1    H3 2444   0.986   3.693   7.116  2.9987  0.6150 -2.0502
   34CHL1    O3 2445   0.950   3.789   6.946 -0.2994  0.2584 -0.6366
   34CHL1   H3' 2446   0.962   3.884   6.933  0.0862  0.5299  1.3319
   34CHL1    C4 2447   0.796   3.820   7.139 -0.2123 -0.2194 -0.0990
   34CHL1   H4A 2448   0.765   3.918   7.098 -0.8578 -0.1575  0.5186
   34CHL1   H4B 2449   0.735   3.743   7.087 -1.0729 -0.6986  1.5737
   34CHL1    C5 2450   0.791   3.819   7.288 -0.2897  0.4139 -0.2231
   34CHL1    C6 2451   0.704   3.739   7.349  0.6221  0.2540  0.0257
   34CHL1    H6 2452   0.640   3.669   7.294  2.0720 -0.0176 -1.4077
   34CHL1    C7 2453   0.691   3.725   7.502 -0.5008  0.2783  0.0467
   34CHL1   H7A 2454   0.589   3.710   7.541 -1.0944  1.7675 -0.8280
   34CHL1   H7B 2455   0.733   3.623   7.512 -1.5627 -0.1068  0.7183
   34CHL1    C8 2456   0.761   3.832   7.582  0.4139 -0.0369 -0.4864
   34CHL1    H8 2457   0.697   3.922   7.596  0.2836 -0.6790  4.9442
   34CHL1   C14 2458   0.795   3.790   7.724 -0.3390 -0.0295  0.3749
   34CHL1   H14 2459   0.854   3.696   7.713 -0.0805  0.0671  0.9001
   34CHL1   C15 2460   0.679   3.728   7.811 -0.2931  0.2961 -0.8926
   34CHL1  H15A 2461   0.587   3.789   7.801 -0.4262  0.4772  1.0126
   34CHL1  H15B 2462   0.650   3.625   7.780 -1.3407  0.7895 -1.6094
   34CHL1   C16 2463   0.739   3.723   7.951 -0.0474  0.3361 -1.2802
   34CHL1  H16A 2464   0.662   3.757   8.023  1.4703  1.7371 -0.2432
   34CHL1  H16B 2465   0.761   3.616   7.974  1.6645  0.7268 -0.9341
   34CHL1   C17 2466   0.872   3.807   7.958 -0.1972 -0.1017  0.2822
   34CHL1   H17 2467   0.951   3.731   7.941 -3.0094 -2.5274 -4.0221
   34CHL1   C13 2468   0.863   3.884   7.820  0.4220  0.5199  0.8850
   34CHL1   C18 2469   0.772   4.008   7.841 -0.0402 -0.2190  0.1053
   34CHL1  H18A 2470   0.681   3.977   7.897  0.9609  1.1424  2.6830
   34CHL1  H18B 2471   0.833   4.081   7.899  1.2579 -1.2871  0.1084
   34CHL1  H18C 2472   0.749   4.055   7.743  3.0070  1.7367  0.1918
   34CHL1   C12 2473   0.997   3.921   7.759 -0.4947 -0.5414 -0.1723
   34CHL1  H12A 2474   1.041   4.008   7.811 -0.2593  0.0341 -1.2989
   34CHL1  H12B 2475   1.071   3.839   7.750  1.1240  0.9383 -0.7773
   34CHL1   C11 2476   0.977   3.976   7.616  0.5473  0.0139 -0.3299
   34CHL1  H11A 2477   0.902   4.057   7.629 -1.6084 -2.2148  2.4472
   34CHL1  H11B 2478   1.079   3.997   7.577  1.2235  0.7862  1.7188
   34CHL1    C9 2479   0.895   3.878   7.519  1.4847 -0.1100  0.4892
   34CHL1    H9 2480   0.958   3.787   7.528  0.2401 -0.7963  3.7235
   34CHL1   C10 2481   0.896   3.913   7.367 -0.0491  0.4772  0.1626
   34CHL1   C19 2482   0.853   4.054   7.341  0.8101 -0.6203 -0.4138
   34CHL1  H19A 2483   0.835   4.083   7.236 -0.5768  1.7067  0.3961
   34CHL1  H19B 2484   0.764   4.091   7.396  0.6574  1.4108 -1.9119
   34CHL1  H19C 2485   0.940   4.117   7.373 -0.4443  2.2826 -2.2801
   34CHL1    C1 2486   1.039   3.889   7.303  0.4625  0.0174  0.0282
   34CHL1   H1A 2487   1.108   3.967   7.342  1.4635  0.9164 -3.2379
   34CHL1   H1B 2488   1.083   3.791   7.331  1.8656  0.5922 -0.1097
   34CHL1    C2 2489   1.044   3.890   7.151  0.4505  0.5977 -0.1157
   34CHL1   H2A 2490   1.145   3.860   7.115 -0.0614 -1.0602 -0.2233
   34CHL1   H2B 2491   1.019   3.986   7.102  1.8727 -0.0664 -2.2745
   34CHL1   C20 2492   0.911   3.878   8.091  0.2180  0.2987 -0.1089
   34CHL1   H20 2493   0.831   3.951   8.114  0.8684  1.7061 -2.0944
   34CHL1   C21 2494   1.044   3.952   8.076  0.9806 -1.0931 -0.2910
   34CHL1  H21A 2495   1.114   3.880   8.030  1.8799 -1.0852  1.0012
   34CHL1  H21B 2496   1.090   3.988   8.171  0.5105  0.3944 -0.6063
   34CHL1  H21C 2497   1.048   4.034   8.002  1.9188 -1.6983 -0.9293
   34CHL1   C22 2498   0.919   3.768   8.197 -0.2725  0.4188  0.1289
   34CHL1  H22A 2499   0.822   3.714   8.196  1.0277 -2.0953 -1.1465
   34CHL1  H22B 2500   0.982   3.686   8.156 -0.8512 -0.4489  0.9399
   34CHL1   C23 2501   0.965   3.811   8.330  0.3099  0.4727 -0.0200
   34CHL1  H23A 2502   0.979   3.733   8.408 -1.2101  0.1680 -0.0246
   34CHL1  H23B 2503   1.062   3.864   8.321  0.8501 -0.6518 -1.1548
   34CHL1   C24 2504   0.864   3.907   8.391  0.5649  0.7996 -0.4442
   34CHL1  H24A 2505   0.846   3.990   8.320  0.1999  0.2993 -0.9450
   34CHL1  H24B 2506   0.764   3.861   8.397 -0.4212  2.9881  1.6036
   34CHL1   C25 2507   0.901   3.961   8.532  0.1437 -0.4874 -0.2949
   34CHL1   H25 2508   0.825   4.040   8.550 -0.6512 -1.1572 -0.6271
   34CHL1   C26 2509   0.873   3.852   8.633  0.4833 -0.8350  0.8778
   34CHL1  H26A 2510   0.918   3.757   8.595  0.4723  0.1171 -1.7124
   34CHL1  H26B 2511   0.906   3.896   8.729  0.4663  1.2002 -0.0091
   34CHL1  H26C 2512   0.763   3.843   8.644 -0.0452  3.1337  0.2469
   34CHL1   C27 2513   1.045   4.013   8.538  0.2639  0.5907  0.3249
   34CHL1  H27A 2514   1.122   3.935   8.523 -0.4872 -0.1281  0.1503
   34CHL1  H27B 2515   1.050   4.084   8.452  1.4421  0.5551  0.3494
   34CHL1  H27C 2516   1.055   4.063   8.637  0.0671 -1.0352  1.1977
   35CHL1    C3 2517   3.309   4.161   7.169 -0.6889  0.3045  0.1242
   35CHL1    H3 2518   3.317   4.255   7.228  3.5763 -0.0245  0.4057
   35CHL1    O3 2519   3.273   4.186   7.040 -0.0388 -0.1516  0.4075
   35CHL1   H3' 2520   3.324   4.265   7.023 -1.8047  1.1188  0.6761
   35CHL1    C4 2521   3.454   4.096   7.174 -0.1569  0.5936  0.3360
   35CHL1   H4A 2522   3.428   3.997   7.130 -0.0493  0.4011  0.6991
   35CHL1   H4B 2523   3.520   4.155   7.107 -0.3345  1.8042  1.1996
   35CHL1    C5 2524   3.501   4.080   7.309 -0.4894  0.0227  0.6070
   35CHL1    C6 2525   3.623   4.131   7.349  0.2656 -0.0599  1.2857
   35CHL1    H6 2526   3.679   4.179   7.268 -0.1365 -0.5858  0.6921
   35CHL1    C7 2527   3.675   4.134   7.492 -0.2159 -0.1437 -0.8891
   35CHL1   H7A 2528   3.781   4.106   7.505  0.0750  1.4757  0.5071
   35CHL1   H7B 2529   3.672   4.236   7.535 -0.4302 -0.2551 -0.6376
   35CHL1    C8 2530   3.592   4.038   7.578  0.5125 -0.2657  0.4541
   35CHL1    H8 2531   3.617   3.933   7.553  0.6614  0.0556 -0.8548
   35CHL1   C14 2532   3.623   4.062   7.723 -0.4061 -0.0785 -0.5442
   35CHL1   H14 2533   3.605   4.171   7.738  2.4837  0.3214  0.8102
   35CHL1   C15 2534   3.775   4.053   7.763  0.0335 -0.4555  0.7404
   35CHL1  H15A 2535   3.802   3.951   7.727  1.2717  0.1843 -0.2319
   35CHL1  H15B 2536   3.843   4.125   7.711  0.6906 -2.0231 -0.7007
   35CHL1   C16 2537   3.774   4.060   7.916  0.1024  0.1057  0.4630
   35CHL1  H16A 2538   3.826   3.976   7.967 -0.8539 -1.2268 -0.6772
   35CHL1  H16B 2539   3.807   4.155   7.963 -0.4762  2.2882 -3.1885
   35CHL1   C17 2540   3.622   4.043   7.952  0.5382 -0.4437 -0.4000
   35CHL1   H17 2541   3.576   4.144   7.959 -0.4391 -0.7290 -2.1236
   35CHL1   C13 2542   3.543   3.987   7.832 -0.3263 -0.2980  0.2259
   35CHL1   C18 2543   3.567   3.832   7.817 -0.7207 -0.1826  0.2085
   35CHL1  H18A 2544   3.675   3.807   7.827 -0.7232  0.1195  1.0968
   35CHL1  H18B 2545   3.516   3.777   7.898  1.7753  0.8541  2.6552
   35CHL1  H18C 2546   3.518   3.807   7.720 -1.4908 -0.0795  0.5623
   35CHL1   C12 2547   3.389   4.033   7.803  0.2983  0.7740  0.0126
   35CHL1  H12A 2548   3.323   3.978   7.874  0.5182 -1.7948 -1.6421
   35CHL1  H12B 2549   3.376   4.138   7.838  0.0016 -0.1506  2.9780
   35CHL1   C11 2550   3.348   4.000   7.662  0.3354 -0.2747  0.0993
   35CHL1  H11A 2551   3.343   3.889   7.655  0.9652 -0.2547 -0.8410
   35CHL1  H11B 2552   3.247   4.043   7.645  0.6457  0.6900  0.6217
   35CHL1    C9 2553   3.440   4.057   7.550 -0.4763  0.4565  0.3782
   35CHL1    H9 2554   3.425   4.166   7.570 -2.0123 -0.2146  3.5474
   35CHL1   C10 2555   3.396   4.023   7.404  0.3795  0.6441 -0.4017
   35CHL1   C19 2556   3.397   3.857   7.394  0.0526 -0.3891 -0.6737
   35CHL1  H19A 2557   3.335   3.804   7.470  2.3551 -1.7455  0.3826
   35CHL1  H19B 2558   3.359   3.813   7.300 -0.5934  0.9813 -1.0660
   35CHL1  H19C 2559   3.501   3.819   7.406  0.8262  1.0095 -2.4712
   35CHL1    C1 2560   3.255   4.067   7.389  0.2670 -0.0101 -0.0592
   35CHL1   H1A 2561   3.188   4.000   7.447  1.4191 -0.8951  0.2890
   35CHL1   H1B 2562   3.255   4.167   7.439 -0.8818 -0.8709  1.7897
   35CHL1    C2 2563   3.212   4.075   7.241 -0.0504 -0.6523 -0.7570
   35CHL1   H2A 2564   3.111   4.122   7.243 -0.1417 -0.8604 -0.3742
   35CHL1   H2B 2565   3.204   3.970   7.207  1.0593 -1.2500  0.7297
   35CHL1   C20 2566   3.614   3.965   8.084 -1.3888 -0.8076  0.4308
   35CHL1   H20 2567   3.671   3.870   8.074  0.9048  0.6219 -1.2724
   35CHL1   C21 2568   3.467   3.935   8.129 -0.8330  0.5232  0.1482
   35CHL1  H21A 2569   3.479   3.890   8.230 -0.3570 -0.9427 -0.5377
   35CHL1  H21B 2570   3.416   3.871   8.054  1.4335  0.2169 -1.2430
   35CHL1  H21C 2571   3.404   4.025   8.138 -1.8179 -0.1197 -0.1793
   35CHL1   C22 2572   3.681   4.033   8.202 -0.3752  0.5429 -0.2615
   35CHL1  H22A 2573   3.675   3.960   8.285 -2.0808  0.3184 -0.5602
   35CHL1  H22B 2574   3.791   4.029   8.187 -0.5280 -0.3008 -1.2604
   35CHL1   C23 2575   3.637   4.175   8.240 -0.0214  0.2845 -0.2103
   35CHL1  H23A 2576   3.660   4.246   8.159 -2.0928  2.4103  0.9506
   35CHL1  H23B 2577   3.526   4.176   8.244 -0.1530  0.3246 -2.7025
   35CHL1   C24 2578   3.712   4.204   8.367 -0.2794 -1.1077  0.1756
   35CHL1  H24A 2579   3.689   4.127   8.443  1.3819 -0.4768  1.3707
   35CHL1  H24B 2580   3.821   4.195   8.349  0.5697  2.5875  2.4495
   35CHL1   C25 2581   3.685   4.344   8.420  0.8700  0.7630  0.4371
   35CHL1   H25 2582   3.704   4.425   8.347  0.1728 -0.3627 -1.0435
   35CHL1   C26 2583   3.536   4.359   8.460  0.4670 -0.1985 -0.0163
   35CHL1  H26A 2584   3.521   4.445   8.528  0.3432  0.6651 -1.1180
   35CHL1  H26B 2585   3.478   4.397   8.374  0.5927  2.6273  1.0397
   35CHL1  H26C 2586   3.487   4.264   8.492  2.9360 -1.5090  0.1368
   35CHL1   C27 2587   3.775   4.374   8.539 -0.3176  0.2039  0.0364
   35CHL1  H27A 2588   3.742   4.316   8.628 -1.2478  1.3291  0.4502
   35CHL1  H27B 2589   3.772   4.481   8.571 -0.1026 -0.2869  1.8480
   35CHL1  H27C 2590   3.885   4.362   8.526 -0.3226 -1.9712  1.4988
   36CHL1    C3 2591   4.467   4.457   7.473  0.4311 -0.0272 -0.0737
   36CHL1    H3 2592   4.364   4.470   7.512  0.2365  0.8644 -0.8227
   36CHL1    O3 2593   4.456   4.469   7.328 -0.4853  0.2625  0.2890
   36CHL1   H3' 2594   4.546   4.466   7.295 -0.4311 -1.3269  0.4926
   36CHL1    C4 2595   4.572   4.554   7.531  0.2085 -0.4868 -0.2720
   36CHL1   H4A 2596   4.669   4.547   7.479  0.3272  0.9046 -0.2760
   36CHL1   H4B 2597   4.521   4.652   7.519 -1.8442 -1.2669  1.3888
   36CHL1    C5 2598   4.599   4.525   7.677 -0.7155 -0.5045 -0.4315
   36CHL1    C6 2599   4.594   4.619   7.779 -0.2715  0.0764 -0.0229
   36CHL1    H6 2600   4.584   4.724   7.750 -0.9393  0.1438  0.4308
   36CHL1    C7 2601   4.625   4.598   7.918  0.3138  0.1171 -0.8773
   36CHL1   H7A 2602   4.686   4.683   7.957 -0.9081  0.3735  0.5511
   36CHL1   H7B 2603   4.533   4.606   7.980  2.1586 -0.8564  2.2005
   36CHL1    C8 2604   4.687   4.465   7.952 -0.2351 -0.4176 -0.4368
   36CHL1    H8 2605   4.795   4.468   7.925  1.0964 -0.7278  4.0582
   36CHL1   C14 2606   4.686   4.443   8.104 -0.3029  0.8292  0.4561
   36CHL1   H14 2607   4.581   4.442   8.139 -1.0870 -0.9167 -1.7232
   36CHL1   C15 2608   4.746   4.546   8.200 -0.2802  0.4280  0.1651
   36CHL1  H15A 2609   4.846   4.573   8.160 -0.1619 -0.1855  0.0406
   36CHL1  H15B 2610   4.696   4.640   8.232 -0.5666  0.3458 -0.0382
   36CHL1   C16 2611   4.775   4.464   8.327 -0.8370 -0.8763  0.7138
   36CHL1  H16A 2612   4.882   4.472   8.357 -0.5343 -0.4701 -0.4007
   36CHL1  H16B 2613   4.714   4.507   8.409 -1.0012  3.4350 -1.4152
   36CHL1   C17 2614   4.742   4.315   8.299  0.1155 -0.1484 -0.1826
   36CHL1   H17 2615   4.634   4.301   8.322  0.7796 -0.7117  3.1026
   36CHL1   C13 2616   4.747   4.304   8.150 -0.4301 -0.5257  0.8671
   36CHL1   C18 2617   4.895   4.302   8.099  0.1451  0.4526  0.2608
   36CHL1  H18A 2618   4.957   4.378   8.151  1.5607 -0.9551  0.7144
   36CHL1  H18B 2619   4.945   4.206   8.125  1.7226  1.6585  1.9111
   36CHL1  H18C 2620   4.915   4.327   7.993  1.4413 -1.4887  0.0001
   36CHL1   C12 2621   4.665   4.194   8.077  0.2132  0.8724  0.1911
   36CHL1  H12A 2622   4.708   4.093   8.094  0.7237  1.1619  0.6557
   36CHL1  H12B 2623   4.563   4.196   8.121 -0.9938  3.3539 -2.3862
   36CHL1   C11 2624   4.658   4.211   7.925  0.0255 -0.1713  0.0429
   36CHL1  H11A 2625   4.764   4.193   7.894  0.9338  2.1001  1.5483
   36CHL1  H11B 2626   4.586   4.136   7.886  0.8374 -1.1650  0.4261
   36CHL1    C9 2627   4.619   4.352   7.872 -0.3499 -0.9041  0.2961
   36CHL1    H9 2628   4.516   4.369   7.909  0.1622  0.8965  1.0138
   36CHL1   C10 2629   4.625   4.373   7.719  0.2740 -0.9333  0.3636
   36CHL1   C19 2630   4.766   4.328   7.669 -0.2642  0.8482 -0.0397
   36CHL1  H19A 2631   4.780   4.219   7.684  2.6955  0.8641 -1.8255
   36CHL1  H19B 2632   4.775   4.351   7.561 -0.2555  1.3962  0.0741
   36CHL1  H19C 2633   4.848   4.377   7.727 -0.2796 -1.6985  2.3403
   36CHL1    C1 2634   4.515   4.286   7.652  0.5076  0.3505  0.3492
   36CHL1   H1A 2635   4.535   4.178   7.671 -0.2889 -0.2629 -1.9934
   36CHL1   H1B 2636   4.418   4.310   7.701  0.5519 -0.2404  0.7382
   36CHL1    C2 2637   4.499   4.313   7.504 -0.6290  0.5740  0.1721
   36CHL1   H2A 2638   4.417   4.249   7.463 -0.6775 -0.7401  2.1630
   36CHL1   H2B 2639   4.586   4.284   7.442 -1.7155  0.7802 -1.5168
   36CHL1   C20 2640   4.815   4.216   8.395  0.1015  0.3053 -0.1425
   36CHL1   H20 2641   4.923   4.220   8.372 -0.0884  0.8980 -1.0004
   36CHL1   C21 2642   4.772   4.064   8.369  0.2279 -0.0909  0.2528
   36CHL1  H21A 2643   4.816   4.032   8.273 -1.1071 -0.7969 -0.1469
   36CHL1  H21B 2644   4.662   4.056   8.385  0.3811 -0.6986  1.0973
   36CHL1  H21C 2645   4.821   4.000   8.446  2.4514 -0.6949 -1.5557
   36CHL1   C22 2646   4.789   4.251   8.548 -0.2679  0.2488 -1.1573
   36CHL1  H22A 2647   4.842   4.177   8.612  0.6672  2.1247  0.3455
   36CHL1  H22B 2648   4.843   4.345   8.575 -1.2105  0.1154  1.4946
   36CHL1   C23 2649   4.642   4.251   8.600 -0.4925 -0.3366 -0.5385
   36CHL1  H23A 2650   4.574   4.319   8.545 -2.3757  0.1382  2.1647
   36CHL1  H23B 2651   4.598   4.149   8.598 -0.2424 -0.4820  0.5295
   36CHL1   C24 2652   4.638   4.299   8.744  0.2955  0.5800  0.0668
   36CHL1  H24A 2653   4.729   4.285   8.806 -0.5022 -2.2567  0.7379
   36CHL1  H24B 2654   4.626   4.409   8.754  0.5160  0.9059 -2.5064
   36CHL1   C25 2655   4.533   4.223   8.837  0.1955 -0.4652 -0.8814
   36CHL1   H25 2656   4.438   4.253   8.788  0.3550  1.1437 -0.2570
   36CHL1   C26 2657   4.524   4.063   8.845 -0.8611  0.3139  0.1380
   36CHL1  H26A 2658   4.435   4.034   8.905 -0.7828  1.5340  0.8771
   36CHL1  H26B 2659   4.517   4.027   8.741  1.2857  0.3177 -0.0525
   36CHL1  H26C 2660   4.616   4.036   8.901 -0.9106 -0.4798 -0.1513
   36CHL1   C27 2661   4.544   4.286   8.976 -0.8640  0.6128  0.3325
   36CHL1  H27A 2662   4.562   4.393   8.952  1.3913  0.4131  0.9441
   36CHL1  H27B 2663   4.448   4.268   9.029 -0.9068 -0.7503 -0.1723
   36CHL1  H27C 2664   4.626   4.236   9.032 -0.9634 -0.4569 -0.4523
   37CHL1    C3 2665   2.579   1.977   7.076  0.0887  0.5514 -0.1060
   37CHL1    H3 2666   2.488   2.002   7.134  2.5406  0.7248  4.0420
   37CHL1    O3 2667   2.557   1.964   6.932  0.1971  0.3797 -0.5545
   37CHL1   H3' 2668   2.639   1.933   6.894 -0.4921 -0.2620 -1.5703
   37CHL1    C4 2669   2.669   2.104   7.075  0.4343 -0.5650  0.1884
   37CHL1   H4A 2670   2.761   2.091   7.015  1.7421  4.0018  0.8042
   37CHL1   H4B 2671   2.623   2.197   7.034 -0.4762 -0.4833  1.3318
   37CHL1    C5 2672   2.714   2.136   7.218 -0.4070 -0.0038 -1.0564
   37CHL1    C6 2673   2.683   2.252   7.277  0.0539  0.4200  0.8546
   37CHL1    H6 2674   2.635   2.327   7.213 -0.9364 -0.7584  0.1790
   37CHL1    C7 2675   2.730   2.289   7.416 -0.3055 -0.2180 -0.1359
   37CHL1   H7A 2676   2.789   2.383   7.403  2.4336 -1.8121 -0.0176
   37CHL1   H7B 2677   2.637   2.290   7.477 -0.7896 -0.6734 -0.8397
   37CHL1    C8 2678   2.829   2.190   7.485  0.5327  0.1627 -0.7342
   37CHL1    H8 2679   2.934   2.209   7.453  0.5990  1.0278 -0.0386
   37CHL1   C14 2680   2.831   2.213   7.632  0.5238 -0.0808 -0.0931
   37CHL1   H14 2681   2.730   2.186   7.669  1.6396 -2.6788  1.3035
   37CHL1   C15 2682   2.860   2.351   7.686 -0.6288 -0.4670  0.2240
   37CHL1  H15A 2683   2.958   2.385   7.648 -1.8117  0.4372 -2.2592
   37CHL1  H15B 2684   2.788   2.433   7.661  0.5221 -0.0541 -2.0577
   37CHL1   C16 2685   2.872   2.327   7.838  0.1946 -0.0935 -0.1572
   37CHL1  H16A 2686   2.940   2.400   7.887 -0.5476 -1.1479  2.6089
   37CHL1  H16B 2687   2.772   2.348   7.882  0.4161 -2.5107  1.7389
   37CHL1   C17 2688   2.886   2.175   7.864 -0.2969 -0.0862  0.4174
   37CHL1   H17 2689   2.783   2.141   7.885 -0.7090  0.4278 -0.7076
   37CHL1   C13 2690   2.920   2.120   7.722 -0.2081 -1.0167  0.7938
   37CHL1   C18 2691   3.068   2.147   7.682  0.4664 -0.2444 -0.2634
   37CHL1  H18A 2692   3.074   2.133   7.572  0.1566 -3.0374  0.0076
   37CHL1  H18B 2693   3.100   2.251   7.704 -0.2380  0.6576 -3.1227
   37CHL1  H18C 2694   3.134   2.066   7.720  2.2318  1.4907  0.5427
   37CHL1   C12 2695   2.882   1.972   7.688  0.3809  0.2818  0.3122
   37CHL1  H12A 2696   2.959   1.905   7.733 -0.5853 -1.6198 -0.7728
   37CHL1  H12B 2697   2.783   1.943   7.727  0.1711  2.0284  1.1954
   37CHL1   C11 2698   2.886   1.946   7.530  0.7927  0.1350  0.2033
   37CHL1  H11A 2699   2.992   1.935   7.499 -0.2158 -1.4195 -3.0855
   37CHL1  H11B 2700   2.840   1.848   7.506 -0.2037  0.8612 -0.9655
   37CHL1    C9 2701   2.801   2.045   7.451  0.2317  0.1116  0.4007
   37CHL1    H9 2702   2.697   2.036   7.487 -0.8689  2.9738 -1.7113
   37CHL1   C10 2703   2.784   2.020   7.298 -0.1394 -0.2193 -0.3019
   37CHL1   C19 2704   2.924   2.023   7.240 -0.0233  0.1804 -0.1769
   37CHL1  H19A 2705   2.975   2.121   7.254  1.0793 -0.4596  0.5035
   37CHL1  H19B 2706   2.986   1.945   7.290 -2.4509 -0.8242  1.4377
   37CHL1  H19C 2707   2.927   1.990   7.134  2.6264 -1.6681  0.3580
   37CHL1    C1 2708   2.716   1.888   7.269  0.4808  0.3084 -0.0329
   37CHL1   H1A 2709   2.779   1.801   7.299 -1.3098 -1.4904 -1.2219
   37CHL1   H1B 2710   2.623   1.867   7.325 -0.3298  1.1097 -1.0366
   37CHL1    C2 2711   2.662   1.856   7.128 -0.2872 -0.3482 -0.7884
   37CHL1   H2A 2712   2.601   1.764   7.143 -2.3533  1.2876  1.7301
   37CHL1   H2B 2713   2.750   1.835   7.063  2.8823  1.5579  2.5402
   37CHL1   C20 2714   2.982   2.136   7.979  0.3174 -0.0831 -0.4361
   37CHL1   H20 2715   3.082   2.117   7.934  1.5323  0.1945  1.9693
   37CHL1   C21 2716   2.926   2.000   8.024  0.6668 -0.1075  0.1255
   37CHL1  H21A 2717   2.996   1.963   8.101  1.2470  1.5296  0.4346
   37CHL1  H21B 2718   2.926   1.933   7.935  1.6301 -1.0072  0.7735
   37CHL1  H21C 2719   2.828   2.002   8.075 -1.2362  1.6945 -3.2718
   37CHL1   C22 2720   2.999   2.242   8.099 -0.6183 -0.9901  0.3341
   37CHL1  H22A 2721   3.067   2.198   8.176  3.3092 -0.6555 -2.6182
   37CHL1  H22B 2722   3.061   2.321   8.052 -0.7104 -0.6866  0.7126
   37CHL1   C23 2723   2.871   2.279   8.180 -0.0947  0.1799 -0.2221
   37CHL1  H23A 2724   2.792   2.312   8.109  0.5836  0.1550 -0.9989
   37CHL1  H23B 2725   2.830   2.188   8.229 -0.0634  0.5987  0.6035
   37CHL1   C24 2726   2.899   2.394   8.278 -0.4596  0.1242 -0.2460
   37CHL1  H24A 2727   2.999   2.382   8.326 -1.3172 -2.6938  1.0866
   37CHL1  H24B 2728   2.901   2.489   8.221  0.5493 -1.3945 -2.8915
   37CHL1   C25 2729   2.798   2.398   8.392 -0.0350 -0.2943 -0.2309
   37CHL1   H25 2730   2.696   2.411   8.351 -0.4719  1.1147  1.2130
   37CHL1   C26 2731   2.790   2.265   8.481 -0.2105  0.0750  0.0242
   37CHL1  H26A 2732   2.758   2.173   8.426  2.1486 -0.7498 -0.0755
   37CHL1  H26B 2733   2.893   2.242   8.515 -0.7866 -1.9523  0.5533
   37CHL1  H26C 2734   2.732   2.280   8.575  2.0823  0.7469  1.3924
   37CHL1   C27 2735   2.801   2.530   8.470  0.2379  0.0788  0.3392
   37CHL1  H27A 2736   2.894   2.548   8.529 -0.4044 -0.3320  1.5173
   37CHL1  H27B 2737   2.783   2.605   8.391 -0.6005 -0.4731 -0.0109
   37CHL1  H27C 2738   2.716   2.526   8.542 -0.9512 -2.5977 -1.0483
   38CHL1    C3 2739   5.564   1.338   6.719  0.6307 -0.0981 -0.3864
   38CHL1    H3 2740   5.460   1.302   6.727  1.0491 -1.6206 -1.3600
   38CHL1    O3 2741   5.605   1.340   6.583 -0.3527 -0.4405  0.0154
   38CHL1   H3' 2742   5.652   1.424   6.584 -2.3688  0.7541  1.7527
   38CHL1    C4 2743   5.587   1.481   6.781 -0.0990 -0.2365  0.1268
   38CHL1   H4A 2744   5.694   1.504   6.761  0.0478 -1.4422 -0.5684
   38CHL1   H4B 2745   5.519   1.552   6.729  1.1043  1.0906  0.3083
   38CHL1    C5 2746   5.549   1.475   6.932 -0.0004  0.5211  0.1866
   38CHL1    C6 2747   5.450   1.552   6.989  0.1828 -0.7258 -0.2763
   38CHL1    H6 2748   5.406   1.632   6.928  2.5804  1.2469  0.3926
   38CHL1    C7 2749   5.422   1.553   7.137 -0.3892  0.5589  0.2573
   38CHL1   H7A 2750   5.415   1.653   7.183  1.7544  0.7888  0.1946
   38CHL1   H7B 2751   5.326   1.507   7.169 -0.6386 -0.6009 -1.9237
   38CHL1    C8 2752   5.538   1.480   7.215 -0.6083 -1.0563  0.1775
   38CHL1    H8 2753   5.630   1.543   7.211 -0.3928 -1.3711  0.1118
   38CHL1   C14 2754   5.497   1.459   7.360  0.4961  0.1368  0.0600
   38CHL1   H14 2755   5.419   1.380   7.357  1.3333 -0.9472  3.0793
   38CHL1   C15 2756   5.434   1.578   7.448  0.1047 -0.1098  0.1313
   38CHL1  H15A 2757   5.480   1.675   7.417  0.3538  0.1857  1.3701
   38CHL1  H15B 2758   5.326   1.580   7.425 -0.1634 -0.2506  1.3067
   38CHL1   C16 2759   5.459   1.526   7.594 -0.4848 -0.0121  0.6239
   38CHL1  H16A 2760   5.504   1.613   7.646 -0.8842  1.0953 -0.8212
   38CHL1  H16B 2761   5.367   1.499   7.651  0.4256 -1.6214  1.4010
   38CHL1   C17 2762   5.547   1.400   7.588 -0.6696  0.0690  0.3408
   38CHL1   H17 2763   5.475   1.315   7.584  1.3025 -1.8562  2.8170
   38CHL1   C13 2764   5.610   1.390   7.447  0.3239 -0.6548  0.5246
   38CHL1   C18 2765   5.744   1.469   7.442 -0.5105  0.4946  0.2555
   38CHL1  H18A 2766   5.815   1.459   7.527 -0.7332  2.9021  0.8000
   38CHL1  H18B 2767   5.800   1.447   7.349 -1.7761 -1.6004 -0.0942
   38CHL1  H18C 2768   5.722   1.578   7.440  0.9016  0.7924 -0.3343
   38CHL1   C12 2769   5.622   1.246   7.392  0.6416 -0.3413  0.2473
   38CHL1  H12A 2770   5.691   1.174   7.441  0.9848  0.2843  0.6971
   38CHL1  H12B 2771   5.524   1.197   7.407  0.9323 -0.9023  0.3499
   38CHL1   C11 2772   5.663   1.241   7.239 -0.5851  0.0298  0.4684
   38CHL1  H11A 2773   5.769   1.272   7.241 -0.9523  1.4033 -0.4089
   38CHL1  H11B 2774   5.650   1.135   7.206 -1.6254  0.4774 -0.5995
   38CHL1    C9 2775   5.586   1.347   7.154  0.4371  0.8949 -0.2570
   38CHL1    H9 2776   5.487   1.297   7.145  0.4506  0.6330  0.9131
   38CHL1   C10 2777   5.631   1.367   7.009  0.2556 -0.3301 -0.6560
   38CHL1   C19 2778   5.776   1.407   7.004 -0.4662  0.7468  0.7929
   38CHL1  H19A 2779   5.813   1.430   6.902  2.8792 -1.6943  1.2564
   38CHL1  H19B 2780   5.797   1.499   7.063  1.0447  0.5430  0.6371
   38CHL1  H19C 2781   5.845   1.324   7.033 -2.0647 -0.4844  1.1709
   38CHL1    C1 2782   5.613   1.230   6.938  1.0384  1.2685  0.9073
   38CHL1   H1A 2783   5.669   1.146   6.984 -0.9447  0.1982  1.4499
   38CHL1   H1B 2784   5.509   1.196   6.955  0.7538  1.5820 -0.1305
   38CHL1    C2 2785   5.651   1.236   6.797 -0.7791 -0.3352  0.2372
   38CHL1   H2A 2786   5.628   1.138   6.750 -0.1610 -0.1801 -0.4039
   38CHL1   H2B 2787   5.760   1.253   6.787 -0.9922  3.1442  2.3526
   38CHL1   C20 2788   5.634   1.380   7.715 -0.0254  0.1460 -0.5456
   38CHL1   H20 2789   5.712   1.457   7.731 -1.7055  1.4648  2.2206
   38CHL1   C21 2790   5.711   1.250   7.695 -0.2125  0.3230 -0.6796
   38CHL1  H21A 2791   5.763   1.242   7.597 -1.4301  1.2287 -1.4394
   38CHL1  H21B 2792   5.663   1.151   7.712  1.6736 -0.8413 -1.7271
   38CHL1  H21C 2793   5.785   1.258   7.777 -1.7279  0.6194  0.6862
   38CHL1   C22 2794   5.555   1.399   7.850  0.0355  0.3299 -0.4008
   38CHL1  H22A 2795   5.519   1.504   7.847  1.8350  0.9948  0.1024
   38CHL1  H22B 2796   5.477   1.323   7.870 -0.3135  0.6357 -0.5999
   38CHL1   C23 2797   5.649   1.383   7.975 -0.2539  0.1230 -0.2980
   38CHL1  H23A 2798   5.687   1.279   7.981  0.6727  0.3152 -2.1784
   38CHL1  H23B 2799   5.736   1.450   7.961 -0.2187  0.1337 -0.0425
   38CHL1   C24 2800   5.565   1.414   8.100  0.1621  0.5353 -0.1279
   38CHL1  H24A 2801   5.517   1.513   8.083  1.0859  0.9033 -0.6554
   38CHL1  H24B 2802   5.491   1.334   8.120  0.5212 -0.3737 -2.1485
   38CHL1   C25 2803   5.643   1.423   8.233 -0.4051  0.0763 -0.0705
   38CHL1   H25 2804   5.572   1.428   8.318 -0.0858 -1.0778  0.2802
   38CHL1   C26 2805   5.735   1.300   8.247 -0.2818 -0.0047  0.0135
   38CHL1  H26A 2806   5.815   1.294   8.171 -1.7811 -2.5275 -1.5049
   38CHL1  H26B 2807   5.781   1.294   8.348  0.3699 -1.2907 -0.3288
   38CHL1  H26C 2808   5.677   1.205   8.237 -1.0964  0.4683  0.1627
   38CHL1   C27 2809   5.724   1.548   8.243 -0.2469  0.0306 -0.3366
   38CHL1  H27A 2810   5.663   1.637   8.268  0.9012  0.5354  0.8347
   38CHL1  H27B 2811   5.795   1.538   8.328  0.8728 -2.1925 -1.4399
   38CHL1  H27C 2812   5.778   1.551   8.146  0.8353  0.5216  0.2600
   39CHL1    C3 2813   4.845   1.487   7.163 -0.3425  0.3099  0.2890
   39CHL1    H3 2814   4.867   1.382   7.192  1.3024  0.6193  0.2766
   39CHL1    O3 2815   4.786   1.491   7.033  0.0588  0.3595  0.6202
   39CHL1   H3' 2816   4.773   1.585   7.018 -0.1168  0.3946  0.9755
   39CHL1    C4 2817   4.740   1.542   7.253 -0.0794  0.3089 -0.9189
   39CHL1   H4A 2818   4.699   1.633   7.206  1.2475 -0.5692 -4.0312
   39CHL1   H4B 2819   4.662   1.463   7.251  1.8868 -1.9750  2.0725
   39CHL1    C5 2820   4.789   1.574   7.396 -0.1664 -0.8960  0.5005
   39CHL1    C6 2821   4.727   1.528   7.501  0.7460 -0.3934  0.4798
   39CHL1    H6 2822   4.638   1.465   7.488 -0.0290  0.7076  0.3224
   39CHL1    C7 2823   4.765   1.561   7.644 -0.2159 -0.6441 -0.3062
   39CHL1   H7A 2824   4.682   1.596   7.708  0.1872  2.5994 -1.3558
   39CHL1   H7B 2825   4.793   1.467   7.695 -2.0689 -0.8539  0.3710
   39CHL1    C8 2826   4.879   1.673   7.658  0.0161 -0.0056 -0.2673
   39CHL1    H8 2827   4.826   1.769   7.644  1.7038  0.9434 -0.4179
   39CHL1   C14 2828   4.948   1.664   7.794 -0.0324  0.0024 -0.4699
   39CHL1   H14 2829   4.995   1.564   7.789 -0.4590 -0.1468 -1.9644
   39CHL1   C15 2830   4.862   1.661   7.912 -0.3153  1.4670 -0.8567
   39CHL1  H15A 2831   4.789   1.744   7.923 -1.9341  0.1505 -1.2161
   39CHL1  H15B 2832   4.815   1.562   7.926  0.2758  1.5323  2.1610
   39CHL1   C16 2833   4.960   1.686   8.025  0.7906  0.5722 -0.0075
   39CHL1  H16A 2834   4.919   1.768   8.088 -1.3244 -0.2900 -0.1740
   39CHL1  H16B 2835   4.962   1.593   8.085 -0.0036  2.4273  3.1100
   39CHL1   C17 2836   5.089   1.724   7.962  0.5575  0.4284 -0.2999
   39CHL1   H17 2837   5.133   1.622   7.954  2.7408  1.2308  0.6719
   39CHL1   C13 2838   5.059   1.767   7.813 -0.5262  0.2821 -0.3415
   39CHL1   C18 2839   5.018   1.914   7.800  0.1773  0.0207  0.5388
   39CHL1  H18A 2840   4.954   1.930   7.711 -0.7172 -0.5920  1.0526
   39CHL1  H18B 2841   4.968   1.951   7.892  0.5898  0.3146  0.6491
   39CHL1  H18C 2842   5.110   1.975   7.788 -0.4813  0.5387 -2.8168
   39CHL1   C12 2843   5.171   1.738   7.706  0.1301  0.2002 -0.6132
   39CHL1  H12A 2844   5.254   1.809   7.722  0.8895 -0.7930 -0.0050
   39CHL1  H12B 2845   5.200   1.633   7.729 -1.2344 -0.0962 -0.1605
   39CHL1   C11 2846   5.103   1.741   7.562 -0.2307  0.8416  0.1580
   39CHL1  H11A 2847   5.081   1.847   7.536  2.1892  0.9218 -1.9412
   39CHL1  H11B 2848   5.179   1.725   7.483  0.4990  1.5210  0.7025
   39CHL1    C9 2849   4.981   1.651   7.543  0.4437  0.5722  0.3663
   39CHL1    H9 2850   5.020   1.549   7.562  2.0721  0.9133 -0.9128
   39CHL1   C10 2851   4.918   1.657   7.401  0.5481  1.5839  0.3882
   39CHL1   C19 2852   4.892   1.802   7.351 -0.4632  0.6433  0.3131
   39CHL1  H19A 2853   4.983   1.855   7.316 -1.5420  0.2371 -3.5815
   39CHL1  H19B 2854   4.832   1.806   7.258  1.2893 -1.7687 -1.0542
   39CHL1  H19C 2855   4.851   1.867   7.430 -2.4276  0.0683 -0.1925
   39CHL1    C1 2856   5.022   1.591   7.307  0.4165 -0.2721 -0.1706
   39CHL1   H1A 2857   5.105   1.665   7.308  0.0433  0.2816 -2.6433
   39CHL1   H1B 2858   5.071   1.502   7.353  0.2681  0.5664  1.6729
   39CHL1    C2 2859   4.969   1.574   7.163 -0.9084 -0.2869 -1.0972
   39CHL1   H2A 2860   5.052   1.531   7.103 -1.4478 -0.7835 -1.5005
   39CHL1   H2B 2861   4.948   1.672   7.117  2.7571 -0.0896 -2.6560
   39CHL1   C20 2862   5.185   1.800   8.052 -0.2044 -0.0549 -0.2786
   39CHL1   H20 2863   5.150   1.902   8.079 -0.0205 -0.1913  0.4924
   39CHL1   C21 2864   5.323   1.812   7.978 -0.0881  0.1296 -0.1199
   39CHL1  H21A 2865   5.405   1.837   8.048  0.0630  3.8550 -1.4481
   39CHL1  H21B 2866   5.325   1.893   7.903 -0.6874 -0.5234 -0.8594
   39CHL1  H21C 2867   5.326   1.715   7.923 -5.2409 -0.8082  0.7309
   39CHL1   C22 2868   5.204   1.744   8.197 -0.1381  0.7556  1.1842
   39CHL1  H22A 2869   5.104   1.734   8.245  0.2238  2.3665  2.3620
   39CHL1  H22B 2870   5.237   1.638   8.196 -1.6432  0.2576  0.0527
   39CHL1   C23 2871   5.298   1.830   8.294  0.1987 -0.1431  0.8785
   39CHL1  H23A 2872   5.401   1.805   8.261 -0.5372 -4.0288  1.0177
   39CHL1  H23B 2873   5.277   1.936   8.271  0.0751 -0.4365 -0.4152
   39CHL1   C24 2874   5.273   1.788   8.436 -0.3229 -0.2030 -0.6179
   39CHL1  H24A 2875   5.164   1.799   8.455 -0.3062  0.2214 -0.7546
   39CHL1  H24B 2876   5.294   1.679   8.447 -1.1028 -0.2441  0.5834
   39CHL1   C25 2877   5.362   1.875   8.537 -0.2465 -0.2452 -0.3240
   39CHL1   H25 2878   5.472   1.871   8.520 -0.1284  1.8561 -0.2234
   39CHL1   C26 2879   5.316   2.023   8.539 -0.0573  0.9185 -0.3649
   39CHL1  H26A 2880   5.209   2.040   8.564 -0.0027  2.4291 -1.0702
   39CHL1  H26B 2881   5.374   2.082   8.614  0.9750 -0.0582 -0.3754
   39CHL1  H26C 2882   5.333   2.072   8.441 -0.0767  1.0253 -0.3140
   39CHL1   C27 2883   5.346   1.810   8.674  0.0580  0.0224  0.1683
   39CHL1  H27A 2884   5.241   1.783   8.694 -0.5987  0.6618 -2.1067
   39CHL1  H27B 2885   5.407   1.717   8.674  0.8714  0.4948  2.4706
   39CHL1  H27C 2886   5.389   1.885   8.744 -1.7154  1.3908 -0.1406
   40CHL1    C3 2887   5.616   4.619   7.104  0.4557  0.3931  0.2813
   40CHL1    H3 2888   5.703   4.556   7.133  2.4459  2.1300 -1.6179
   40CHL1    O3 2889   5.582   4.606   6.966  0.1126  0.2442  0.4115
   40CHL1   H3' 2890   5.531   4.684   6.946  0.6565  1.4439  3.2516
   40CHL1    C4 2891   5.492   4.589   7.186 -0.3629  0.4960  0.0154
   40CHL1   H4A 2892   5.420   4.669   7.160 -1.1563 -0.4324 -0.7646
   40CHL1   H4B 2893   5.451   4.491   7.152 -1.6867  0.9920  0.1489
   40CHL1    C5 2894   5.520   4.597   7.332 -0.3532  0.1933 -1.0548
   40CHL1    C6 2895   5.496   4.498   7.416 -0.4194  0.2292 -0.0631
   40CHL1    H6 2896   5.457   4.406   7.371  1.7735 -0.0383 -1.5659
   40CHL1    C7 2897   5.520   4.503   7.564 -0.2134  0.4843 -0.2879
   40CHL1   H7A 2898   5.440   4.445   7.615  1.4158 -3.7085 -2.0044
   40CHL1   H7B 2899   5.602   4.428   7.577 -1.5093 -1.1226 -0.9677
   40CHL1    C8 2900   5.551   4.641   7.616 -0.7037 -0.1237  0.4970
   40CHL1    H8 2901   5.453   4.692   7.631 -0.8098 -0.1548 -0.0801
   40CHL1   C14 2902   5.610   4.632   7.758 -0.3016  0.3442  0.2284
   40CHL1   H14 2903   5.708   4.584   7.743 -0.7741 -0.1422 -1.5847
   40CHL1   C15 2904   5.544   4.534   7.858  0.1876  0.0928 -0.2021
   40CHL1  H15A 2905   5.434   4.534   7.843  0.0696 -0.5715  0.5776
   40CHL1  H15B 2906   5.585   4.433   7.836 -0.5546 -0.1935 -0.3192
   40CHL1   C16 2907   5.586   4.594   7.997 -0.1257  0.6173 -0.1434
   40CHL1  H16A 2908   5.499   4.623   8.059  1.1388  1.7084  1.1887
   40CHL1  H16B 2909   5.646   4.519   8.052  0.2114 -0.4296 -1.8531
   40CHL1   C17 2910   5.677   4.715   7.971 -0.0530 -0.2421 -0.2567
   40CHL1   H17 2911   5.780   4.678   7.954  0.5773  1.0865  0.4967
   40CHL1   C13 2912   5.627   4.769   7.836 -0.5295 -0.2761  0.6306
   40CHL1   C18 2913   5.493   4.843   7.845  0.6387  0.4838  0.3058
   40CHL1  H18A 2914   5.436   4.845   7.750  0.8630 -1.3415  0.0859
   40CHL1  H18B 2915   5.435   4.784   7.920  0.3240 -0.6069 -0.7587
   40CHL1  H18C 2916   5.513   4.947   7.879  2.0129  0.3351 -0.0089
   40CHL1   C12 2917   5.720   4.846   7.744 -0.2733 -0.4152  0.8074
   40CHL1  H12A 2918   5.714   4.954   7.770 -4.5174 -0.7844  1.9475
   40CHL1  H12B 2919   5.824   4.805   7.742  0.8305  2.1523 -1.2915
   40CHL1   C11 2920   5.669   4.858   7.597  0.1429  0.4906 -0.5970
   40CHL1  H11A 2921   5.582   4.926   7.586 -0.3104 -0.0066 -0.1248
   40CHL1  H11B 2922   5.759   4.900   7.546 -0.2690  0.5631 -1.2726
   40CHL1    C9 2923   5.638   4.726   7.528 -0.1489 -0.0959  0.3269
   40CHL1    H9 2924   5.734   4.671   7.520  0.2427  0.6130 -0.0589
   40CHL1   C10 2925   5.586   4.729   7.378  0.3630  0.7327  0.0431
   40CHL1   C19 2926   5.462   4.828   7.372 -0.6098  0.7045 -0.5183
   40CHL1  H19A 2927   5.428   4.836   7.267  0.0395 -1.7621 -0.9898
   40CHL1  H19B 2928   5.377   4.794   7.434 -0.6385 -0.0518 -0.9619
   40CHL1  H19C 2929   5.500   4.932   7.385  1.9369 -0.1179 -0.8055
   40CHL1    C1 2930   5.701   4.773   7.286  0.4130  0.7776 -0.6357
   40CHL1   H1A 2931   5.721   4.882   7.298 -0.2634  0.8418 -0.0819
   40CHL1   H1B 2932   5.787   4.704   7.303 -0.4345 -0.2138 -0.2768
   40CHL1    C2 2933   5.658   4.754   7.132 -0.8511 -1.3053  0.5925
   40CHL1   H2A 2934   5.747   4.797   7.083 -0.7595 -0.7150  1.2585
   40CHL1   H2B 2935   5.573   4.825   7.121 -0.1122  0.2850  3.8969
   40CHL1   C20 2936   5.673   4.816   8.090  0.1549 -0.1143 -0.1627
   40CHL1   H20 2937   5.570   4.856   8.107 -0.0636 -1.1887  1.1415
   40CHL1   C21 2938   5.763   4.927   8.049  0.1316 -0.6735  0.3981
   40CHL1  H21A 2939   5.722   4.992   7.969  1.1531  0.2176  0.5847
   40CHL1  H21B 2940   5.858   4.883   8.011 -1.0082 -2.5451 -0.4667
   40CHL1  H21C 2941   5.780   4.986   8.141 -2.3553  1.4210 -0.3700
   40CHL1   C22 2942   5.720   4.763   8.222  0.3088 -0.6056  0.0797
   40CHL1  H22A 2943   5.721   4.848   8.293  2.3804  2.6767 -3.4653
   40CHL1  H22B 2944   5.654   4.678   8.251  1.2103 -1.2375  0.3346
   40CHL1   C23 2945   5.871   4.705   8.227  0.6715 -0.8001  0.4664
   40CHL1  H23A 2946   5.875   4.639   8.137 -0.0144 -0.6428  0.3151
   40CHL1  H23B 2947   5.941   4.791   8.221  0.2984 -0.5004  0.3688
   40CHL1   C24 2948   5.890   4.624   8.356  0.7091  0.1214  0.2824
   40CHL1  H24A 2949   5.828   4.681   8.428  0.7725  2.0754 -1.1279
   40CHL1  H24B 2950   5.833   4.530   8.337 -1.0339  1.4646 -1.4923
   40CHL1   C25 2951   6.033   4.604   8.409  0.8258  0.2731 -0.1094
   40CHL1   H25 2952   6.040   4.537   8.497 -1.4348 -1.4922 -1.1592
   40CHL1   C26 2953   6.122   4.541   8.304 -0.5630 -0.6516  0.3593
   40CHL1  H26A 2954   6.127   4.597   8.208  1.0590 -2.4225 -0.6320
   40CHL1  H26B 2955   6.223   4.533   8.348 -1.2389  2.0051  2.7425
   40CHL1  H26C 2956   6.087   4.440   8.275  1.7134 -1.0061 -1.4457
   40CHL1   C27 2957   6.098   4.730   8.467  0.6628 -0.1839 -0.4392
   40CHL1  H27A 2958   6.196   4.710   8.516  1.4055 -0.3062 -1.9095
   40CHL1  H27B 2959   6.120   4.809   8.392  1.8320 -0.4750 -0.4226
   40CHL1  H27C 2960   6.039   4.787   8.542  2.3242 -1.3084  1.8206
   41CHL1    C3 2961   6.062   4.610   7.129 -0.1048 -0.0211  0.4854
   41CHL1    H3 2962   5.977   4.574   7.191 -0.6517  0.8262  0.2292
   41CHL1    O3 2963   6.031   4.574   6.994 -0.0379  0.1916 -0.6783
   41CHL1   H3' 2964   6.079   4.491   6.983  2.3750  1.1917  1.4526
   41CHL1    C4 2965   6.078   4.756   7.153 -0.0687  0.3827  0.6106
   41CHL1   H4A 2966   6.158   4.797   7.088  1.0235 -0.8077  1.1590
   41CHL1   H4B 2967   5.990   4.809   7.111  0.2329 -1.2969 -2.4024
   41CHL1    C5 2968   6.098   4.779   7.299 -0.3071  0.2174  0.6420
   41CHL1    C6 2969   6.018   4.853   7.382 -0.1079 -0.3088  0.0230
   41CHL1    H6 2970   5.921   4.892   7.349  0.3321  1.4032  0.6229
   41CHL1    C7 2971   6.050   4.888   7.523 -0.2910  0.5214  0.1099
   41CHL1   H7A 2972   6.034   4.993   7.556  1.5425  0.8567  0.0458
   41CHL1   H7B 2973   5.977   4.822   7.574 -1.8896  0.4741 -2.1141
   41CHL1    C8 2974   6.198   4.854   7.564 -0.5964  0.1375 -0.2093
   41CHL1    H8 2975   6.267   4.931   7.524  0.6748  0.9519  3.1851
   41CHL1   C14 2976   6.211   4.853   7.712  0.0033  0.0995 -0.5778
   41CHL1   H14 2977   6.147   4.773   7.755  0.2562 -0.2950 -0.9247
   41CHL1   C15 2978   6.180   4.990   7.788  0.1243  0.1611  0.2254
   41CHL1  H15A 2979   6.230   5.061   7.718  0.0910 -0.9918 -0.9962
   41CHL1  H15B 2980   6.070   5.009   7.794 -0.1357 -0.4298 -2.0343
   41CHL1   C16 2981   6.248   4.982   7.920  0.4750 -0.4040  0.4553
   41CHL1  H16A 2982   6.319   5.068   7.924  0.5554 -0.5156  1.6338
   41CHL1  H16B 2983   6.178   4.984   8.006 -0.3250 -0.7613 -0.1715
   41CHL1   C17 2984   6.319   4.847   7.923  0.0979  0.8009 -0.8411
   41CHL1   H17 2985   6.236   4.778   7.949  1.5387 -1.0323 -0.8552
   41CHL1   C13 2986   6.352   4.825   7.773  0.3963  0.3054  0.2822
   41CHL1   C18 2987   6.464   4.924   7.729  0.0122 -0.2065 -0.4166
   41CHL1  H18A 2988   6.565   4.894   7.765 -0.1975 -0.2825  0.1187
   41CHL1  H18B 2989   6.464   4.935   7.619  1.7762 -1.7307 -0.6277
   41CHL1  H18C 2990   6.446   5.027   7.764 -0.3274 -0.2063 -0.5880
   41CHL1   C12 2991   6.374   4.677   7.727 -0.7083 -0.4833  0.3971
   41CHL1  H12A 2992   6.477   4.665   7.767 -1.1050  0.0088  1.6309
   41CHL1  H12B 2993   6.306   4.612   7.787 -1.5512 -0.0201 -0.0517
   41CHL1   C11 2994   6.365   4.652   7.572 -0.3366 -0.3156  0.0245
   41CHL1  H11A 2995   6.458   4.703   7.539  1.9892 -3.4146  1.3616
   41CHL1  H11B 2996   6.377   4.545   7.549  1.1560 -0.0191 -0.6953
   41CHL1    C9 2997   6.235   4.720   7.506  0.4333 -0.0205 -0.1922
   41CHL1    H9 2998   6.153   4.651   7.536  0.3064  0.6542  1.0480
   41CHL1   C10 2999   6.224   4.718   7.353  0.6905 -0.3396  0.0497
   41CHL1   C19 3000   6.346   4.781   7.292 -0.5236  0.3816 -0.3895
   41CHL1  H19A 3001   6.434   4.732   7.339 -1.8020 -2.1667 -0.4807
   41CHL1  H19B 3002   6.354   4.777   7.181  0.3909  1.9952 -0.4180
   41CHL1  H19C 3003   6.358   4.886   7.326  0.7144  0.0863  0.1312
   41CHL1    C1 3004   6.219   4.565   7.317  0.5369 -0.3117 -0.1718
   41CHL1   H1A 3005   6.312   4.513   7.347 -0.4424 -2.9268 -1.2930
   41CHL1   H1B 3006   6.147   4.506   7.378  0.5610 -1.9419 -1.6235
   41CHL1    C2 3007   6.180   4.527   7.177 -0.1785  1.0126 -0.1433
   41CHL1   H2A 3008   6.167   4.416   7.175  0.8388  0.8858 -0.9052
   41CHL1   H2B 3009   6.270   4.556   7.118 -1.0052  2.0852 -0.9051
   41CHL1   C20 3010   6.434   4.856   8.025  0.6069 -0.0002 -0.2869
   41CHL1   H20 3011   6.500   4.940   7.994 -2.3923  2.7369  0.2666
   41CHL1   C21 3012   6.525   4.736   8.014 -0.1057 -0.6898  0.6676
   41CHL1  H21A 3013   6.464   4.643   8.010 -2.4571  0.8285 -2.0459
   41CHL1  H21B 3014   6.592   4.731   8.103  1.2223  3.5924  0.1359
   41CHL1  H21C 3015   6.593   4.736   7.926 -0.9141  0.7891  0.0019
   41CHL1   C22 3016   6.387   4.877   8.171  0.3372  0.6665 -0.2026
   41CHL1  H22A 3017   6.309   4.955   8.160 -1.8017 -1.0788  1.5175
   41CHL1  H22B 3018   6.323   4.794   8.208  2.8411 -1.7277 -0.9121
   41CHL1   C23 3019   6.501   4.901   8.272  0.2693  0.4276  0.2937
   41CHL1  H23A 3020   6.589   4.835   8.258 -2.5268 -3.2366 -1.8283
   41CHL1  H23B 3021   6.530   5.006   8.250 -0.1988  0.7529  1.1921
   41CHL1   C24 3022   6.446   4.886   8.417  0.3769 -0.9690  0.8969
   41CHL1  H24A 3023   6.372   4.967   8.431 -0.1789 -0.9513 -1.6036
   41CHL1  H24B 3024   6.412   4.781   8.428  1.0483 -1.3439 -0.3183
   41CHL1   C25 3025   6.560   4.899   8.518  0.0777 -1.0220 -0.3622
   41CHL1   H25 3026   6.635   4.822   8.488 -0.4136 -1.3288 -0.8268
   41CHL1   C26 3027   6.627   5.037   8.513 -0.3545  0.7090  0.0094
   41CHL1  H26A 3028   6.670   5.049   8.411 -0.6892 -1.9850 -0.5409
   41CHL1  H26B 3029   6.554   5.117   8.534 -1.0218 -0.2882  1.7124
   41CHL1  H26C 3030   6.703   5.044   8.593 -0.1105  3.3081 -0.3873
   41CHL1   C27 3031   6.521   4.879   8.672 -0.3565 -0.5160  0.5471
   41CHL1  H27A 3032   6.614   4.893   8.731 -0.5783 -2.2689  1.3932
   41CHL1  H27B 3033   6.430   4.939   8.691  0.5813  0.1115  3.6257
   41CHL1  H27C 3034   6.485   4.775   8.687 -0.4649 -0.4567  0.6947
   42CHL1    C3 3035   0.975   3.202   7.082  0.4033 -0.0504  0.2306
   42CHL1    H3 3036   0.938   3.109   7.131  0.7236 -0.7655 -0.8459
   42CHL1    O3 3037   0.952   3.193   6.940  0.3941 -0.9073  0.1617
   42CHL1   H3' 3038   1.028   3.158   6.894 -1.7117 -0.7161 -4.0172
   42CHL1    C4 3039   0.878   3.316   7.141  0.8370 -0.3033 -0.3266
   42CHL1   H4A 3040   0.917   3.405   7.087  3.1255 -1.6460 -1.0136
   42CHL1   H4B 3041   0.773   3.302   7.109  0.8255  1.4189 -1.1766
   42CHL1    C5 3042   0.891   3.321   7.289 -0.2212 -0.0372 -0.0664
   42CHL1    C6 3043   0.787   3.300   7.382 -0.1700 -0.1818  0.3069
   42CHL1    H6 3044   0.688   3.285   7.335 -0.6114  1.7873  0.5476
   42CHL1    C7 3045   0.797   3.307   7.527  0.2728 -0.1553 -0.4871
   42CHL1   H7A 3046   0.713   3.371   7.562  2.0770  1.3497  1.3927
   42CHL1   H7B 3047   0.783   3.207   7.572 -2.1017  0.4679  0.3354
   42CHL1    C8 3048   0.934   3.370   7.573 -0.2579  0.3188  0.1577
   42CHL1    H8 3049   0.923   3.478   7.550 -1.9535 -0.3493 -2.6151
   42CHL1   C14 3050   0.963   3.337   7.721 -0.1617  0.1181 -0.1741
   42CHL1   H14 3051   0.979   3.227   7.727  1.9800  0.4317  0.7404
   42CHL1   C15 3052   0.854   3.366   7.826  0.6336  0.3232 -0.5715
   42CHL1  H15A 3053   0.788   3.454   7.815 -0.4420 -0.4758 -0.6996
   42CHL1  H15B 3054   0.784   3.280   7.814  0.7964  0.2958 -1.3984
   42CHL1   C16 3055   0.934   3.372   7.957 -0.3954  0.0990  0.1311
   42CHL1  H16A 3056   0.908   3.469   8.005 -3.4147 -2.1701  3.6857
   42CHL1  H16B 3057   0.910   3.300   8.038  1.5167 -0.1144  0.5452
   42CHL1   C17 3058   1.084   3.356   7.929 -0.0041  0.9585 -0.0465
   42CHL1   H17 3059   1.108   3.247   7.936 -3.0432  0.0628 -1.5515
   42CHL1   C13 3060   1.093   3.387   7.780 -0.5118 -0.0312  0.0943
   42CHL1   C18 3061   1.107   3.542   7.769  0.5963  1.1066 -0.3167
   42CHL1  H18A 3062   1.025   3.587   7.828 -1.2739 -2.0313 -0.2843
   42CHL1  H18B 3063   1.214   3.568   7.788  0.8435 -1.0682  1.7136
   42CHL1  H18C 3064   1.091   3.575   7.664 -0.8943 -1.3602 -0.9411
   42CHL1   C12 3065   1.206   3.326   7.696 -0.0327 -0.4242  0.2560
   42CHL1  H12A 3066   1.300   3.370   7.735  0.4423  0.2733 -1.5687
   42CHL1  H12B 3067   1.205   3.217   7.716  3.7171 -0.8892 -1.2891
   42CHL1   C11 3068   1.192   3.346   7.544  0.2528  0.6080  0.1413
   42CHL1  H11A 3069   1.202   3.454   7.520 -0.2623  0.3057 -1.5831
   42CHL1  H11B 3070   1.276   3.291   7.496  0.6836  0.4786  1.0135
   42CHL1    C9 3071   1.052   3.309   7.488  0.7821  0.0077 -0.9248
   42CHL1    H9 3072   1.036   3.199   7.497  1.0002  0.1085  1.4229
   42CHL1   C10 3073   1.037   3.344   7.335  0.0098  0.6717  0.3551
   42CHL1   C19 3074   1.059   3.494   7.300 -0.3952 -0.0230  0.4469
   42CHL1  H19A 3075   0.993   3.563   7.356  1.2799  2.2013 -0.1845
   42CHL1  H19B 3076   1.164   3.524   7.320  0.2763 -1.9901  0.1074
   42CHL1  H19C 3077   1.042   3.523   7.193  0.5303 -1.8140 -0.2240
   42CHL1    C1 3078   1.139   3.251   7.266  0.8005 -0.1317 -0.0028
   42CHL1   H1A 3079   1.247   3.273   7.283  1.3648  1.3008 -4.1794
   42CHL1   H1B 3080   1.116   3.154   7.315 -0.6318  2.2647  4.6507
   42CHL1    C2 3081   1.123   3.236   7.113 -0.0015 -0.3922  0.0516
   42CHL1   H2A 3082   1.199   3.170   7.067  1.2443 -0.0898  1.5793
   42CHL1   H2B 3083   1.142   3.336   7.069 -1.4133 -0.6031 -1.1189
   42CHL1   C20 3084   1.179   3.426   8.033 -0.7654 -0.0843 -0.2226
   42CHL1   H20 3085   1.162   3.536   8.030 -0.8596 -0.1160 -1.3906
   42CHL1   C21 3086   1.327   3.405   8.009 -0.8903  0.1045  0.2304
   42CHL1  H21A 3087   1.389   3.433   8.097  1.2555  0.0280 -1.1887
   42CHL1  H21B 3088   1.370   3.479   7.939 -2.7175  1.1602  0.1682
   42CHL1  H21C 3089   1.353   3.301   7.979 -0.1671  0.5171 -0.5825
   42CHL1   C22 3090   1.143   3.389   8.180  0.2512 -0.3070  0.2140
   42CHL1  H22A 3091   1.220   3.450   8.231  0.8128  0.0814 -1.0535
   42CHL1  H22B 3092   1.047   3.441   8.202 -0.4584 -1.5124  0.0753
   42CHL1   C23 3093   1.149   3.243   8.218 -0.4713 -0.6596 -0.5378
   42CHL1  H23A 3094   1.139   3.188   8.122 -1.6152  1.7554 -1.9052
   42CHL1  H23B 3095   1.243   3.216   8.271 -2.7888 -0.9002  3.9297
   42CHL1   C24 3096   1.044   3.208   8.328 -0.6344 -0.5495 -0.3746
   42CHL1  H24A 3097   0.949   3.246   8.285 -0.1180  2.6255  1.0062
   42CHL1  H24B 3098   1.044   3.096   8.330  1.4920 -0.6018  1.1600
   42CHL1   C25 3099   1.065   3.274   8.452 -0.1573 -0.6466 -0.4787
   42CHL1   H25 3100   1.073   3.381   8.425  1.1805 -0.4671  0.5320
   42CHL1   C26 3101   0.944   3.266   8.548  0.0353 -0.2196  0.1807
   42CHL1  H26A 3102   0.850   3.297   8.498  0.4445  2.2409  0.8007
   42CHL1  H26B 3103   0.931   3.163   8.586 -0.2709  0.6427  2.5674
   42CHL1  H26C 3104   0.957   3.321   8.643 -1.8849 -0.4160  0.6042
   42CHL1   C27 3105   1.189   3.241   8.527 -0.1150 -0.5149 -0.3932
   42CHL1  H27A 3106   1.184   3.297   8.622 -0.2955 -0.2731 -0.5427
   42CHL1  H27B 3107   1.280   3.269   8.470  1.0725 -0.0590  1.6496
   42CHL1  H27C 3108   1.192   3.135   8.558 -0.2291 -0.0188  1.3861
   43CHL1    C3 3109   1.196   5.975   6.910 -0.1329  0.1967 -0.0977
   43CHL1    H3 3110   1.299   5.991   6.947  0.1522  2.1328 -1.5845
   43CHL1    O3 3111   1.206   5.992   6.766  0.2559  0.4948  0.2635
   43CHL1   H3' 3112   1.273   5.927   6.744 -0.1640  0.0012  0.4427
   43CHL1    C4 3113   1.127   5.841   6.942  0.2692 -0.5611 -0.1018
   43CHL1   H4A 3114   1.020   5.847   6.912  0.3111  0.8588 -0.0321
   43CHL1   H4B 3115   1.172   5.761   6.880 -0.0609 -0.2386 -0.7735
   43CHL1    C5 3116   1.125   5.803   7.094 -0.3663 -0.6368  0.0497
   43CHL1    C6 3117   1.185   5.693   7.144  1.2059  0.6925  0.5759
   43CHL1    H6 3118   1.228   5.616   7.077  0.3193 -0.0559  0.8463
   43CHL1    C7 3119   1.193   5.650   7.289 -0.7082 -0.4687  0.6709
   43CHL1   H7A 3120   1.162   5.544   7.301  1.9224 -1.4045 -0.1508
   43CHL1   H7B 3121   1.298   5.658   7.325 -0.5980  1.8082 -0.0124
   43CHL1    C8 3122   1.091   5.738   7.369 -0.7796 -0.6039 -0.0249
   43CHL1    H8 3123   0.985   5.708   7.352 -1.2622  1.3961 -0.7497
   43CHL1   C14 3124   1.118   5.726   7.516  0.3490  0.0791 -0.5257
   43CHL1   H14 3125   1.224   5.760   7.528  1.3944 -1.5667 -3.8656
   43CHL1   C15 3126   1.109   5.586   7.567  0.2454  0.3825  0.2885
   43CHL1  H15A 3127   1.012   5.537   7.541  0.8310 -0.0875 -1.0698
   43CHL1  H15B 3128   1.194   5.521   7.537 -0.8369 -2.1258  2.2759
   43CHL1   C16 3129   1.110   5.608   7.717  0.0580  0.5675  0.5499
   43CHL1  H16A 3130   1.015   5.559   7.747 -0.7734  1.1725 -0.9585
   43CHL1  H16B 3131   1.200   5.569   7.768  0.6404 -1.5754 -1.8621
   43CHL1   C17 3132   1.082   5.755   7.748  0.4268 -0.2048 -0.7958
   43CHL1   H17 3133   1.180   5.804   7.768 -0.4415  1.4976 -0.4817
   43CHL1   C13 3134   1.037   5.809   7.612 -0.0649 -0.3227  0.2664
   43CHL1   C18 3135   0.886   5.785   7.596 -0.5749 -0.2877  0.0007
   43CHL1  H18A 3136   0.824   5.840   7.670 -3.0748 -1.0312 -1.4043
   43CHL1  H18B 3137   0.857   5.809   7.491  0.1219 -0.9872 -0.3641
   43CHL1  H18C 3138   0.849   5.680   7.604  0.8208 -0.6772  2.1013
   43CHL1   C12 3139   1.071   5.956   7.577  0.2411 -0.4386 -0.2307
   43CHL1  H12A 3140   1.014   6.034   7.632  1.9461  1.1391 -0.5909
   43CHL1  H12B 3141   1.176   5.969   7.611 -0.0279  0.6237  0.2493
   43CHL1   C11 3142   1.044   5.992   7.424  0.2179  0.6470 -0.4108
   43CHL1  H11A 3143   0.934   5.993   7.414  0.0678 -0.4941  0.8903
   43CHL1  H11B 3144   1.072   6.099   7.414  0.5260  0.5959 -0.1252
   43CHL1    C9 3145   1.103   5.890   7.323  0.4570 -0.3249 -0.6806
   43CHL1    H9 3146   1.212   5.907   7.339  0.1613 -0.5860  2.0763
   43CHL1   C10 3147   1.061   5.917   7.173 -0.0029  0.7340 -0.3540
   43CHL1   C19 3148   0.914   5.908   7.155  0.1768 -0.1798  0.5594
   43CHL1  H19A 3149   0.880   6.009   7.185 -2.4351 -0.0928 -2.1680
   43CHL1  H19B 3150   0.886   5.897   7.047  0.0254  1.2348  0.4376
   43CHL1  H19C 3151   0.867   5.819   7.202 -0.5568  0.3750  0.8986
   43CHL1    C1 3152   1.112   6.053   7.122 -0.3898 -0.3461  0.1363
   43CHL1   H1A 3153   1.070   6.133   7.187  1.8190  0.5883  0.5235
   43CHL1   H1B 3154   1.221   6.058   7.146 -0.3017  1.0515 -0.4195
   43CHL1    C2 3155   1.114   6.081   6.970  0.7165  0.0278 -0.2018
   43CHL1   H2A 3156   1.160   6.180   6.952  1.9771 -0.7662 -1.5950
   43CHL1   H2B 3157   1.006   6.081   6.944  0.7119  2.6560 -0.4907
   43CHL1   C20 3158   1.010   5.787   7.884  0.3707 -0.2398  0.5098
   43CHL1   H20 3159   0.906   5.750   7.872  0.1975  0.7423 -1.4955
   43CHL1   C21 3160   1.000   5.940   7.905  0.9091 -0.4249 -0.0674
   43CHL1  H21A 3161   0.934   5.985   7.828 -1.2168 -1.4472  1.0982
   43CHL1  H21B 3162   1.101   5.985   7.915  0.4280  0.5741  0.4435
   43CHL1  H21C 3163   0.950   5.974   7.998  1.1101  0.3798 -0.2393
   43CHL1   C22 3164   1.076   5.719   8.003  0.0772  1.4898 -0.1243
   43CHL1  H22A 3165   1.084   5.609   7.987 -3.7317  1.2909 -1.6993
   43CHL1  H22B 3166   1.172   5.773   8.016  0.0680  1.2131  1.2342
   43CHL1   C23 3167   0.998   5.739   8.135 -0.3203 -0.6262 -0.3842
   43CHL1  H23A 3168   1.068   5.718   8.220  1.9237  3.3028 -1.0095
   43CHL1  H23B 3169   0.979   5.846   8.155 -2.1598 -0.7340 -1.4032
   43CHL1   C24 3170   0.865   5.659   8.153 -1.2870 -0.6537  0.0398
   43CHL1  H24A 3171   0.800   5.701   8.073  0.3116 -1.7273 -1.9237
   43CHL1  H24B 3172   0.875   5.549   8.148 -1.4290 -0.7865  1.8646
   43CHL1   C25 3173   0.791   5.683   8.289 -0.4157  0.5960  0.3292
   43CHL1   H25 3174   0.708   5.612   8.310 -2.4166  2.8934  0.6413
   43CHL1   C26 3175   0.875   5.646   8.412 -0.4774  0.2132  0.1164
   43CHL1  H26A 3176   0.890   5.536   8.410  2.8211  0.4656  3.1445
   43CHL1  H26B 3177   0.972   5.699   8.410 -0.9910  1.2109  0.8936
   43CHL1  H26C 3178   0.822   5.683   8.502 -1.2150  1.1952 -0.6851
   43CHL1   C27 3179   0.755   5.835   8.304 -0.3081  0.5042 -0.2338
   43CHL1  H27A 3180   0.689   5.856   8.217 -1.4034 -1.9375 -0.0561
   43CHL1  H27B 3181   0.700   5.862   8.396  0.4843 -0.2232  0.4687
   43CHL1  H27C 3182   0.843   5.903   8.295  0.2981 -0.0545  1.2461
   44CHL1    C3 3183   2.402   4.409   6.863 -0.5354 -0.0639  0.4986
   44CHL1    H3 3184   2.512   4.411   6.850 -0.4226  4.4384  0.6268
   44CHL1    O3 3185   2.340   4.444   6.732  0.0587  0.2593  0.1624
   44CHL1   H3' 3186   2.344   4.540   6.726  0.4028  0.2462  0.1667
   44CHL1    C4 3187   2.352   4.273   6.894 -0.5128  0.0041 -0.0943
   44CHL1   H4A 3188   2.246   4.262   6.864 -0.4272 -0.2495 -0.3168
   44CHL1   H4B 3189   2.413   4.208   6.826  1.8651  1.4035  0.5838
   44CHL1    C5 3190   2.372   4.236   7.041  0.3844 -0.1309  0.0089
   44CHL1    C6 3191   2.425   4.115   7.077  0.0362  0.5340 -0.2466
   44CHL1    H6 3192   2.471   4.045   7.005  0.1914  0.4460 -0.0619
   44CHL1    C7 3193   2.444   4.072   7.216 -0.1729 -0.3863 -0.2243
   44CHL1   H7A 3194   2.421   3.965   7.230 -2.9683  0.2487  0.8697
   44CHL1   H7B 3195   2.552   4.088   7.238 -0.5363 -0.1482  1.6084
   44CHL1    C8 3196   2.372   4.150   7.325  0.8865 -0.3668  0.0192
   44CHL1    H8 3197   2.265   4.123   7.313  0.8647 -1.1445  1.7595
   44CHL1   C14 3198   2.431   4.108   7.460  0.1645  0.4554  0.5280
   44CHL1   H14 3199   2.539   4.125   7.442 -0.3269  1.2572 -2.0902
   44CHL1   C15 3200   2.430   3.957   7.491  0.0393  0.1368 -0.1847
   44CHL1  H15A 3201   2.328   3.915   7.485 -0.5576  1.5106  0.0993
   44CHL1  H15B 3202   2.501   3.894   7.432  1.4160  0.3270  1.1976
   44CHL1   C16 3203   2.461   3.962   7.639  0.0835  0.6529  0.6206
   44CHL1  H16A 3204   2.385   3.905   7.696  2.0082 -0.1069  2.5557
   44CHL1  H16B 3205   2.562   3.924   7.661  0.7174 -0.0858 -2.9623
   44CHL1   C17 3206   2.460   4.115   7.692  0.2746 -0.1766 -0.0198
   44CHL1   H17 3207   2.562   4.158   7.702  1.3100 -2.0566 -1.7190
   44CHL1   C13 3208   2.382   4.178   7.580  0.3396 -0.7442 -0.8656
   44CHL1   C18 3209   2.228   4.164   7.608  0.2052 -0.3700 -0.5233
   44CHL1  H18A 3210   2.201   4.061   7.640  2.0009 -0.1237  2.1114
   44CHL1  H18B 3211   2.202   4.232   7.693  0.2408 -0.0154 -0.7959
   44CHL1  H18C 3212   2.168   4.185   7.517 -1.0603 -1.9896 -0.1233
   44CHL1   C12 3213   2.400   4.327   7.559  0.1057 -0.6024  0.0831
   44CHL1  H12A 3214   2.360   4.393   7.639 -1.8587 -1.2943 -0.2776
   44CHL1  H12B 3215   2.511   4.336   7.548  0.4033  0.1916  2.8366
   44CHL1   C11 3216   2.348   4.383   7.422  0.0899 -0.0538 -0.2852
   44CHL1  H11A 3217   2.237   4.383   7.415  0.1225  1.0606 -1.3340
   44CHL1  H11B 3218   2.389   4.486   7.426  3.7495 -1.2689 -1.6946
   44CHL1    C9 3219   2.392   4.298   7.297  0.1393 -0.1151 -0.1414
   44CHL1    H9 3220   2.502   4.311   7.284 -0.3447  2.4665 -2.7024
   44CHL1   C10 3221   2.337   4.340   7.155  0.2142  0.0436 -0.2481
   44CHL1   C19 3222   2.184   4.350   7.159 -0.0978 -0.7529  0.3008
   44CHL1  H19A 3223   2.161   4.437   7.225  1.4391  2.5067 -3.1182
   44CHL1  H19B 3224   2.134   4.375   7.063 -0.2599 -1.2183  0.2621
   44CHL1  H19C 3225   2.136   4.257   7.196 -0.8418 -0.5985 -0.2367
   44CHL1    C1 3226   2.396   4.477   7.106  0.7448  0.1103 -0.5311
   44CHL1   H1A 3227   2.384   4.552   7.187  2.0110 -1.9811  1.7062
   44CHL1   H1B 3228   2.506   4.462   7.101  0.8873  0.1064  1.7379
   44CHL1    C2 3229   2.363   4.517   6.962  0.2547  0.5517  1.0006
   44CHL1   H2A 3230   2.419   4.610   6.937  3.1904 -0.6315  2.7129
   44CHL1   H2B 3231   2.255   4.539   6.946  0.5943  0.1521 -2.6240
   44CHL1   C20 3232   2.400   4.122   7.835  0.3902  0.1766 -0.6585
   44CHL1   H20 3233   2.292   4.096   7.842  0.8092 -3.3492 -3.8921
   44CHL1   C21 3234   2.406   4.264   7.887 -0.0784 -0.1249 -0.6796
   44CHL1  H21A 3235   2.371   4.269   7.993  0.9224 -2.8619 -0.1440
   44CHL1  H21B 3236   2.345   4.340   7.834 -0.8226 -0.8862 -0.9326
   44CHL1  H21C 3237   2.514   4.292   7.891 -0.6851  2.3029  1.4603
   44CHL1   C22 3238   2.478   4.024   7.930 -0.4949 -0.4417  0.5723
   44CHL1  H22A 3239   2.464   3.920   7.892 -0.7153  0.2068 -1.2184
   44CHL1  H22B 3240   2.586   4.045   7.916 -0.6585 -0.6541 -1.2474
   44CHL1   C23 3241   2.437   4.039   8.078 -0.6471 -1.0856  0.2451
   44CHL1  H23A 3242   2.485   4.132   8.115 -1.5493 -0.4005 -0.2464
   44CHL1  H23B 3243   2.326   4.044   8.080 -0.6240  0.4366 -0.5290
   44CHL1   C24 3244   2.491   3.931   8.181  0.3544 -0.6592  0.7275
   44CHL1  H24A 3245   2.455   3.830   8.151  1.8425 -0.4018 -2.2378
   44CHL1  H24B 3246   2.599   3.930   8.158 -0.1877 -1.3826 -2.2759
   44CHL1   C25 3247   2.449   3.974   8.320  0.0490  0.3400 -0.3441
   44CHL1   H25 3248   2.478   4.081   8.330 -0.2756  0.2524  2.8760
   44CHL1   C26 3249   2.300   3.963   8.335  0.3386  0.2104 -0.7794
   44CHL1  H26A 3250   2.272   3.983   8.440 -0.1377 -0.2327 -0.8178
   44CHL1  H26B 3251   2.247   4.043   8.279  1.4250  0.6300 -1.2273
   44CHL1  H26C 3252   2.258   3.864   8.306  1.4086  0.0680 -1.9344
   44CHL1   C27 3253   2.514   3.893   8.438  0.1687  0.0918  0.1944
   44CHL1  H27A 3254   2.490   3.786   8.421  1.9212 -0.2339 -0.3947
   44CHL1  H27B 3255   2.620   3.885   8.406 -0.4220 -1.6797 -1.5736
   44CHL1  H27C 3256   2.501   3.929   8.542 -0.9663 -0.7810  0.3764
   45CHL1    C3 3257   5.067   1.916   6.769 -1.0176 -0.7673  0.0145
   45CHL1    H3 3258   4.964   1.949   6.793  0.0983  0.8342  3.3643
   45CHL1    O3 3259   5.086   1.860   6.640 -0.1380 -0.2202 -0.5402
   45CHL1   H3' 3260   5.174   1.823   6.641  0.5480  1.2472 -2.0194
   45CHL1    C4 3261   5.174   2.031   6.777 -0.1711  0.4806  0.3595
   45CHL1   H4A 3262   5.271   1.993   6.738 -0.7609 -0.7948  0.0953
   45CHL1   H4B 3263   5.142   2.112   6.708 -0.2127  0.9295  0.8987
   45CHL1    C5 3264   5.200   2.093   6.915  0.9882  0.3733  0.6917
   45CHL1    C6 3265   5.193   2.226   6.953 -0.0727  0.8030  0.2873
   45CHL1    H6 3266   5.172   2.300   6.874  0.9571  0.2433 -0.5288
   45CHL1    C7 3267   5.221   2.272   7.091 -0.2326 -0.8997 -0.5974
   45CHL1   H7A 3268   5.283   2.364   7.085 -1.1898 -0.2661 -1.1214
   45CHL1   H7B 3269   5.128   2.302   7.144  0.0158 -0.3589 -0.4683
   45CHL1    C8 3270   5.298   2.170   7.176  0.0356 -0.5032 -0.8306
   45CHL1    H8 3271   5.399   2.173   7.130 -0.4384  1.7913 -1.8165
   45CHL1   C14 3272   5.308   2.217   7.321  0.3566 -0.9079  0.2647
   45CHL1   H14 3273   5.201   2.201   7.345  0.1598  0.6707  0.5345
   45CHL1   C15 3274   5.344   2.363   7.354  0.5719 -0.1424 -0.0110
   45CHL1  H15A 3275   5.433   2.399   7.298 -0.1161  1.4447 -0.1393
   45CHL1  H15B 3276   5.260   2.433   7.333 -0.4010 -0.9180  1.2061
   45CHL1   C16 3277   5.376   2.364   7.502  0.3740  0.0098 -0.2743
   45CHL1  H16A 3278   5.473   2.413   7.528 -0.2655 -0.4584  3.4635
   45CHL1  H16B 3279   5.296   2.427   7.545 -0.2930  0.4303 -2.0549
   45CHL1   C17 3280   5.374   2.215   7.542  0.0397 -0.5498 -1.1091
   45CHL1   H17 3281   5.275   2.195   7.588  1.7828 -0.8133  3.0374
   45CHL1   C13 3282   5.390   2.124   7.418  0.3305 -0.6685  0.1188
   45CHL1   C18 3283   5.532   2.125   7.362  1.1098 -0.1124  0.5814
   45CHL1  H18A 3284   5.587   2.053   7.427 -0.3760 -1.8740 -0.0037
   45CHL1  H18B 3285   5.539   2.079   7.261 -2.1298 -1.1240  0.7076
   45CHL1  H18C 3286   5.579   2.225   7.370  2.2874 -0.4529 -1.5370
   45CHL1   C12 3287   5.320   1.986   7.420  0.1109 -0.5084 -0.7302
   45CHL1  H12A 3288   5.364   1.905   7.481 -1.2612 -1.0516 -0.4417
   45CHL1  H12B 3289   5.214   2.011   7.441  0.1718  0.4207 -1.4358
   45CHL1   C11 3290   5.312   1.929   7.276  0.1273 -0.1240  0.0433
   45CHL1  H11A 3291   5.418   1.906   7.254  0.3232  0.0295  0.7984
   45CHL1  H11B 3292   5.251   1.835   7.276 -0.9375  0.5451 -0.6071
   45CHL1    C9 3293   5.240   2.027   7.174  0.5944  0.4834  0.4167
   45CHL1    H9 3294   5.137   2.038   7.214 -0.1890  0.3005 -1.4642
   45CHL1   C10 3295   5.229   1.983   7.025 -0.1230  0.8097 -0.2210
   45CHL1   C19 3296   5.370   1.926   6.997  0.0018 -0.4967  0.0834
   45CHL1  H19A 3297   5.448   2.004   7.006  0.5305 -1.1203  0.9704
   45CHL1  H19B 3298   5.395   1.844   7.067  3.2746 -1.1117 -1.6186
   45CHL1  H19C 3299   5.376   1.900   6.889  2.4487  0.5730 -0.0964
   45CHL1    C1 3300   5.118   1.871   7.012 -0.2603  0.4376  0.0965
   45CHL1   H1A 3301   5.133   1.786   7.082 -0.1586  2.9740  3.3783
   45CHL1   H1B 3302   5.016   1.910   7.032 -0.2693  0.7279 -0.5044
   45CHL1    C2 3303   5.116   1.807   6.869  0.5666 -0.0654 -0.6304
   45CHL1   H2A 3304   5.060   1.712   6.856 -0.1228  0.4695 -1.6925
   45CHL1   H2B 3305   5.220   1.783   6.838  0.2795 -0.4210 -1.3251
   45CHL1   C20 3306   5.478   2.180   7.657 -0.9783 -0.2505  0.0876
   45CHL1   H20 3307   5.582   2.201   7.623 -0.1959 -0.2217  2.3117
   45CHL1   C21 3308   5.469   2.037   7.693 -0.4563 -0.3583 -0.2230
   45CHL1  H21A 3309   5.518   2.018   7.791 -0.4841 -2.1060 -0.5256
   45CHL1  H21B 3310   5.524   1.976   7.618 -0.5872  0.0022 -0.6197
   45CHL1  H21C 3311   5.363   2.007   7.706 -0.8390 -1.4890 -4.3567
   45CHL1   C22 3312   5.460   2.270   7.779  0.3084 -0.0589  0.2726
   45CHL1  H22A 3313   5.527   2.231   7.858  0.3685 -0.5750 -0.0296
   45CHL1  H22B 3314   5.492   2.373   7.752  0.5152 -0.6046 -1.7053
   45CHL1   C23 3315   5.316   2.263   7.844 -0.1873 -0.5903 -0.6812
   45CHL1  H23A 3316   5.249   2.321   7.777 -1.9981 -2.2426 -0.3790
   45CHL1  H23B 3317   5.279   2.159   7.835  1.1633 -1.1931  0.3378
   45CHL1   C24 3318   5.314   2.313   7.985 -0.0107  0.3556  0.6493
   45CHL1  H24A 3319   5.358   2.227   8.040  3.1537  1.0973 -0.5216
   45CHL1  H24B 3320   5.371   2.405   8.011  0.3399  1.1464 -2.4984
   45CHL1   C25 3321   5.172   2.339   8.030  0.4309  0.2146  0.1281
   45CHL1   H25 3322   5.131   2.421   7.968  0.5103 -0.0232 -0.2385
   45CHL1   C26 3323   5.086   2.211   8.003  1.1092 -0.1963  0.7179
   45CHL1  H26A 3324   5.142   2.119   8.028  1.2958 -1.0053 -2.2204
   45CHL1  H26B 3325   4.990   2.216   8.058 -0.0361 -2.6856 -0.8736
   45CHL1  H26C 3326   5.056   2.203   7.896  0.9258 -2.3226  0.8927
   45CHL1   C27 3327   5.153   2.373   8.180 -0.1095 -1.2576  0.6043
   45CHL1  H27A 3328   5.047   2.359   8.211 -0.2269 -0.8775  0.3794
   45CHL1  H27B 3329   5.221   2.311   8.243 -0.4158 -1.6309  0.5705
   45CHL1  H27C 3330   5.168   2.482   8.190 -0.0146 -0.9437 -2.1121
   46CHL1    C3 3331   2.988   4.514   7.121  0.1401  0.0216  0.6757
   46CHL1    H3 3332   2.955   4.411   7.098 -2.6261  0.7148  1.1079
   46CHL1    O3 3333   2.984   4.581   6.990  0.7047  0.2786 -0.6125
   46CHL1   H3' 3334   3.064   4.554   6.945 -0.5579 -1.1693 -2.0840
   46CHL1    C4 3335   2.895   4.586   7.219 -0.0969 -0.5575  0.1608
   46CHL1   H4A 3336   2.932   4.690   7.216  1.4382 -1.0944 -0.2167
   46CHL1   H4B 3337   2.789   4.588   7.186 -0.2303 -1.6379  0.4887
   46CHL1    C5 3338   2.909   4.520   7.360 -0.2276 -0.3953  0.5148
   46CHL1    C6 3339   2.799   4.466   7.415 -0.2192 -0.1562 -0.1694
   46CHL1    H6 3340   2.703   4.473   7.363 -0.9231  1.3290  1.2450
   46CHL1    C7 3341   2.803   4.399   7.554 -0.3236  0.1418  0.0061
   46CHL1   H7A 3342   2.713   4.402   7.619  0.0069  1.2477  0.4486
   46CHL1   H7B 3343   2.823   4.290   7.546  0.7355  0.2280  1.1044
   46CHL1    C8 3344   2.930   4.442   7.634 -0.0141  0.3761  0.0950
   46CHL1    H8 3345   2.915   4.547   7.667  2.6542  0.7098  0.5122
   46CHL1   C14 3346   2.945   4.347   7.756 -0.2605 -0.3229 -0.6484
   46CHL1   H14 3347   2.965   4.243   7.724  0.5087 -0.0769 -0.9940
   46CHL1   C15 3348   2.829   4.332   7.851 -0.1726 -0.2689 -0.7648
   46CHL1  H15A 3349   2.790   4.432   7.880  1.9718  1.0187 -2.0587
   46CHL1  H15B 3350   2.744   4.264   7.826 -1.8350  1.3935  0.0619
   46CHL1   C16 3351   2.894   4.295   7.986 -0.0785 -0.2360 -0.2289
   46CHL1  H16A 3352   2.854   4.350   8.074  0.5011 -1.4832  0.8547
   46CHL1  H16B 3353   2.873   4.189   8.012 -1.7022  0.0713 -0.1950
   46CHL1   C17 3354   3.049   4.302   7.964 -0.4348  0.0398  0.5145
   46CHL1   H17 3355   3.075   4.202   7.922  1.0781  1.4530 -2.2113
   46CHL1   C13 3356   3.067   4.395   7.841 -0.3498  0.5455 -0.0601
   46CHL1   C18 3357   3.061   4.546   7.895  0.2779  0.2410  0.8329
   46CHL1  H18A 3358   2.970   4.563   7.957 -0.0755 -2.3273  1.1088
   46CHL1  H18B 3359   3.157   4.563   7.950  0.2126  0.4221  0.8936
   46CHL1  H18C 3360   3.052   4.605   7.801 -1.9400  0.4349  1.1168
   46CHL1   C12 3361   3.195   4.370   7.754 -0.1912  1.0424  0.0809
   46CHL1  H12A 3362   3.285   4.392   7.816 -1.1448 -0.0296  1.9401
   46CHL1  H12B 3363   3.201   4.263   7.726 -1.4209  1.2072 -0.8913
   46CHL1   C11 3364   3.198   4.457   7.636  0.8128 -0.4438 -0.5457
   46CHL1  H11A 3365   3.209   4.564   7.665 -1.8548  0.6011 -2.9009
   46CHL1  H11B 3366   3.284   4.441   7.567  0.7432  0.3451 -0.8249
   46CHL1    C9 3367   3.062   4.441   7.551  0.8677  0.0409 -0.4095
   46CHL1    H9 3368   3.070   4.336   7.516  1.2501 -0.0944  0.0867
   46CHL1   C10 3369   3.054   4.520   7.415 -0.0585 -0.8091 -0.2213
   46CHL1   C19 3370   3.085   4.665   7.459 -0.5675 -0.0845 -0.1486
   46CHL1  H19A 3371   3.191   4.692   7.445 -1.0516  1.1366 -1.7553
   46CHL1  H19B 3372   3.041   4.751   7.405 -0.3163 -0.0513 -0.3017
   46CHL1  H19C 3373   3.060   4.690   7.564 -1.9450  0.3469 -0.5537
   46CHL1    C1 3374   3.142   4.456   7.320 -0.2918 -0.4317 -0.3148
   46CHL1   H1A 3375   3.245   4.475   7.359 -0.8847  4.2388 -0.4822
   46CHL1   H1B 3376   3.121   4.347   7.314  0.2422 -0.4800 -1.8171
   46CHL1    C2 3377   3.137   4.517   7.174  0.1015 -0.8211 -0.2523
   46CHL1   H2A 3378   3.195   4.447   7.109 -1.2526 -0.8434 -1.4907
   46CHL1   H2B 3379   3.178   4.620   7.169 -0.6250 -0.2230  3.4170
   46CHL1   C20 3380   3.126   4.320   8.097  0.2646 -0.6762 -0.1292
   46CHL1   H20 3381   3.116   4.428   8.121  1.5454 -0.9236  1.7713
   46CHL1   C21 3382   3.270   4.301   8.087 -0.4062 -0.1441 -0.0880
   46CHL1  H21A 3383   3.301   4.208   8.035 -0.1447 -0.2395  0.2321
   46CHL1  H21B 3384   3.313   4.313   8.189 -0.6515  0.1765 -0.0226
   46CHL1  H21C 3385   3.322   4.385   8.038  1.0391 -1.7219 -1.3872
   46CHL1   C22 3386   3.059   4.241   8.212  0.5607  0.8171  0.7613
   46CHL1  H22A 3387   2.949   4.258   8.208  0.3453  0.0650  2.6194
   46CHL1  H22B 3388   3.061   4.135   8.182 -0.7514  1.2125 -0.9075
   46CHL1   C23 3389   3.115   4.270   8.355  0.4034  0.4487  0.2476
   46CHL1  H23A 3390   3.223   4.248   8.364 -0.1501 -2.0715  1.6502
   46CHL1  H23B 3391   3.102   4.378   8.380 -0.8594  0.3445  0.0963
   46CHL1   C24 3392   3.034   4.193   8.465  0.8755  0.2100  0.2292
   46CHL1  H24A 3393   3.036   4.089   8.424 -0.7361  0.2248  0.0307
   46CHL1  H24B 3394   3.092   4.193   8.559 -1.4415 -2.9135  1.8502
   46CHL1   C25 3395   2.888   4.241   8.485 -0.8325  0.1978  0.5937
   46CHL1   H25 3396   2.844   4.251   8.383 -2.1215  0.8701  1.1962
   46CHL1   C26 3397   2.803   4.129   8.548  0.0478 -0.0592  0.0321
   46CHL1  H26A 3398   2.814   4.038   8.487 -0.0735  0.2278 -0.4232
   46CHL1  H26B 3399   2.851   4.102   8.644 -1.0124  1.7888  1.1585
   46CHL1  H26C 3400   2.694   4.152   8.556 -0.0944  0.5872 -2.6545
   46CHL1   C27 3401   2.871   4.379   8.561  0.2943 -0.3530  0.5758
   46CHL1  H27A 3402   2.858   4.375   8.671  1.7251  0.5655  0.8168
   46CHL1  H27B 3403   2.954   4.451   8.542  0.9184 -0.5072  2.4614
   46CHL1  H27C 3404   2.782   4.432   8.520  1.0144  0.5852  0.1787
   47CHL1    C3 3405   2.816   3.769   7.050  0.1991  0.0497  0.2489
   47CHL1    H3 3406   2.712   3.806   7.064 -0.0356  0.8871 -2.9574
   47CHL1    O3 3407   2.844   3.782   6.914  0.1874  0.2384  0.2304
   47CHL1   H3' 3408   2.903   3.710   6.889  0.1572  1.0011 -2.4099
   47CHL1    C4 3409   2.915   3.878   7.117  0.2721 -0.0206 -0.3564
   47CHL1   H4A 3410   3.016   3.859   7.076  0.2301  0.4633 -0.6851
   47CHL1   H4B 3411   2.890   3.978   7.078  2.4184  1.1754  1.0894
   47CHL1    C5 3412   2.909   3.870   7.269 -0.7022 -1.0127  0.3329
   47CHL1    C6 3413   2.875   3.975   7.343  0.3525 -0.1700  0.8487
   47CHL1    H6 3414   2.857   4.067   7.286  3.1672  0.4149  0.7358
   47CHL1    C7 3415   2.857   3.981   7.491  0.1546  0.8857  0.2893
   47CHL1   H7A 3416   2.888   4.077   7.538 -0.9766  0.4100  2.1196
   47CHL1   H7B 3417   2.748   3.992   7.508 -0.1714 -0.6436 -0.6584
   47CHL1    C8 3418   2.907   3.855   7.558  0.8177  0.0301 -0.3940
   47CHL1    H8 3419   3.018   3.855   7.552  0.8598  0.0067  0.3011
   47CHL1   C14 3420   2.861   3.840   7.706  0.4765  0.3986  0.3420
   47CHL1   H14 3421   2.751   3.838   7.698  0.5384  0.0120 -0.5130
   47CHL1   C15 3422   2.884   3.956   7.807 -0.0807  0.6190 -0.1730
   47CHL1  H15A 3423   2.991   3.983   7.790  0.6210 -2.3762 -1.1615
   47CHL1  H15B 3424   2.808   4.036   7.800  0.3402  1.2428  1.7344
   47CHL1   C16 3425   2.883   3.888   7.950  0.6330  0.5485  0.1656
   47CHL1  H16A 3426   2.974   3.916   8.008 -0.2142  1.5811  1.0443
   47CHL1  H16B 3427   2.792   3.917   8.006  1.2388  2.0010  0.4548
   47CHL1   C17 3428   2.874   3.733   7.917  0.4768  0.2238  0.3276
   47CHL1   H17 3429   2.765   3.717   7.911  0.4984 -0.1738  0.9639
   47CHL1   C13 3430   2.924   3.715   7.776 -0.4540 -0.6885 -0.6459
   47CHL1   C18 3431   3.083   3.722   7.792  0.5248 -0.1761 -0.2750
   47CHL1  H18A 3432   3.129   3.730   7.692 -0.6055  1.4298 -0.7126
   47CHL1  H18B 3433   3.115   3.812   7.849  1.8804 -1.0412  0.3834
   47CHL1  H18C 3434   3.116   3.631   7.846 -0.8943  0.1169  1.2074
   47CHL1   C12 3435   2.876   3.601   7.700 -0.1138  0.1268  0.3150
   47CHL1  H12A 3436   2.923   3.511   7.747 -1.5930  0.3879  2.4115
   47CHL1  H12B 3437   2.766   3.600   7.692 -0.0982  2.3711 -0.8712
   47CHL1   C11 3438   2.926   3.607   7.556  0.1701  0.1935 -0.0035
   47CHL1  H11A 3439   3.037   3.606   7.558  0.1774  0.1163 -0.2830
   47CHL1  H11B 3440   2.887   3.512   7.512  3.5782 -1.2497 -0.2549
   47CHL1    C9 3441   2.872   3.727   7.478 -0.0808  0.1858  0.6575
   47CHL1    H9 3442   2.761   3.734   7.478 -0.1596 -0.8563  1.3340
   47CHL1   C10 3443   2.921   3.728   7.328 -0.2795 -0.4537  0.2510
   47CHL1   C19 3444   3.065   3.682   7.327 -0.0799  0.4733  0.0364
   47CHL1  H19A 3445   3.120   3.688   7.231 -0.0447  1.4744  0.1113
   47CHL1  H19B 3446   3.133   3.742   7.392  1.7376 -1.4429  0.0077
   47CHL1  H19C 3447   3.075   3.576   7.360  1.2346  0.4594 -0.3534
   47CHL1    C1 3448   2.828   3.636   7.249  0.4974 -0.1617  0.0529
   47CHL1   H1A 3449   2.845   3.530   7.280  0.6796 -0.0178  0.4541
   47CHL1   H1B 3450   2.719   3.649   7.265  0.1132  1.6615 -3.3124
   47CHL1    C2 3451   2.846   3.632   7.099  0.4838 -0.8757 -0.0087
   47CHL1   H2A 3452   2.791   3.552   7.044  0.6031 -1.1145  0.2158
   47CHL1   H2B 3453   2.953   3.606   7.082  1.1179  1.0310  0.7702
   47CHL1   C20 3454   2.930   3.647   8.033 -0.3580  1.0522 -0.4840
   47CHL1   H20 3455   3.041   3.647   8.027 -0.4245  1.8010 -2.4494
   47CHL1   C21 3456   2.893   3.493   8.017  0.0414 -0.3346  1.0413
   47CHL1  H21A 3457   2.946   3.456   7.926  0.7154  0.9495  0.8817
   47CHL1  H21B 3458   2.785   3.473   8.003  0.3261 -0.2259 -2.1002
   47CHL1  H21C 3459   2.931   3.429   8.099  0.7096 -1.1591  0.1124
   47CHL1   C22 3460   2.888   3.689   8.175  0.2743 -0.3362 -0.1859
   47CHL1  H22A 3461   2.898   3.800   8.173 -0.8570 -0.1354  1.8525
   47CHL1  H22B 3462   2.784   3.659   8.199  0.0837 -0.1945 -0.8125
   47CHL1   C23 3463   2.971   3.636   8.293 -0.2364 -0.3489 -0.0257
   47CHL1  H23A 3464   2.952   3.529   8.317  1.5383 -0.4929  0.9512
   47CHL1  H23B 3465   3.080   3.651   8.279 -0.0365  0.9182  2.3149
   47CHL1   C24 3466   2.913   3.715   8.417 -0.9559  0.0890 -0.6415
   47CHL1  H24A 3467   2.928   3.822   8.393  2.2821 -0.1271 -0.0234
   47CHL1  H24B 3468   2.804   3.697   8.417 -0.9957  0.3414 -0.8521
   47CHL1   C25 3469   2.973   3.685   8.559 -0.9198 -0.6766  0.5451
   47CHL1   H25 3470   2.975   3.576   8.580 -2.6242 -0.8227  0.1191
   47CHL1   C26 3471   3.121   3.736   8.575 -0.1228 -0.2497 -0.0240
   47CHL1  H26A 3472   3.124   3.846   8.561 -1.8174 -0.1198  0.5216
   47CHL1  H26B 3473   3.161   3.707   8.674  2.1771 -0.1032 -0.8395
   47CHL1  H26C 3474   3.198   3.692   8.507  0.4225  0.8113 -0.1109
   47CHL1   C27 3475   2.886   3.754   8.670  0.1606  0.0936 -0.4053
   47CHL1  H27A 3476   2.784   3.711   8.658  0.1840 -0.8440  2.1752
   47CHL1  H27B 3477   2.931   3.735   8.770 -0.9601  1.6175  0.4392
   47CHL1  H27C 3478   2.884   3.862   8.646  1.6385  0.0341 -0.9102
   48CHL1    C3 3479   0.174   1.052   6.436 -0.3221  0.9739 -0.2913
   48CHL1    H3 3480   0.117   1.141   6.472 -3.6684 -0.8425 -0.6375
   48CHL1    O3 3481   0.159   1.035   6.297 -0.3928  0.5336  0.3122
   48CHL1   H3' 3482   0.229   0.972   6.276 -1.3836 -1.5875  2.7982
   48CHL1    C4 3483   0.325   1.078   6.467  0.2683  0.2916  0.6186
   48CHL1   H4A 3484   0.386   0.998   6.419  0.2213  0.7122 -0.1475
   48CHL1   H4B 3485   0.357   1.171   6.415  2.6283 -1.1568 -0.7056
   48CHL1    C5 3486   0.332   1.078   6.614 -0.0600 -0.5859 -0.2453
   48CHL1    C6 3487   0.367   1.193   6.674  0.0225  0.5732  0.3398
   48CHL1    H6 3488   0.393   1.273   6.604 -0.9229 -1.3808 -2.3952
   48CHL1    C7 3489   0.395   1.226   6.818  0.0247  0.6163 -0.0560
   48CHL1   H7A 3490   0.472   1.301   6.844 -1.0696  1.3073  1.3705
   48CHL1   H7B 3491   0.306   1.268   6.869  0.8768  1.2536  0.9369
   48CHL1    C8 3492   0.424   1.086   6.893 -0.1671  0.2763  0.6911
   48CHL1    H8 3493   0.521   1.044   6.860 -0.2551 -1.9295  2.9173
   48CHL1   C14 3494   0.417   1.106   7.043 -0.3682 -1.0194  0.1447
   48CHL1   H14 3495   0.312   1.132   7.069  0.2284  0.3793  1.3562
   48CHL1   C15 3496   0.506   1.200   7.121  0.0496 -0.5005 -0.1642
   48CHL1  H15A 3497   0.610   1.210   7.082 -0.1021  0.4564 -0.3611
   48CHL1  H15B 3498   0.475   1.307   7.113  2.8152  0.4490  0.5534
   48CHL1   C16 3499   0.498   1.159   7.269  0.2817 -0.2857 -0.6172
   48CHL1  H16A 3500   0.598   1.154   7.318 -0.8081  0.0951  1.7988
   48CHL1  H16B 3501   0.434   1.220   7.336  2.2035  3.2625 -1.7981
   48CHL1   C17 3502   0.429   1.021   7.276  0.2048  0.4828  0.1898
   48CHL1   H17 3503   0.324   1.031   7.309  0.8312  2.0501  1.8953
   48CHL1   C13 3504   0.438   0.977   7.125  0.3187  0.3939  0.3312
   48CHL1   C18 3505   0.580   0.921   7.098 -0.3057 -0.4737  0.0985
   48CHL1  H18A 3506   0.591   0.900   6.990 -0.7478  0.5665 -0.1572
   48CHL1  H18B 3507   0.663   0.989   7.127 -1.5972  1.5705 -0.7825
   48CHL1  H18C 3508   0.588   0.828   7.159 -0.8648  0.4895  1.6869
   48CHL1   C12 3509   0.323   0.881   7.088 -0.1339 -1.0448  0.8086
   48CHL1  H12A 3510   0.336   0.781   7.135 -0.6397 -2.4595 -1.8630
   48CHL1  H12B 3511   0.224   0.915   7.124 -0.6199 -0.1885 -1.1739
   48CHL1   C11 3512   0.316   0.857   6.936  0.1466  0.3235 -0.5330
   48CHL1  H11A 3513   0.395   0.783   6.911 -1.8354 -1.6130 -1.3860
   48CHL1  H11B 3514   0.226   0.797   6.909 -0.6072  0.9439  0.5241
   48CHL1    C9 3515   0.310   0.982   6.851 -0.4402 -0.0556 -0.1422
   48CHL1    H9 3516   0.212   1.025   6.881 -1.3497 -2.1104 -0.0281
   48CHL1   C10 3517   0.301   0.952   6.695 -0.3211  0.1228  0.3496
   48CHL1   C19 3518   0.409   0.854   6.652  0.1254  1.1411 -0.3853
   48CHL1  H19A 3519   0.505   0.899   6.684  0.6375 -0.0405 -0.2260
   48CHL1  H19B 3520   0.404   0.761   6.712 -1.2808  0.7832 -1.0130
   48CHL1  H19C 3521   0.414   0.833   6.543  0.8155 -1.2772  0.0507
   48CHL1    C1 3522   0.160   0.905   6.654  0.0162  0.0343  0.0976
   48CHL1   H1A 3523   0.147   0.799   6.685 -1.5963 -0.3879 -1.7710
   48CHL1   H1B 3524   0.084   0.960   6.713  0.7181  0.7646  0.3273
   48CHL1    C2 3525   0.122   0.924   6.503  0.1439  0.8172 -0.6178
   48CHL1   H2A 3526   0.013   0.913   6.487  0.2190 -0.1229 -0.5432
   48CHL1   H2B 3527   0.174   0.839   6.454  0.7011 -0.0505  1.3689
   48CHL1   C20 3528   0.498   0.937   7.389  0.2572  0.5533  1.0117
   48CHL1   H20 3529   0.606   0.922   7.370  0.6710 -1.8619  4.3736
   48CHL1   C21 3530   0.433   0.794   7.393 -0.8870 -0.0589  0.6297
   48CHL1  H21A 3531   0.322   0.801   7.386 -0.9257 -0.6994  0.5401
   48CHL1  H21B 3532   0.476   0.724   7.468  0.8881 -1.5615 -1.6469
   48CHL1  H21C 3533   0.465   0.738   7.302  2.2733  0.6213  1.1975
   48CHL1   C22 3534   0.498   1.004   7.526 -0.1414  0.1390 -0.6041
   48CHL1  H22A 3535   0.549   0.933   7.595  0.6734  1.6928  0.4669
   48CHL1  H22B 3536   0.570   1.089   7.528 -0.1242  0.1219 -0.4418
   48CHL1   C23 3537   0.365   1.043   7.590 -0.3174 -0.1326  0.0713
   48CHL1  H23A 3538   0.322   1.122   7.525 -1.5703 -1.3281 -0.5944
   48CHL1  H23B 3539   0.289   0.962   7.587  1.0047 -1.3796 -1.3538
   48CHL1   C24 3540   0.380   1.103   7.728 -0.3972 -0.0081  0.4353
   48CHL1  H24A 3541   0.466   1.174   7.723  0.4398 -1.0908 -1.5925
   48CHL1  H24B 3542   0.291   1.162   7.759 -1.2507 -0.9003 -0.2422
   48CHL1   C25 3543   0.426   1.007   7.842 -0.1858 -0.0465  0.1574
   48CHL1   H25 3544   0.509   0.942   7.805 -0.8944 -0.5846 -0.5307
   48CHL1   C26 3545   0.471   1.081   7.960  0.2426 -0.0980  0.3844
   48CHL1  H26A 3546   0.387   1.124   8.020  1.1916  0.4847  1.3307
   48CHL1  H26B 3547   0.517   1.012   8.034 -1.3901  0.1748  1.7329
   48CHL1  H26C 3548   0.538   1.168   7.946  0.8636  0.1408  3.9324
   48CHL1   C27 3549   0.318   0.914   7.883  0.0933  0.1307 -0.1491
   48CHL1  H27A 3550   0.297   0.838   7.804 -1.1253 -0.7464  0.9815
   48CHL1  H27B 3551   0.344   0.848   7.969 -0.4006  1.3713  0.9863
   48CHL1  H27C 3552   0.219   0.956   7.908 -0.9791 -1.1622 -1.9802
   49CHL1    C3 3553   6.071   0.850   6.859 -0.3238  0.0296 -0.3322
   49CHL1    H3 3554   6.153   0.924   6.848  0.4405 -0.8611 -0.7078
   49CHL1    O3 3555   6.045   0.800   6.731 -0.2120  0.3736  0.7529
   49CHL1   H3' 3556   6.026   0.883   6.686  0.2180  1.6544  2.7746
   49CHL1    C4 3557   6.133   0.742   6.944 -0.1011 -0.6440  0.5273
   49CHL1   H4A 3558   6.060   0.658   6.952  0.6304 -1.2065  1.5554
   49CHL1   H4B 3559   6.225   0.694   6.904 -0.5192  0.0087 -1.3115
   49CHL1    C5 3560   6.160   0.801   7.078 -0.4022  0.0820  0.2062
   49CHL1    C6 3561   6.287   0.806   7.133  0.8173 -0.6698  0.6053
   49CHL1    H6 3562   6.368   0.774   7.065 -0.6713  0.9801 -2.1367
   49CHL1    C7 3563   6.316   0.860   7.267  0.4139  0.6451  0.3726
   49CHL1   H7A 3564   6.385   0.787   7.314 -1.9819 -1.7563  0.4111
   49CHL1   H7B 3565   6.355   0.963   7.279  1.0602  0.1161  3.5763
   49CHL1    C8 3566   6.195   0.855   7.359 -0.4552 -0.4281 -0.8916
   49CHL1    H8 3567   6.176   0.746   7.371  1.2881 -0.5136  1.8233
   49CHL1   C14 3568   6.224   0.921   7.486  0.3575 -0.3491 -0.5836
   49CHL1   H14 3569   6.247   1.028   7.467 -1.3179 -0.1649 -1.7559
   49CHL1   C15 3570   6.347   0.873   7.569 -0.4268  0.0037 -0.0239
   49CHL1  H15A 3571   6.354   0.763   7.549 -0.3008  0.2667 -1.5750
   49CHL1  H15B 3572   6.439   0.919   7.527 -0.6366 -1.2263 -2.0167
   49CHL1   C16 3573   6.320   0.902   7.717  0.4226  0.6235  0.9510
   49CHL1  H16A 3574   6.314   0.804   7.771  1.8031 -0.6325 -1.0235
   49CHL1  H16B 3575   6.396   0.967   7.765 -0.2268  1.3214  1.0510
   49CHL1   C17 3576   6.178   0.972   7.717 -0.3614 -0.0049 -0.2500
   49CHL1   H17 3577   6.190   1.080   7.696 -2.2666  0.1439 -0.7641
   49CHL1   C13 3578   6.105   0.926   7.592 -0.0870 -0.9687 -0.0902
   49CHL1   C18 3579   6.044   0.788   7.600 -0.5165  0.8584 -0.1750
   49CHL1  H18A 3580   5.988   0.758   7.508  3.4610 -0.3220 -2.4812
   49CHL1  H18B 3581   6.133   0.723   7.614 -0.9168  0.5446  0.9429
   49CHL1  H18C 3582   5.973   0.792   7.686 -0.0606 -0.5849  0.3044
   49CHL1   C12 3583   6.006   1.028   7.527  0.2320  0.1441  0.6608
   49CHL1  H12A 3584   5.911   1.057   7.576 -0.0457 -0.1810  0.3164
   49CHL1  H12B 3585   6.058   1.125   7.510 -1.7848  1.0606 -0.6976
   49CHL1   C11 3586   5.958   0.981   7.378 -0.1325  0.0439 -0.2814
   49CHL1  H11A 3587   5.885   0.898   7.393 -0.4308  0.5086  1.0435
   49CHL1  H11B 3588   5.915   1.070   7.327 -0.0414  0.2842  0.0592
   49CHL1    C9 3589   6.079   0.936   7.287  1.2920  0.4601 -0.2290
   49CHL1    H9 3590   6.131   1.027   7.251 -0.2781  1.4895 -0.0162
   49CHL1   C10 3591   6.041   0.854   7.157 -0.1517  0.5258 -0.2728
   49CHL1   C19 3592   5.944   0.740   7.192  0.5036 -0.4652 -0.3319
   49CHL1  H19A 3593   5.903   0.685   7.105  1.1992 -1.8329  0.1752
   49CHL1  H19B 3594   5.981   0.670   7.270 -1.9672 -2.2674 -0.6441
   49CHL1  H19C 3595   5.856   0.798   7.226  1.5219  0.0152  1.6269
   49CHL1    C1 3596   5.970   0.964   7.065  0.7325  0.5614  0.5605
   49CHL1   H1A 3597   5.877   0.999   7.114 -2.1196 -1.3556 -2.9901
   49CHL1   H1B 3598   6.045   1.045   7.052  1.1209  0.1798  0.4219
   49CHL1    C2 3599   5.939   0.910   6.918  0.6384  0.6921 -0.2643
   49CHL1   H2A 3600   5.912   0.998   6.855 -0.2426  1.1396  0.7086
   49CHL1   H2B 3601   5.849   0.846   6.915  1.8508 -1.0782 -0.5409
   49CHL1   C20 3602   6.115   0.948   7.857 -0.2436 -0.3627 -0.0799
   49CHL1   H20 3603   6.098   0.840   7.875 -2.6248  0.3852  3.0593
   49CHL1   C21 3604   5.969   1.007   7.846  0.0761  0.4818 -0.6571
   49CHL1  H21A 3605   5.916   1.009   7.944 -0.6143  1.0053 -1.0314
   49CHL1  H21B 3606   5.906   0.952   7.774 -3.4977  1.1057  1.7128
   49CHL1  H21C 3607   5.974   1.108   7.800 -0.3020  1.4965  1.3945
   49CHL1   C22 3608   6.188   1.007   7.985 -0.9116 -0.0151 -0.6611
   49CHL1  H22A 3609   6.281   0.948   7.999 -0.2742  1.2962  1.0021
   49CHL1  H22B 3610   6.235   1.104   7.959 -1.0272  0.7060  1.5512
   49CHL1   C23 3611   6.121   1.000   8.125 -0.5563  0.2934 -0.5420
   49CHL1  H23A 3612   6.036   1.072   8.129 -1.3278 -0.4074 -2.9889
   49CHL1  H23B 3613   6.069   0.903   8.140 -0.1247  0.1594  0.1483
   49CHL1   C24 3614   6.221   1.004   8.236 -0.3121 -1.1957  0.1527
   49CHL1  H24A 3615   6.301   0.927   8.246  0.6375 -0.0346  2.1265
   49CHL1  H24B 3616   6.284   1.095   8.231  1.2549 -2.3002 -1.5331
   49CHL1   C25 3617   6.159   1.002   8.379  0.4429 -0.2705 -0.0032
   49CHL1   H25 3618   6.233   1.050   8.446 -0.8055  0.7985  0.6482
   49CHL1   C26 3619   6.026   1.083   8.388 -0.4039 -0.5929  0.8820
   49CHL1  H26A 3620   6.052   1.188   8.361 -1.9492 -0.9208 -2.4282
   49CHL1  H26B 3621   5.952   1.030   8.324  0.8167 -2.4633  0.9190
   49CHL1  H26C 3622   5.992   1.083   8.494  0.4330  1.4480  1.1977
   49CHL1   C27 3623   6.135   0.856   8.412  0.0839 -0.3414 -0.4992
   49CHL1  H27A 3624   6.069   0.835   8.499 -0.0402  0.8481 -0.2896
   49CHL1  H27B 3625   6.094   0.811   8.319 -0.0819  1.5760 -1.4138
   49CHL1  H27C 3626   6.230   0.805   8.438  1.0056  1.2921 -0.4837
   50CHL1    C3 3627   6.319   2.166   6.892 -0.1693  0.7822 -0.3993
   50CHL1    H3 3628   6.224   2.222   6.881 -0.5197  0.1562 -0.6463
   50CHL1    O3 3629   6.364   2.140   6.759 -0.0056  0.4804  0.3599
   50CHL1   H3' 3630   6.452   2.102   6.757 -0.6531 -1.0613 -0.4905
   50CHL1    C4 3631   6.430   2.251   6.963 -0.1848 -0.4401 -0.2069
   50CHL1   H4A 3632   6.528   2.205   6.938 -0.9767 -1.8650 -0.7660
   50CHL1   H4B 3633   6.435   2.347   6.907  0.1233 -0.7116 -0.6585
   50CHL1    C5 3634   6.413   2.257   7.112  0.5521  0.0083 -0.2910
   50CHL1    C6 3635   6.405   2.371   7.181  0.2522  0.1990  0.3864
   50CHL1    H6 3636   6.404   2.466   7.125  0.1177  0.3138  0.5840
   50CHL1    C7 3637   6.376   2.379   7.327  0.3867  0.4128  0.4981
   50CHL1   H7A 3638   6.444   2.458   7.367 -0.7589  0.6527  2.0788
   50CHL1   H7B 3639   6.271   2.415   7.336  0.1636  0.2454 -1.1253
   50CHL1    C8 3640   6.400   2.247   7.406 -0.3125 -0.5152  0.2012
   50CHL1    H8 3641   6.509   2.227   7.401 -0.0299  0.6016  1.3207
   50CHL1   C14 3642   6.354   2.262   7.546  0.3657 -0.6065  0.0383
   50CHL1   H14 3643   6.244   2.277   7.533  0.6743 -0.1734 -2.5100
   50CHL1   C15 3644   6.409   2.386   7.628 -0.4327  0.2737  0.1210
   50CHL1  H15A 3645   6.517   2.408   7.616  0.0856 -0.5915  2.5476
   50CHL1  H15B 3646   6.350   2.477   7.604 -1.2346 -0.6152 -1.4421
   50CHL1   C16 3647   6.373   2.337   7.765 -0.2013  0.4294  0.5556
   50CHL1  H16A 3648   6.468   2.319   7.820 -0.6004 -1.7742  0.5833
   50CHL1  H16B 3649   6.310   2.412   7.817 -0.0845  0.5698  0.4958
   50CHL1   C17 3650   6.311   2.192   7.761 -0.0419 -0.0368  0.2574
   50CHL1   H17 3651   6.202   2.201   7.742 -0.5309 -2.5355  1.4587
   50CHL1   C13 3652   6.376   2.137   7.635 -0.3677  0.4666 -0.1888
   50CHL1   C18 3653   6.529   2.104   7.650  0.0196 -0.3899  0.2186
   50CHL1  H18A 3654   6.583   2.145   7.738 -1.6687  0.8527  0.7195
   50CHL1  H18B 3655   6.537   1.995   7.673  1.6660 -0.3561 -0.1110
   50CHL1  H18C 3656   6.586   2.108   7.555 -1.4570 -3.6328 -0.9542
   50CHL1   C12 3657   6.299   2.022   7.563 -0.3421  0.6383  0.3286
   50CHL1  H12A 3658   6.319   1.928   7.619 -0.3459  2.0259  2.8370
   50CHL1  H12B 3659   6.192   2.051   7.568 -0.6635 -0.1389 -1.4116
   50CHL1   C11 3660   6.344   2.007   7.419 -0.4632 -0.0507  0.0444
   50CHL1  H11A 3661   6.451   1.977   7.421 -0.5236 -0.4059 -1.1452
   50CHL1  H11B 3662   6.284   1.920   7.385 -1.6418  0.4781  0.7058
   50CHL1    C9 3663   6.331   2.131   7.333  0.7026  0.1462 -0.5485
   50CHL1    H9 3664   6.223   2.155   7.336  0.8916  1.1711 -1.3446
   50CHL1   C10 3665   6.384   2.120   7.186  0.2573  0.0172 -0.2966
   50CHL1   C19 3666   6.522   2.037   7.189  0.3270  0.4767  0.0501
   50CHL1  H19A 3667   6.557   2.014   7.086 -0.0329  1.7375 -0.3780
   50CHL1  H19B 3668   6.600   2.102   7.234  0.6536 -0.9581  1.6697
   50CHL1  H19C 3669   6.506   1.938   7.237 -2.3473  0.6557 -0.3173
   50CHL1    C1 3670   6.275   2.041   7.113  0.2658  0.2571  0.9176
   50CHL1   H1A 3671   6.277   1.938   7.155  1.0823 -0.1513 -0.0700
   50CHL1   H1B 3672   6.177   2.092   7.125 -1.8580 -2.0579 -3.8079
   50CHL1    C2 3673   6.300   2.036   6.961  0.3832  0.3343 -0.4609
   50CHL1   H2A 3674   6.230   1.982   6.895  0.4434 -0.8919  0.4434
   50CHL1   H2B 3675   6.392   1.978   6.941 -0.1588 -1.6207  2.1904
   50CHL1   C20 3676   6.325   2.112   7.897 -0.0635  0.1217 -0.1881
   50CHL1   H20 3677   6.432   2.081   7.904  0.0475  0.7791  1.3213
   50CHL1   C21 3678   6.227   1.990   7.887 -0.2442 -0.5421 -0.8874
   50CHL1  H21A 3679   6.123   2.018   7.859 -0.7931  0.3335  1.7612
   50CHL1  H21B 3680   6.216   1.944   7.987  0.7479 -1.6793 -1.2813
   50CHL1  H21C 3681   6.264   1.906   7.824 -0.0970 -2.8741  2.1060
   50CHL1   C22 3682   6.287   2.199   8.018  0.0281  0.1560 -0.4134
   50CHL1  H22A 3683   6.360   2.282   8.022 -0.2899  0.3967  0.6166
   50CHL1  H22B 3684   6.183   2.231   7.997 -0.4444 -1.5615 -0.8864
   50CHL1   C23 3685   6.302   2.125   8.145  0.5314 -0.4487  0.2814
   50CHL1  H23A 3686   6.234   2.039   8.167 -0.4715  0.7423  2.1040
   50CHL1  H23B 3687   6.405   2.085   8.151  0.4986 -0.3542  2.3960
   50CHL1   C24 3688   6.270   2.224   8.257  0.0188 -0.5890  0.1656
   50CHL1  H24A 3689   6.332   2.316   8.253 -0.2697 -0.3307  1.2237
   50CHL1  H24B 3690   6.162   2.249   8.244  0.2006  0.2658  0.2182
   50CHL1   C25 3691   6.277   2.157   8.393 -0.4223 -0.2227 -0.2143
   50CHL1   H25 3692   6.362   2.085   8.396  0.8477  1.2777  1.1142
   50CHL1   C26 3693   6.298   2.254   8.511 -0.7226  0.3434 -0.3245
   50CHL1  H26A 3694   6.225   2.337   8.501 -2.3554 -0.9913  0.1085
   50CHL1  H26B 3695   6.286   2.200   8.607  0.0084 -0.9340 -0.9118
   50CHL1  H26C 3696   6.401   2.294   8.512 -0.5691  0.0708 -1.9853
   50CHL1   C27 3697   6.148   2.071   8.424  0.2148  0.6375 -0.6810
   50CHL1  H27A 3698   6.137   1.979   8.363  2.4585  0.5337 -1.0097
   50CHL1  H27B 3699   6.130   2.057   8.533 -0.8864  2.4578 -0.5911
   50CHL1  H27C 3700   6.054   2.126   8.403  0.4588  1.1993 -0.3328
   51CHL1    C3 3701   4.939   2.564   6.927 -0.3076 -0.5540  0.0711
   51CHL1    H3 3702   4.897   2.474   6.976  0.4074 -1.1651 -0.4193
   51CHL1    O3 3703   4.929   2.548   6.782 -0.0192  0.4148  0.8419
   51CHL1   H3' 3704   5.005   2.498   6.752  0.4034  2.0680 -1.0570
   51CHL1    C4 3705   4.854   2.685   6.975  0.2444  0.2988 -0.4275
   51CHL1   H4A 3706   4.873   2.771   6.908 -1.9661  0.7446 -0.5528
   51CHL1   H4B 3707   4.750   2.654   6.953  0.2823 -1.6029  1.6578
   51CHL1    C5 3708   4.870   2.714   7.127  0.7250 -0.4589 -0.2190
   51CHL1    C6 3709   4.764   2.701   7.209  0.3628 -0.9328 -0.0360
   51CHL1    H6 3710   4.667   2.676   7.164 -0.6652  0.6261  1.1932
   51CHL1    C7 3711   4.766   2.741   7.356  0.3703 -0.4188  0.0695
   51CHL1   H7A 3712   4.686   2.815   7.380 -0.7724 -2.0270  1.5068
   51CHL1   H7B 3713   4.756   2.650   7.419 -0.3113 -0.3301  0.0962
   51CHL1    C8 3714   4.903   2.809   7.395 -0.4949  0.0456  0.2610
   51CHL1    H8 3715   4.893   2.916   7.365 -0.6591 -0.0329  0.0342
   51CHL1   C14 3716   4.923   2.800   7.550  0.3836 -0.0959 -0.0412
   51CHL1   H14 3717   4.918   2.692   7.575  0.0570 -0.1179 -0.2037
   51CHL1   C15 3718   4.808   2.856   7.637  0.1534 -0.2094 -0.8729
   51CHL1  H15A 3719   4.774   2.957   7.607 -0.5722 -0.0629  0.3614
   51CHL1  H15B 3720   4.715   2.794   7.634  0.3640 -0.9932  3.0320
   51CHL1   C16 3721   4.871   2.873   7.785 -0.2084 -0.2604  0.5649
   51CHL1  H16A 3722   4.853   2.976   7.822 -2.1012 -0.8529  1.4557
   51CHL1  H16B 3723   4.825   2.803   7.858 -0.3755 -1.2356 -0.4488
   51CHL1   C17 3724   5.024   2.835   7.759  0.0223  0.1128 -0.0580
   51CHL1   H17 3725   5.024   2.725   7.777  0.4008 -0.0949 -1.2886
   51CHL1   C13 3726   5.056   2.848   7.609  0.1055 -0.2620 -0.8270
   51CHL1   C18 3727   5.083   2.992   7.577 -0.6051 -0.6192  0.2885
   51CHL1  H18A 3728   5.187   3.022   7.603 -0.3643 -1.3144  0.1443
   51CHL1  H18B 3729   5.070   3.014   7.469  0.4120  2.1716  0.6434
   51CHL1  H18C 3730   5.019   3.055   7.643 -1.7888 -1.5132  0.0014
   51CHL1   C12 3731   5.166   2.766   7.544 -0.4026 -0.2015 -0.4995
   51CHL1  H12A 3732   5.265   2.805   7.576 -0.0705  0.1274 -1.8424
   51CHL1  H12B 3733   5.171   2.658   7.568  1.6782  0.0598  0.4113
   51CHL1   C11 3734   5.162   2.768   7.382 -0.2730  0.0926  0.0248
   51CHL1  H11A 3735   5.189   2.871   7.349 -1.7368 -0.3399 -2.7758
   51CHL1  H11B 3736   5.240   2.700   7.342  0.9992  0.7283  1.3240
   51CHL1    C9 3737   5.021   2.733   7.325 -0.4548  0.4073  0.4982
   51CHL1    H9 3738   5.009   2.626   7.352  0.5104  0.1962  0.1307
   51CHL1   C10 3739   5.010   2.737   7.173 -0.0606 -0.0659  1.1350
   51CHL1   C19 3740   5.064   2.873   7.113 -0.0062  0.5979 -1.0790
   51CHL1  H19A 3741   5.006   2.957   7.156  0.6169  1.3566 -1.7000
   51CHL1  H19B 3742   5.172   2.894   7.132  0.4406 -0.1655 -2.6535
   51CHL1  H19C 3743   5.058   2.872   7.002  0.4676  0.2871 -1.1044
   51CHL1    C1 3744   5.101   2.623   7.112  0.8471  0.4386  0.0175
   51CHL1   H1A 3745   5.207   2.652   7.131  0.7080 -0.8790  3.4827
   51CHL1   H1B 3746   5.073   2.531   7.167  0.2904 -0.5124 -1.7654
   51CHL1    C2 3747   5.085   2.603   6.959 -0.4764 -0.3017 -0.7520
   51CHL1   H2A 3748   5.161   2.535   6.913  1.8301  0.7081  1.3413
   51CHL1   H2B 3749   5.103   2.698   6.904 -1.2198  0.6188  0.5381
   51CHL1   C20 3750   5.125   2.884   7.868  0.6750 -0.5557  0.8270
   51CHL1   H20 3751   5.230   2.869   7.835  1.4676  1.9683  1.9798
   51CHL1   C21 3752   5.111   2.797   7.999  0.7617 -0.0055 -0.0153
   51CHL1  H21A 3753   5.153   2.698   7.968  1.2662  0.6208 -1.4202
   51CHL1  H21B 3754   5.006   2.793   8.033  0.5576  0.0764 -0.6304
   51CHL1  H21C 3755   5.170   2.840   8.083  0.6709  0.5797 -0.2532
   51CHL1   C22 3756   5.118   3.036   7.906 -0.2847  0.6440  0.0938
   51CHL1  H22A 3757   5.117   3.097   7.813 -0.3083 -1.4456 -1.3268
   51CHL1  H22B 3758   5.015   3.050   7.946 -1.1391  0.1105 -1.7915
   51CHL1   C23 3759   5.238   3.087   7.978  0.5764 -0.4096 -0.7485
   51CHL1  H23A 3760   5.266   3.021   8.063  0.0075  0.6630  0.2975
   51CHL1  H23B 3761   5.314   3.099   7.898  1.4819  0.6526  0.2495
   51CHL1   C24 3762   5.220   3.232   8.038  0.1241 -0.1894 -0.0886
   51CHL1  H24A 3763   5.192   3.302   7.957  1.3252  0.9339  0.4320
   51CHL1  H24B 3764   5.139   3.219   8.113  2.4741 -0.3526  2.5895
   51CHL1   C25 3765   5.347   3.277   8.105 -0.5008 -0.6625 -1.1334
   51CHL1   H25 3766   5.437   3.284   8.040 -1.7492 -1.1158 -2.9912
   51CHL1   C26 3767   5.319   3.425   8.143 -0.5368 -0.5456 -0.6377
   51CHL1  H26A 3768   5.275   3.486   8.061 -0.7227  0.4529  0.1949
   51CHL1  H26B 3769   5.246   3.428   8.226  2.2990 -0.5310  2.0179
   51CHL1  H26C 3770   5.413   3.477   8.172 -1.6702  1.4614 -0.4342
   51CHL1   C27 3771   5.379   3.195   8.231  0.2607 -0.8313  0.2199
   51CHL1  H27A 3772   5.287   3.189   8.293 -0.5303 -1.3524 -0.9634
   51CHL1  H27B 3773   5.413   3.093   8.201  3.5312  0.5948 -1.4510
   51CHL1  H27C 3774   5.455   3.247   8.293 -0.6848  1.1631 -0.2134
   52CHL1    C3 3775   1.853   1.855   7.062 -0.1660 -0.6431  0.3481
   52CHL1    H3 3776   1.917   1.780   7.113  0.5979 -0.4571 -0.3066
   52CHL1    O3 3777   1.863   1.837   6.922 -0.3402 -0.2204 -0.5472
   52CHL1   H3' 3778   1.884   1.925   6.891  0.9501 -0.3304 -0.0736
   52CHL1    C4 3779   1.703   1.855   7.114 -0.1969  0.7617  0.6050
   52CHL1   H4A 3780   1.638   1.921   7.053  0.4192  0.2194 -0.6763
   52CHL1   H4B 3781   1.679   1.753   7.078  1.4350  0.4899  0.1874
   52CHL1    C5 3782   1.700   1.864   7.268 -0.9231  0.0339  0.4764
   52CHL1    C6 3783   1.664   1.753   7.344 -0.2706 -1.2064  0.7067
   52CHL1    H6 3784   1.628   1.660   7.298 -0.0601 -1.3253  0.7807
   52CHL1    C7 3785   1.666   1.759   7.493  0.5524 -0.3753  0.7224
   52CHL1   H7A 3786   1.572   1.728   7.543 -0.0959  0.6967  0.1943
   52CHL1   H7B 3787   1.761   1.710   7.525  1.0976  0.5611  0.5778
   52CHL1    C8 3788   1.686   1.905   7.547 -0.2188 -0.0318 -0.0299
   52CHL1    H8 3789   1.589   1.957   7.531  0.1192  0.2765 -1.1699
   52CHL1   C14 3790   1.739   1.899   7.690 -0.2620 -0.3450 -0.0817
   52CHL1   H14 3791   1.842   1.859   7.687 -0.6432 -1.4113  0.4774
   52CHL1   C15 3792   1.662   1.804   7.789  0.2459  0.6479 -0.5250
   52CHL1  H15A 3793   1.553   1.824   7.779  0.6740  3.0216 -1.0620
   52CHL1  H15B 3794   1.691   1.698   7.770  1.0317  0.6919  0.3791
   52CHL1   C16 3795   1.704   1.855   7.931 -0.6303  0.0096  0.0448
   52CHL1  H16A 3796   1.612   1.875   7.990 -0.2519  0.8722  0.3613
   52CHL1  H16B 3797   1.768   1.773   7.969  1.0061  0.7924 -0.9276
   52CHL1   C17 3798   1.777   1.990   7.912 -0.4141 -0.5164 -0.2919
   52CHL1   H17 3799   1.886   1.966   7.922 -0.0988  0.2176 -1.7936
   52CHL1   C13 3800   1.758   2.035   7.764  0.4656 -0.5686  0.2275
   52CHL1   C18 3801   1.610   2.101   7.761 -0.1424  0.1015  0.2644
   52CHL1  H18A 3802   1.582   2.127   7.657 -1.1600  0.6678  0.6623
   52CHL1  H18B 3803   1.531   2.029   7.790  0.0467 -0.8229 -1.4059
   52CHL1  H18C 3804   1.606   2.197   7.817  0.4055  0.2113  0.1132
   52CHL1   C12 3805   1.862   2.119   7.691  0.1386 -0.0257 -0.2621
   52CHL1  H12A 3806   1.880   2.222   7.727 -1.6285  0.0584  0.5262
   52CHL1  H12B 3807   1.954   2.059   7.705  1.8874  2.8372  1.2829
   52CHL1   C11 3808   1.833   2.120   7.534 -0.1154 -0.6665 -0.2835
   52CHL1  H11A 3809   1.758   2.199   7.515  0.8938  0.1095 -1.1618
   52CHL1  H11B 3810   1.929   2.150   7.487  0.7822 -0.8860  1.3308
   52CHL1    C9 3811   1.788   1.987   7.465  0.0727  0.4739  0.1903
   52CHL1    H9 3812   1.879   1.925   7.476 -0.3905 -0.3143 -0.3385
   52CHL1   C10 3813   1.759   1.999   7.312  0.1746 -0.6030  0.1581
   52CHL1   C19 3814   1.659   2.108   7.286 -0.0076  0.2947  0.1232
   52CHL1  H19A 3815   1.639   2.133   7.180 -0.5095  0.8611  0.3448
   52CHL1  H19B 3816   1.562   2.100   7.339 -1.2709 -0.9608 -2.2215
   52CHL1  H19C 3817   1.714   2.199   7.318 -0.4063 -0.0917  2.0151
   52CHL1    C1 3818   1.900   2.026   7.239 -0.3460  0.9558 -0.0274
   52CHL1   H1A 3819   1.924   2.132   7.263  0.7349  0.6843  0.1525
   52CHL1   H1B 3820   1.983   1.970   7.287 -1.8107 -0.6068  0.7591
   52CHL1    C2 3821   1.901   1.997   7.089  0.8888  0.6746  0.4961
   52CHL1   H2A 3822   2.002   2.016   7.048  1.0119 -1.3886 -0.2680
   52CHL1   H2B 3823   1.838   2.077   7.044  3.0544  1.6999 -0.9326
   52CHL1   C20 3824   1.755   2.091   8.026 -0.1187 -0.0355 -0.2660
   52CHL1   H20 3825   1.648   2.119   8.033  0.0806  0.7572 -0.2781
   52CHL1   C21 3826   1.846   2.217   8.008 -0.3999  0.2802 -0.6243
   52CHL1  H21A 3827   1.837   2.262   7.907  0.7095  1.4389 -0.2373
   52CHL1  H21B 3828   1.951   2.187   8.028 -1.4150 -3.3716  0.0533
   52CHL1  H21C 3829   1.814   2.299   8.075  0.0074  1.4881 -1.8510
   52CHL1   C22 3830   1.783   2.024   8.164  0.1504 -0.3969  0.3820
   52CHL1  H22A 3831   1.715   1.937   8.173  0.9340 -1.1518 -0.7471
   52CHL1  H22B 3832   1.883   1.980   8.184  0.1966  0.2723  1.7401
   52CHL1   C23 3833   1.738   2.115   8.289 -0.6466  0.0196 -0.1562
   52CHL1  H23A 3834   1.799   2.208   8.285  0.4614 -0.7239 -1.0573
   52CHL1  H23B 3835   1.629   2.138   8.281 -0.3531  0.9365 -2.3412
   52CHL1   C24 3836   1.772   2.057   8.435  0.5628  0.1308 -0.1637
   52CHL1  H24A 3837   1.726   1.958   8.449 -0.4968  0.4672 -1.0944
   52CHL1  H24B 3838   1.883   2.059   8.447  0.4960 -0.1747  0.5513
   52CHL1   C25 3839   1.718   2.139   8.562 -0.2141 -0.4240 -0.3271
   52CHL1   H25 3840   1.612   2.161   8.539  0.2095  4.4798  1.2931
   52CHL1   C26 3841   1.730   2.048   8.684 -0.6671  0.5421 -0.0659
   52CHL1  H26A 3842   1.832   2.059   8.727 -0.0530  4.2392 -2.0947
   52CHL1  H26B 3843   1.651   2.076   8.758 -2.7424 -3.9984 -0.1908
   52CHL1  H26C 3844   1.721   1.941   8.655  1.4208  0.0154  0.9931
   52CHL1   C27 3845   1.787   2.273   8.585  0.1771  0.5643  0.6037
   52CHL1  H27A 3846   1.759   2.331   8.494  0.0586  1.4104  1.1672
   52CHL1  H27B 3847   1.752   2.329   8.674  1.1886  2.5051 -0.1408
   52CHL1  H27C 3848   1.898   2.269   8.590  0.1012  0.5345  3.2709
   53CHL1    C3 3849   3.513   6.503   7.256  0.0840  0.3325 -0.8271
   53CHL1    H3 3850   3.614   6.473   7.292 -0.9543 -2.9524 -0.2859
   53CHL1    O3 3851   3.475   6.439   7.138 -0.0325  0.6080  0.4114
   53CHL1   H3' 3852   3.522   6.499   7.079 -0.1870  0.7123  0.3939
   53CHL1    C4 3853   3.405   6.467   7.361 -0.5239 -0.5594 -0.0263
   53CHL1   H4A 3854   3.309   6.498   7.314 -0.8202  0.3252  1.1120
   53CHL1   H4B 3855   3.403   6.357   7.372 -0.7449 -0.4711  0.9071
   53CHL1    C5 3856   3.430   6.529   7.497 -0.3645 -0.0511  0.2329
   53CHL1    C6 3857   3.449   6.467   7.616  0.0103 -0.2280 -0.3060
   53CHL1    H6 3858   3.436   6.358   7.617 -1.6703 -0.0915 -2.0636
   53CHL1    C7 3859   3.461   6.543   7.748  0.1784 -0.6868 -0.0502
   53CHL1   H7A 3860   3.400   6.482   7.819  0.7309 -1.1360  0.0427
   53CHL1   H7B 3861   3.565   6.542   7.785  0.3548 -1.2270 -0.5370
   53CHL1    C8 3862   3.427   6.693   7.750 -0.4046 -0.1690  0.3337
   53CHL1    H8 3863   3.316   6.691   7.746 -0.3729 -1.0819 -0.6866
   53CHL1   C14 3864   3.481   6.758   7.870 -0.4642 -0.6575  0.3364
   53CHL1   H14 3865   3.586   6.726   7.883 -0.8744 -1.1242  3.1164
   53CHL1   C15 3866   3.422   6.723   8.008  0.4273  0.2403 -0.3031
   53CHL1  H15A 3867   3.312   6.727   7.997  0.3441 -1.8345 -0.7499
   53CHL1  H15B 3868   3.454   6.620   8.036  0.6378  0.4787  0.3430
   53CHL1   C16 3869   3.477   6.833   8.102  0.5936 -0.7568  0.2972
   53CHL1  H16A 3870   3.387   6.877   8.150 -0.9459 -2.3186 -0.9759
   53CHL1  H16B 3871   3.552   6.791   8.171  1.8266  1.6170  0.4842
   53CHL1   C17 3872   3.541   6.946   8.011  0.8851  0.0351 -0.2958
   53CHL1   H17 3873   3.650   6.927   8.009  0.6341 -1.5287 -0.6439
   53CHL1   C13 3874   3.488   6.911   7.867 -0.2857  0.2321 -0.5120
   53CHL1   C18 3875   3.356   6.976   7.855 -0.0949  0.0617  0.4131
   53CHL1  H18A 3876   3.288   6.953   7.941  0.7127 -0.1186  1.0164
   53CHL1  H18B 3877   3.367   7.085   7.838  1.2706  0.2356  2.1324
   53CHL1  H18C 3878   3.304   6.931   7.768  1.4870 -2.4179  0.6430
   53CHL1   C12 3879   3.582   6.965   7.756 -0.0102 -0.5051 -1.0744
   53CHL1  H12A 3880   3.569   7.075   7.754 -0.4231 -0.5363 -0.4401
   53CHL1  H12B 3881   3.685   6.927   7.771  0.4460  1.5873  2.1959
   53CHL1   C11 3882   3.523   6.907   7.623 -0.5521 -0.2350  0.0698
   53CHL1  H11A 3883   3.432   6.966   7.603 -1.1772 -1.0896  0.3462
   53CHL1  H11B 3884   3.595   6.942   7.546 -2.4415  2.3670 -0.6667
   53CHL1    C9 3885   3.497   6.752   7.622 -0.0194  0.2648 -0.1432
   53CHL1    H9 3886   3.600   6.711   7.623 -0.4654 -0.8922  1.6479
   53CHL1   C10 3887   3.436   6.689   7.490  0.6145  1.1669  0.2651
   53CHL1   C19 3888   3.292   6.737   7.468 -0.1323 -0.2740  0.5587
   53CHL1  H19A 3889   3.298   6.847   7.485  2.1226 -0.3516  0.6354
   53CHL1  H19B 3890   3.255   6.717   7.366  0.3067 -1.2664  0.5851
   53CHL1  H19C 3891   3.221   6.693   7.541  1.7465  0.4956  3.0004
   53CHL1    C1 3892   3.525   6.722   7.368 -0.6504  0.1201 -0.1054
   53CHL1   H1A 3893   3.508   6.831   7.350  2.5275  1.1096  1.9358
   53CHL1   H1B 3894   3.630   6.708   7.403 -0.5122 -2.6285 -1.3761
   53CHL1    C2 3895   3.506   6.651   7.234  0.1343  0.0034 -0.7384
   53CHL1   H2A 3896   3.587   6.687   7.166  1.1952  2.9511  1.8456
   53CHL1   H2B 3897   3.416   6.682   7.177 -1.6979 -0.7364  1.6258
   53CHL1   C20 3898   3.521   7.090   8.071  0.3468 -0.1712 -0.2941
   53CHL1   H20 3899   3.415   7.119   8.061  0.1689 -0.8406 -0.4162
   53CHL1   C21 3900   3.606   7.190   7.988 -0.6145  0.3942  0.2882
   53CHL1  H21A 3901   3.540   7.237   7.912 -0.9480 -0.4450  0.0456
   53CHL1  H21B 3902   3.694   7.138   7.943 -1.1967 -0.3716  0.0040
   53CHL1  H21C 3903   3.652   7.268   8.052  1.3040 -0.1137 -0.3914
   53CHL1   C22 3904   3.561   7.098   8.225 -0.0339  0.3898 -0.0574
   53CHL1  H22A 3905   3.481   7.045   8.281 -0.6204 -0.5087 -1.6837
   53CHL1  H22B 3906   3.659   7.050   8.245 -0.1098  1.4681  3.5827
   53CHL1   C23 3907   3.562   7.234   8.300 -0.1601 -0.5833  0.4538
   53CHL1  H23A 3908   3.638   7.303   8.258 -1.0771 -0.1607 -0.5315
   53CHL1  H23B 3909   3.463   7.277   8.276  1.7611  3.8097 -0.5337
   53CHL1   C24 3910   3.573   7.225   8.460 -0.7713  0.4274 -0.3416
   53CHL1  H24A 3911   3.530   7.129   8.495 -0.0214 -0.0249 -0.6367
   53CHL1  H24B 3912   3.679   7.199   8.478 -0.9207 -0.6877 -0.9385
   53CHL1   C25 3913   3.547   7.356   8.534 -0.0641  0.0192 -0.4243
   53CHL1   H25 3914   3.619   7.433   8.499  0.6040 -0.2986  0.2143
   53CHL1   C26 3915   3.404   7.399   8.519  0.2554  0.7397 -0.7426
   53CHL1  H26A 3916   3.372   7.484   8.583  1.4924  1.8621 -1.5561
   53CHL1  H26B 3917   3.385   7.426   8.413 -0.1109  0.7708 -0.6705
   53CHL1  H26C 3918   3.337   7.314   8.546 -1.3864  1.8888 -1.0955
   53CHL1   C27 3919   3.586   7.330   8.684 -0.6701 -0.3449  0.0970
   53CHL1  H27A 3920   3.688   7.288   8.695  0.1434  1.1272 -1.3252
   53CHL1  H27B 3921   3.578   7.428   8.736  0.6250  1.1266 -2.3372
   53CHL1  H27C 3922   3.516   7.258   8.732  0.6730 -2.6208 -1.2140
   54CHL1    C3 3923   4.558   0.420   6.970  0.5119  0.6193 -0.0425
   54CHL1    H3 3924   4.462   0.477   6.971  0.4423  0.5010  0.4318
   54CHL1    O3 3925   4.594   0.389   6.837  0.3167 -0.3440  0.1483
   54CHL1   H3' 3926   4.611   0.468   6.785 -0.6874 -0.0635  0.2198
   54CHL1    C4 3927   4.668   0.500   7.049  0.0453 -0.1543  0.4091
   54CHL1   H4A 3928   4.763   0.444   7.034 -0.3180 -1.1290  1.5715
   54CHL1   H4B 3929   4.688   0.597   6.999  1.4063  1.0896  3.1235
   54CHL1    C5 3930   4.644   0.512   7.199  0.1063 -0.2272 -0.2473
   54CHL1    C6 3931   4.662   0.637   7.248  0.5198  0.5359 -0.2499
   54CHL1    H6 3932   4.696   0.715   7.178 -1.7317  0.3153 -1.6835
   54CHL1    C7 3933   4.651   0.663   7.394 -0.8602 -0.1992 -0.1009
   54CHL1   H7A 3934   4.734   0.728   7.430  1.3697 -2.1779 -1.3986
   54CHL1   H7B 3935   4.556   0.719   7.410  0.6255  1.7306  2.6878
   54CHL1    C8 3936   4.636   0.537   7.486  0.9128  0.6323 -0.7166
   54CHL1    H8 3937   4.737   0.498   7.510  0.1061 -0.4852  1.0557
   54CHL1   C14 3938   4.571   0.573   7.624 -0.2251 -0.6867 -0.6650
   54CHL1   H14 3939   4.472   0.617   7.599  0.2583  1.6495  1.1583
   54CHL1   C15 3940   4.622   0.686   7.710 -0.5989  0.0951 -1.1253
   54CHL1  H15A 3941   4.730   0.669   7.727 -0.9885  0.5104  2.5986
   54CHL1  H15B 3942   4.611   0.791   7.676  4.4114  1.9512  1.9363
   54CHL1   C16 3943   4.564   0.668   7.849 -0.6282 -0.8228  0.3611
   54CHL1  H16A 3944   4.655   0.666   7.914 -0.8872 -0.6972  0.7336
   54CHL1  H16B 3945   4.487   0.743   7.876  1.3611  1.1075  1.0543
   54CHL1   C17 3946   4.496   0.528   7.854  0.2002  0.6084 -0.1385
   54CHL1   H17 3947   4.389   0.545   7.832 -0.5655 -1.4703  1.6400
   54CHL1   C13 3948   4.551   0.457   7.728 -0.3810  0.3428  0.5239
   54CHL1   C18 3949   4.691   0.383   7.758  0.4790 -0.9858  0.5683
   54CHL1  H18A 3950   4.758   0.449   7.817 -1.7960  1.0171  1.0761
   54CHL1  H18B 3951   4.680   0.285   7.809  0.9806 -0.3750  1.8867
   54CHL1  H18C 3952   4.737   0.355   7.661  0.3206  0.1175  0.1593
   54CHL1   C12 3953   4.460   0.347   7.661 -0.6172  0.0599 -0.5993
   54CHL1  H12A 3954   4.456   0.251   7.717 -0.9603  1.6428  2.2784
   54CHL1  H12B 3955   4.352   0.372   7.646 -1.2261 -1.9614  0.0938
   54CHL1   C11 3956   4.509   0.308   7.520 -0.2527  0.4760 -0.4813
   54CHL1  H11A 3957   4.597   0.243   7.536  0.0443  1.5661  3.4194
   54CHL1  H11B 3958   4.430   0.243   7.477  0.4622 -1.9259  1.5917
   54CHL1    C9 3959   4.548   0.428   7.422  0.8453  0.3824 -0.2010
   54CHL1    H9 3960   4.449   0.479   7.415  1.0735  1.1252  1.4530
   54CHL1   C10 3961   4.596   0.389   7.283  0.2741 -0.5619 -0.1856
   54CHL1   C19 3962   4.708   0.287   7.297 -0.1918 -0.2998  0.1646
   54CHL1  H19A 3963   4.752   0.259   7.199 -0.3027 -2.4072  0.6666
   54CHL1  H19B 3964   4.786   0.325   7.365  1.2719  0.1322 -1.6731
   54CHL1  H19C 3965   4.681   0.189   7.343 -1.5873 -0.7015 -1.3930
   54CHL1    C1 3966   4.484   0.327   7.196  0.0047  0.5382  0.2398
   54CHL1   H1A 3967   4.442   0.237   7.246  1.5880  0.1403  0.8969
   54CHL1   H1B 3968   4.397   0.396   7.189  0.8640  1.6077 -0.1919
   54CHL1    C2 3969   4.531   0.289   7.050  0.0992 -0.0257  0.1815
   54CHL1   H2A 3970   4.456   0.233   6.990 -1.2621 -0.3876  2.1142
   54CHL1   H2B 3971   4.624   0.229   7.051  0.1373 -0.0045  2.0230
   54CHL1   C20 3972   4.496   0.459   7.991  0.2640  0.7736  0.1502
   54CHL1   H20 3973   4.601   0.444   8.023 -0.2846 -1.2126  1.1541
   54CHL1   C21 3974   4.409   0.330   7.988 -0.6178 -0.1563  0.6175
   54CHL1  H21A 3975   4.450   0.259   7.913  2.3064  0.4829  1.4999
   54CHL1  H21B 3976   4.301   0.355   7.975 -0.7095 -0.5406  0.6412
   54CHL1  H21C 3977   4.420   0.285   8.089 -0.9603  1.3318  1.3519
   54CHL1   C22 3978   4.435   0.556   8.091 -0.0898 -0.4286  0.1689
   54CHL1  H22A 3979   4.480   0.657   8.088  0.5961 -0.6727  1.4169
   54CHL1  H22B 3980   4.328   0.576   8.069 -0.4156 -2.0356  0.1646
   54CHL1   C23 3981   4.443   0.527   8.244 -0.1290  0.6526  0.3330
   54CHL1  H23A 3982   4.377   0.439   8.259  2.2513 -1.4043 -0.5907
   54CHL1  H23B 3983   4.547   0.489   8.253  0.5725  2.2387 -0.6058
   54CHL1   C24 3984   4.423   0.641   8.339  0.2614  0.0010  0.2028
   54CHL1  H24A 3985   4.474   0.730   8.295  0.3527 -1.1883 -2.2594
   54CHL1  H24B 3986   4.315   0.666   8.343  0.5589  1.2937  0.7555
   54CHL1   C25 3987   4.479   0.626   8.485  0.1008 -0.2504 -0.1924
   54CHL1   H25 3988   4.421   0.547   8.538 -1.4521  0.8371 -0.2300
   54CHL1   C26 3989   4.624   0.588   8.474 -0.3223  0.0143  0.1321
   54CHL1  H26A 3990   4.651   0.484   8.444  2.0532  0.3277  0.9730
   54CHL1  H26B 3991   4.665   0.650   8.391 -1.7166 -1.3511 -1.6634
   54CHL1  H26C 3992   4.686   0.616   8.562 -0.5887  1.2635 -0.0596
   54CHL1   C27 3993   4.473   0.757   8.565  0.1518  0.8832  0.1155
   54CHL1  H27A 3994   4.533   0.833   8.509  0.5552 -0.0087 -0.6892
   54CHL1  H27B 3995   4.371   0.800   8.568  0.2364  1.0569  0.5572
   54CHL1  H27C 3996   4.503   0.750   8.671  0.2618 -1.9746 -0.0282
   55CHL1    C3 3997   3.457   0.395   7.091  0.0845  0.4792  0.1115
   55CHL1    H3 3998   3.369   0.342   7.134 -1.1689  2.7801  0.5333
   55CHL1    O3 3999   3.483   0.350   6.960 -0.3413 -0.1842  0.1213
   55CHL1   H3' 4000   3.526   0.421   6.911  0.8934  0.6001  2.1966
   55CHL1    C4 4001   3.430   0.547   7.079  0.1956  0.2660  0.6405
   55CHL1   H4A 4002   3.509   0.597   7.018 -1.1880  1.3118 -0.3510
   55CHL1   H4B 4003   3.337   0.561   7.020  0.1976  0.0353  0.5836
   55CHL1    C5 4004   3.424   0.627   7.211  0.9497  0.9110  0.3671
   55CHL1    C6 4005   3.322   0.707   7.234 -0.2605  0.0213 -1.6472
   55CHL1    H6 4006   3.239   0.725   7.165 -0.5435 -0.7669 -1.5268
   55CHL1    C7 4007   3.305   0.782   7.367  0.0450  0.0805  0.0100
   55CHL1   H7A 4008   3.283   0.888   7.343 -0.9138 -0.0839  0.1185
   55CHL1   H7B 4009   3.214   0.742   7.418 -0.3217  2.3715  1.2696
   55CHL1    C8 4010   3.428   0.793   7.452  0.3941  0.1525 -0.4822
   55CHL1    H8 4011   3.488   0.877   7.412  0.3721  2.0514  3.0556
   55CHL1   C14 4012   3.384   0.820   7.596 -0.1397  0.3375  0.9053
   55CHL1   H14 4013   3.329   0.731   7.631  0.0070  0.4938  1.5416
   55CHL1   C15 4014   3.280   0.927   7.632  0.7283 -0.0830  0.4006
   55CHL1  H15A 4015   3.301   1.026   7.585  2.9714 -0.9359 -0.5304
   55CHL1  H15B 4016   3.174   0.897   7.613  1.4888 -1.8878 -1.3606
   55CHL1   C16 4017   3.295   0.943   7.784 -1.1525 -0.0391 -0.7415
   55CHL1  H16A 4018   3.315   1.050   7.808 -0.8010 -0.4639  1.0001
   55CHL1  H16B 4019   3.202   0.906   7.831 -1.1466  1.7736  0.8276
   55CHL1   C17 4020   3.419   0.856   7.825  0.0736  0.2387 -0.0821
   55CHL1   H17 4021   3.363   0.764   7.852 -1.2602  1.2361  0.6944
   55CHL1   C13 4022   3.497   0.827   7.696 -0.4777  0.1140  0.6104
   55CHL1   C18 4023   3.591   0.950   7.664  0.2542  0.3278  0.6142
   55CHL1  H18A 4024   3.614   0.932   7.557 -1.9299 -1.4428  0.3581
   55CHL1  H18B 4025   3.526   1.039   7.675 -0.7478 -0.2423 -0.4592
   55CHL1  H18C 4026   3.686   0.953   7.721 -0.1716 -1.1514  1.4857
   55CHL1   C12 4027   3.577   0.698   7.695 -0.2756  1.0863 -0.4648
   55CHL1  H12A 4028   3.671   0.695   7.754 -1.1458 -1.4076  0.9524
   55CHL1  H12B 4029   3.512   0.623   7.746  2.0351  1.9888  4.4952
   55CHL1   C11 4030   3.614   0.659   7.555 -0.3943 -1.0056 -0.2614
   55CHL1  H11A 4031   3.696   0.722   7.514  0.2841 -0.0379  2.3554
   55CHL1  H11B 4032   3.655   0.557   7.567  0.5887 -0.3789  2.7082
   55CHL1    C9 4033   3.493   0.652   7.457 -0.5736 -0.1434 -0.5047
   55CHL1    H9 4034   3.417   0.583   7.499  0.1261 -0.4976  0.2093
   55CHL1   C10 4035   3.533   0.596   7.316 -0.3512  0.3291  1.2990
   55CHL1   C19 4036   3.650   0.679   7.259  0.1023  0.0737 -0.3758
   55CHL1  H19A 4037   3.735   0.677   7.330 -0.3823 -0.2434  0.2107
   55CHL1  H19B 4038   3.679   0.649   7.156 -2.6862 -0.4256 -1.1176
   55CHL1  H19C 4039   3.619   0.785   7.248 -2.5850 -0.5966 -0.0500
   55CHL1    C1 4040   3.555   0.447   7.315 -0.1975  0.5803  0.0852
   55CHL1   H1A 4041   3.632   0.411   7.386 -0.8883 -0.3590  0.3843
   55CHL1   H1B 4042   3.465   0.390   7.349  0.8630 -1.5166 -0.4065
   55CHL1    C2 4043   3.578   0.376   7.182 -0.1510 -0.1850 -0.1897
   55CHL1   H2A 4044   3.596   0.266   7.190 -3.5743 -0.8076  0.2706
   55CHL1   H2B 4045   3.673   0.416   7.140  0.7299 -0.8246  1.0976
   55CHL1   C20 4046   3.491   0.905   7.961  0.5507 -0.1974  0.4278
   55CHL1   H20 4047   3.545   1.001   7.948  2.1817 -1.1423 -0.0911
   55CHL1   C21 4048   3.609   0.811   7.983  0.0752 -0.7457 -0.2090
   55CHL1  H21A 4049   3.686   0.828   7.905 -1.0767 -0.9871 -1.4428
   55CHL1  H21B 4050   3.583   0.703   7.989  0.4532 -0.8667 -0.7467
   55CHL1  H21C 4051   3.670   0.833   8.073 -0.5757 -0.7014  0.2311
   55CHL1   C22 4052   3.391   0.914   8.080 -0.2199 -0.0200  0.1255
   55CHL1  H22A 4053   3.323   1.001   8.067  2.1785  1.6993 -1.8543
   55CHL1  H22B 4054   3.333   0.822   8.099 -0.1353 -0.0236  0.3693
   55CHL1   C23 4055   3.465   0.935   8.214 -0.7769 -0.1521 -0.5834
   55CHL1  H23A 4056   3.516   0.840   8.242  0.3690  0.6302  0.0431
   55CHL1  H23B 4057   3.553   1.002   8.202 -2.5180  2.7908  1.7385
   55CHL1   C24 4058   3.378   0.987   8.339 -0.1855 -0.8591 -0.0980
   55CHL1  H24A 4059   3.290   0.921   8.322 -0.3669 -0.5674 -0.3131
   55CHL1  H24B 4060   3.424   0.964   8.437  1.0206 -2.4120 -0.9864
   55CHL1   C25 4061   3.341   1.139   8.326 -0.4426  0.7774 -0.5294
   55CHL1   H25 4062   3.289   1.163   8.230 -1.6534  0.1304 -0.0573
   55CHL1   C26 4063   3.231   1.176   8.427  0.5802  1.1782 -0.2366
   55CHL1  H26A 4064   3.179   1.271   8.402  0.5874  1.8461  2.1110
   55CHL1  H26B 4065   3.158   1.093   8.422  1.0649  0.8021 -1.7806
   55CHL1  H26C 4066   3.281   1.186   8.525  1.7013  1.9444 -0.8640
   55CHL1   C27 4067   3.466   1.224   8.331 -0.3710 -0.5129 -0.2907
   55CHL1  H27A 4068   3.522   1.208   8.236 -2.4106  1.2613 -1.8975
   55CHL1  H27B 4069   3.423   1.326   8.337 -1.1929 -0.8423 -0.3412
   55CHL1  H27C 4070   3.526   1.211   8.423 -0.8886  2.6986  0.6252
   56CHL1    C3 4071   1.739   5.818   6.951 -0.2982 -0.0135  0.5933
   56CHL1    H3 4072   1.811   5.735   6.965 -0.3918 -0.2432 -0.2420
   56CHL1    O3 4073   1.735   5.840   6.810  0.0965  0.6111  0.2432
   56CHL1   H3' 4074   1.677   5.915   6.796  0.1053  0.4937 -0.4221
   56CHL1    C4 4075   1.601   5.775   7.012 -0.3266 -0.6246 -0.0096
   56CHL1   H4A 4076   1.525   5.851   6.981  0.3490  0.3177  0.5908
   56CHL1   H4B 4077   1.559   5.681   6.972 -2.6734  0.1964  0.3083
   56CHL1    C5 4078   1.602   5.762   7.166  0.3139 -1.1750 -0.1826
   56CHL1    C6 4079   1.576   5.646   7.224 -0.4040  0.6121  0.1595
   56CHL1    H6 4080   1.551   5.559   7.162 -0.1910  0.1111  0.7609
   56CHL1    C7 4081   1.568   5.622   7.377  0.4492 -0.5124  0.0142
   56CHL1   H7A 4082   1.478   5.564   7.406  0.0496 -0.5664 -1.2687
   56CHL1   H7B 4083   1.667   5.574   7.390  1.3767  1.6361  1.5118
   56CHL1    C8 4084   1.551   5.758   7.447  0.0248  0.3445 -0.3982
   56CHL1    H8 4085   1.454   5.805   7.422 -1.3305 -1.5706  1.0846
   56CHL1   C14 4086   1.573   5.738   7.592  0.5784  0.1595 -0.6009
   56CHL1   H14 4087   1.674   5.697   7.613  0.2352  0.2339  1.3581
   56CHL1   C15 4088   1.483   5.642   7.671  0.4618  0.1108  0.5851
   56CHL1  H15A 4089   1.378   5.660   7.639  0.9406  1.1610 -0.4621
   56CHL1  H15B 4090   1.506   5.535   7.651  0.0663 -0.3807  2.6019
   56CHL1   C16 4091   1.506   5.677   7.819 -0.4881 -0.3856  0.3853
   56CHL1  H16A 4092   1.405   5.690   7.863 -1.0804  0.3742 -1.1688
   56CHL1  H16B 4093   1.551   5.586   7.866  2.3302  1.2738  1.1232
   56CHL1   C17 4094   1.600   5.800   7.816  0.5726  0.4216  0.8090
   56CHL1   H17 4095   1.699   5.749   7.806  0.0039 -0.4733 -0.6203
   56CHL1   C13 4096   1.579   5.867   7.673 -1.0095  0.0256  0.1306
   56CHL1   C18 4097   1.455   5.952   7.669 -1.3604  0.0223 -0.1095
   56CHL1  H18A 4098   1.473   6.048   7.721  0.9059  0.3727 -1.3996
   56CHL1  H18B 4099   1.426   5.970   7.564  1.2570  3.9203 -0.3461
   56CHL1  H18C 4100   1.366   5.899   7.711 -0.4298 -1.7489 -0.2815
   56CHL1   C12 4101   1.704   5.944   7.629 -0.4924  0.9476  0.0814
   56CHL1  H12A 4102   1.716   6.037   7.688 -0.1340 -0.4860  2.4169
   56CHL1  H12B 4103   1.792   5.882   7.659 -0.3052  1.3404  0.3547
   56CHL1   C11 4104   1.702   5.966   7.471 -0.4284 -0.9149 -1.5541
   56CHL1  H11A 4105   1.626   6.046   7.466  0.8986  0.3889 -1.4749
   56CHL1  H11B 4106   1.804   6.004   7.447 -0.2938  0.7273  1.1332
   56CHL1    C9 4107   1.669   5.843   7.389 -0.1486 -0.5946  0.2135
   56CHL1    H9 4108   1.758   5.778   7.406 -0.1360 -0.2914  1.3831
   56CHL1   C10 4109   1.648   5.884   7.240 -0.6163  0.0149  0.0407
   56CHL1   C19 4110   1.534   6.000   7.228  0.5787 -0.1053 -0.3593
   56CHL1  H19A 4111   1.445   5.994   7.293  0.6208 -0.7296 -0.3591
   56CHL1  H19B 4112   1.590   6.088   7.267  0.6378 -1.0505  1.7690
   56CHL1  H19C 4113   1.509   6.015   7.120  0.6931 -0.0494 -0.3786
   56CHL1    C1 4114   1.779   5.933   7.178 -0.1945  0.4931  0.1330
   56CHL1   H1A 4115   1.792   6.036   7.217 -1.9750  0.8083  0.0010
   56CHL1   H1B 4116   1.867   5.874   7.214 -1.9611 -2.2853  0.2266
   56CHL1    C2 4117   1.779   5.943   7.023  0.2852 -0.6021 -0.0896
   56CHL1   H2A 4118   1.875   5.976   6.978  0.0103  0.3140 -0.0205
   56CHL1   H2B 4119   1.704   6.019   6.996 -0.4724 -1.7763 -1.4150
   56CHL1   C20 4120   1.612   5.881   7.946 -0.2520  0.9091 -0.2972
   56CHL1   H20 4121   1.683   5.963   7.919 -1.0915  1.2444 -1.6098
   56CHL1   C21 4122   1.673   5.787   8.059  0.5332  0.1850 -0.1285
   56CHL1  H21A 4123   1.755   5.720   8.026 -0.6626 -2.1621  1.3887
   56CHL1  H21B 4124   1.603   5.718   8.110 -0.6012  0.7362 -0.9175
   56CHL1  H21C 4125   1.713   5.854   8.139  1.4786  1.7145 -1.8111
   56CHL1   C22 4126   1.480   5.955   7.994 -1.0841  0.3227 -0.2767
   56CHL1  H22A 4127   1.415   6.003   7.917  2.3531  1.5436 -2.6902
   56CHL1  H22B 4128   1.428   5.865   8.033  0.6964 -0.8840 -0.5274
   56CHL1   C23 4129   1.502   6.060   8.107 -0.5851  0.4407  0.0313
   56CHL1  H23A 4130   1.576   6.017   8.178  0.6723 -0.3970 -1.6938
   56CHL1  H23B 4131   1.555   6.146   8.061  0.1898  0.1359  0.3315
   56CHL1   C24 4132   1.374   6.105   8.178 -0.2573  0.5270 -0.3024
   56CHL1  H24A 4133   1.316   6.024   8.226  1.3556  0.7139  2.1649
   56CHL1  H24B 4134   1.410   6.162   8.267  1.6070 -2.3651  0.9412
   56CHL1   C25 4135   1.286   6.198   8.086  0.2335  0.5369 -0.6917
   56CHL1   H25 4136   1.280   6.144   7.989 -2.7598  0.4249 -0.5145
   56CHL1   C26 4137   1.143   6.214   8.140  0.7229  0.2447 -0.2798
   56CHL1  H26A 4138   1.145   6.249   8.245 -1.7319  0.0878 -0.1186
   56CHL1  H26B 4139   1.082   6.122   8.134  2.2359 -0.8059 -0.1158
   56CHL1  H26C 4140   1.088   6.292   8.083 -0.1153  0.6585  1.0614
   56CHL1   C27 4141   1.344   6.334   8.064  0.3943 -0.3382 -0.1085
   56CHL1  H27A 4142   1.278   6.388   7.992  0.6346 -2.0582 -1.6895
   56CHL1  H27B 4143   1.354   6.383   8.163  0.7743  1.6616 -1.0919
   56CHL1  H27C 4144   1.447   6.329   8.023 -0.0003 -1.1227 -1.0321
   57SAPC     N 4145   0.889   5.421  10.831  0.4548 -0.1116 -0.4157
   57SAPC   C12 4146   0.877   5.512  10.712  1.2176  0.3359  1.0470
   57SAPC  H12A 4147   0.871   5.614  10.746 -4.2975  0.6077  0.1333
   57SAPC  H12B 4148   0.783   5.498  10.660  0.9056  0.7284  1.4967
   57SAPC   C13 4149   0.890   5.276  10.789 -1.4494 -0.7623 -0.2510
   57SAPC  H13A 4150   0.912   5.214  10.874 -0.7202  0.0136  0.1388
   57SAPC  H13B 4151   0.793   5.254  10.746 -1.0862  0.0231 -1.5156
   57SAPC  H13C 4152   0.966   5.267  10.713 -0.4488 -0.2967  0.6756
   57SAPC   C14 4153   1.014   5.452  10.899  0.7741 -0.1308  0.0782
   57SAPC  H14A 4154   1.024   5.383  10.981  0.7814 -0.0456  0.1476
   57SAPC  H14B 4155   1.098   5.434  10.833  0.9379 -3.2185  0.9607
   57SAPC  H14C 4156   1.017   5.554  10.935 -1.5850 -0.5143  1.5869
   57SAPC   C15 4157   0.771   5.441  10.918  0.0935  0.2216 -0.4087
   57SAPC  H15A 4158   0.688   5.386  10.876  0.6375 -1.7805  0.9909
   57SAPC  H15B 4159   0.793   5.405  11.017  0.4528  0.2838 -0.4663
   57SAPC  H15C 4160   0.750   5.547  10.920  2.2528  0.9886 -4.7965
   57SAPC   C11 4161   0.988   5.517  10.603  0.1025 -0.3210  0.5126
   57SAPC  H11A 4162   0.950   5.564  10.510 -1.6461 -2.1566  0.2329
   57SAPC  H11B 4163   1.003   5.413  10.569  1.9631  0.6727 -1.9464
   57SAPC     P 4164   1.097   5.733  10.671  0.0033  0.2430 -0.1443
   57SAPC   O13 4165   0.969   5.774  10.741 -0.0155 -0.2050  0.8267
   57SAPC   O14 4166   1.230   5.778  10.722  0.4078 -0.6494 -0.4398
   57SAPC   O12 4167   1.102   5.582  10.658 -0.1746 -0.0251 -0.4244
   57SAPC   O11 4168   1.088   5.790  10.525 -0.4534  0.1220 -0.2247
   57SAPC    C1 4169   1.191   5.752  10.429  0.3842  1.0448  0.0313
   57SAPC    HA 4170   1.216   5.647  10.454 -1.4339  0.2132 -1.3672
   57SAPC    HB 4171   1.148   5.758  10.326 -2.6236  2.3401  1.2507
   57SAPC    C2 4172   1.313   5.846  10.413 -0.1982  0.1353 -0.4729
   57SAPC    HS 4173   1.351   5.861  10.516  1.1521 -0.0288 -0.9310
   57SAPC   O21 4174   1.261   5.971  10.354  0.4271  0.0567  0.5148
   57SAPC   C21 4175   1.326   6.074  10.398 -0.0702  0.1818 -0.4935
   57SAPC   O22 4176   1.399   6.076  10.497  0.1685  0.1873  0.0203
   57SAPC   C22 4177   1.292   6.193  10.318  0.0710  0.0532 -0.8728
   57SAPC   H2R 4178   1.189   6.181  10.278 -1.1358  0.9594  1.7249
   57SAPC   H2S 4179   1.297   6.283  10.383  3.3269 -0.7019  0.0630
   57SAPC    C3 4180   1.420   5.786  10.321 -0.5116 -0.6245  0.3540
   57SAPC    HX 4181   1.467   5.702  10.376  2.1518 -0.4691 -1.4956
   57SAPC    HY 4182   1.501   5.860  10.300 -0.1495 -0.8243  1.0089
   57SAPC   O31 4183   1.367   5.746  10.198  0.2400 -0.1969  0.4626
   57SAPC   C31 4184   1.448   5.735  10.093  0.2653  0.5219 -0.1399
   57SAPC   O32 4185   1.558   5.776  10.093 -0.9043  0.2811  0.3562
   57SAPC   C32 4186   1.379   5.679   9.966  0.0342  0.0440 -0.7087
   57SAPC   H2X 4187   1.279   5.725   9.958 -1.1164 -1.9807  0.9279
   57SAPC   H2Y 4188   1.360   5.570   9.981 -2.8243  0.1662 -2.6413
   57SAPC   C23 4189   1.395   6.216  10.203 -0.8975 -0.0915 -0.2101
   57SAPC   H3R 4190   1.499   6.219  10.242 -0.4282  3.1271 -1.4241
   57SAPC   H3S 4191   1.382   6.314  10.152  0.5558 -0.1551 -0.7381
   57SAPC   C24 4192   1.378   6.106  10.096 -0.1511  0.2988  0.2133
   57SAPC   H4R 4193   1.394   6.003  10.135 -0.8240 -0.4207 -1.2932
   57SAPC   H4S 4194   1.466   6.119  10.029 -1.1882 -1.1157 -1.5219
   57SAPC   C25 4195   1.255   6.090  10.006  0.7767  0.1755 -0.9725
   57SAPC   H5R 4196   1.171   6.051  10.066  1.0002  0.6805 -0.3262
   57SAPC   C26 4197   1.238   6.102   9.874 -0.2293  0.3028  0.1920
   57SAPC   H6R 4198   1.141   6.087   9.823  0.8604  1.8232 -2.5022
   57SAPC   C27 4199   1.334   6.149   9.774  0.0684  0.2770  0.4387
   57SAPC   H7R 4200   1.431   6.169   9.825  0.4234  3.4413 -1.2213
   57SAPC   H7S 4201   1.299   6.239   9.718  1.9293  2.2373  2.1980
   57SAPC   C28 4202   1.358   6.040   9.674 -0.0150  0.5415  0.6002
   57SAPC   H8R 4203   1.406   5.955   9.725  1.0973  0.4921 -0.4709
   57SAPC   C29 4204   1.361   6.045   9.534 -0.0442 -0.4071 -0.5070
   57SAPC   H9R 4205   1.394   5.953   9.483  0.1627 -0.8434  0.3905
   57SAPC  C210 4206   1.340   6.175   9.450 -0.6489  0.8735 -0.3731
   57SAPC  H10R 4207   1.437   6.226   9.434 -0.6938  2.2327  2.8502
   57SAPC  H10S 4208   1.275   6.243   9.509 -0.0942  1.2848 -0.2331
   57SAPC  C211 4209   1.272   6.135   9.322  0.0703  0.2465 -0.6552
   57SAPC  H11R 4210   1.336   6.103   9.239  0.5935  0.9839 -0.5483
   57SAPC  C212 4211   1.140   6.125   9.300  0.0669 -0.3902 -0.5668
   57SAPC  H12R 4212   1.101   6.099   9.201  0.4205 -2.5074 -0.2053
   57SAPC  C213 4213   1.035   6.153   9.401  0.1601 -0.2212 -0.4621
   57SAPC  H13R 4214   1.061   6.145   9.509 -0.6298 -1.5503 -0.3398
   57SAPC  H13S 4215   0.966   6.068   9.383 -2.1745  1.6320 -0.7182
   57SAPC  C214 4216   0.948   6.275   9.374 -0.0351 -0.4819  1.0273
   57SAPC  H14R 4217   0.975   6.329   9.282  1.8143  0.8278  2.2846
   57SAPC  C215 4218   0.859   6.331   9.453  0.4265 -0.3577 -0.5492
   57SAPC  H15R 4219   0.805   6.423   9.425  1.0428 -0.0250 -0.6681
   57SAPC  C216 4220   0.823   6.289   9.596  0.3875  0.5806 -0.7863
   57SAPC  H16R 4221   0.829   6.179   9.614 -0.8390  1.0959  4.2277
   57SAPC  H16S 4222   0.722   6.322   9.628  0.6112  0.3999  0.1317
   57SAPC  C217 4223   0.922   6.344   9.694  0.0336 -0.1753  0.6760
   57SAPC  H17R 4224   0.933   6.454   9.689  0.8672 -0.2198  1.2946
   57SAPC  H17S 4225   1.025   6.310   9.668 -1.1494 -1.6016 -2.7317
   57SAPC  C218 4226   0.889   6.304   9.840  0.4920  0.1647 -0.0975
   57SAPC  H18R 4227   0.878   6.194   9.847  0.5035  0.1453 -0.4067
   57SAPC  H18S 4228   0.790   6.346   9.868  0.8070  0.7267  0.2024
   57SAPC  C219 4229   0.983   6.367   9.945  0.6793 -0.1378  0.5662
   57SAPC  H19R 4230   0.995   6.476   9.924  0.4965  0.2405  2.2445
   57SAPC  H19S 4231   1.086   6.331   9.925  0.9437  1.1442 -0.5187
   57SAPC  C220 4232   0.946   6.348  10.088  0.1031 -0.2605 -0.6622
   57SAPC  H20R 4233   0.995   6.422  10.155 -0.0332 -1.9662  1.4597
   57SAPC  H20S 4234   0.970   6.246  10.123 -1.7376 -0.7026 -0.5738
   57SAPC  H20T 4235   0.837   6.363  10.103  0.2908 -0.3507  0.9642
   57SAPC   C33 4236   1.465   5.704   9.840 -0.1641  0.0607 -0.0960
   57SAPC   H3X 4237   1.555   5.639   9.843  0.6162  1.1480  0.6444
   57SAPC   H3Y 4238   1.501   5.809   9.834  0.6460 -0.2460 -0.9109
   57SAPC   C34 4239   1.379   5.679   9.713 -0.4046  0.1541  0.4041
   57SAPC   H4X 4240   1.310   5.765   9.725 -0.7939 -0.1956  0.6886
   57SAPC   H4Y 4241   1.328   5.580   9.719 -1.0781  0.4001 -0.9254
   57SAPC   C35 4242   1.461   5.682   9.586  0.0066  0.1903  0.0320
   57SAPC   H5X 4243   1.543   5.609   9.603  1.0087  1.0450 -1.0051
   57SAPC   H5Y 4244   1.511   5.780   9.570 -0.3996  0.1176 -1.9550
   57SAPC   C36 4245   1.379   5.646   9.460 -0.4728 -0.7814  0.2100
   57SAPC   H6X 4246   1.311   5.731   9.437  1.1850  1.3692  2.6180
   57SAPC   H6Y 4247   1.302   5.567   9.474 -1.8948 -0.0997 -2.9109
   57SAPC   C37 4248   1.462   5.607   9.334  0.0748 -0.1122 -0.1728
   57SAPC   H7X 4249   1.423   5.506   9.307 -2.2807  0.8230 -0.4312
   57SAPC   H7Y 4250   1.571   5.592   9.352  0.0864 -1.6812 -1.2913
   57SAPC   C38 4251   1.442   5.687   9.200 -0.2630 -0.1817 -0.8113
   57SAPC   H8X 4252   1.334   5.707   9.185 -0.1410  0.4053 -0.9367
   57SAPC   H8Y 4253   1.457   5.607   9.125 -1.0855  0.5105 -1.7303
   57SAPC   C39 4254   1.534   5.802   9.174  0.4901  0.2605 -0.2541
   57SAPC   H9X 4255   1.630   5.750   9.156 -0.5277 -1.9293  0.3248
   57SAPC   H9Y 4256   1.536   5.871   9.261 -1.6480  3.8780 -2.8200
   57SAPC  C310 4257   1.477   5.882   9.057  0.9325  0.2735 -0.3946
   57SAPC  H10X 4258   1.375   5.920   9.080  0.0232 -2.1889 -0.1178
   57SAPC  H10Y 4259   1.458   5.810   8.974  1.0189  1.1159 -1.1700
   57SAPC  C311 4260   1.561   5.992   8.997 -0.4245 -0.0979 -0.7077
   57SAPC  H11X 4261   1.663   5.954   8.975  0.2500  1.7924 -1.0627
   57SAPC  H11Y 4262   1.559   6.074   9.072  1.5188 -0.5902 -0.0559
   57SAPC  C312 4263   1.500   6.058   8.871  0.0678  0.6461  0.7489
   57SAPC  H12X 4264   1.389   6.066   8.874 -0.1334 -1.3465 -0.0154
   57SAPC  H12Y 4265   1.519   5.985   8.790 -0.2434 -1.8700  2.8138
   57SAPC  C313 4266   1.557   6.196   8.843  0.3379  0.0188 -0.0162
   57SAPC  H13X 4267   1.667   6.183   8.833  0.6440  1.7528  0.5853
   57SAPC  H13Y 4268   1.533   6.262   8.929  2.5188  1.0717 -0.1222
   57SAPC  C314 4269   1.514   6.236   8.703 -0.2989 -0.7089 -0.1498
   57SAPC  H14X 4270   1.403   6.248   8.695 -0.4755 -0.4632  2.0798
   57SAPC  H14Y 4271   1.552   6.165   8.626  1.5116  1.1874 -1.1174
   57SAPC  C315 4272   1.576   6.374   8.672 -0.2164  0.0686  0.5342
   57SAPC  H15X 4273   1.678   6.364   8.630 -1.1371  0.5204 -2.0595
   57SAPC  H15Y 4274   1.586   6.436   8.764  1.0058  0.1340  0.3727
   57SAPC  C316 4275   1.483   6.456   8.568  0.4133  0.0537 -0.2831
   57SAPC  H16X 4276   1.381   6.452   8.612  0.7492 -0.8371  0.4575
   57SAPC  H16Y 4277   1.481   6.396   8.474 -1.8500  0.2619 -0.4258
   57SAPC  C317 4278   1.515   6.604   8.541 -0.3058 -0.5733 -0.3090
   57SAPC  H17X 4279   1.626   6.612   8.530  0.3685 -1.4242  3.9145
   57SAPC  H17Y 4280   1.494   6.673   8.625 -1.5424  0.5351 -1.4851
   57SAPC  C318 4281   1.446   6.655   8.412  0.1530  0.8846  0.1636
   57SAPC  H18X 4282   1.505   6.612   8.328 -0.8901  0.1865 -0.2258
   57SAPC  H18Y 4283   1.452   6.766   8.411 -1.3100  0.9870  0.9235
   57SAPC  H18Z 4284   1.340   6.622   8.404 -0.0455  1.0014  1.9196
   58SAPC     N 4285   5.397   3.470  11.232  0.1879  0.0368 -0.3573
   58SAPC   C12 4286   5.328   3.355  11.154 -0.4474  0.2245 -0.0875
   58SAPC  H12A 4287   5.223   3.381  11.149 -0.7464 -0.6986  1.0150
   58SAPC  H12B 4288   5.347   3.268  11.215  0.2553  0.6745  0.3565
   58SAPC   C13 4289   5.318   3.485  11.360  0.0667  0.2029 -0.1995
   58SAPC  H13A 4290   5.223   3.532  11.338  0.3123  0.8344  0.0481
   58SAPC  H13B 4291   5.297   3.391  11.409 -0.0958  0.8602  1.0321
   58SAPC  H13C 4292   5.364   3.545  11.438 -0.8592  0.9345 -0.1898
   58SAPC   C14 4293   5.536   3.429  11.266  0.1964 -0.4387  0.0598
   58SAPC  H14A 4294   5.583   3.509  11.321 -0.1678 -0.2812  0.1383
   58SAPC  H14B 4295   5.555   3.335  11.315  2.6363 -0.5391 -0.9390
   58SAPC  H14C 4296   5.579   3.418  11.168 -0.1678 -0.9652 -0.0486
   58SAPC   C15 4297   5.385   3.598  11.156 -0.5394 -0.2785  0.3823
   58SAPC  H15A 4298   5.423   3.678  11.218 -1.3751 -0.2650  0.8933
   58SAPC  H15B 4299   5.444   3.592  11.065  0.5962  0.4995  1.0458
   58SAPC  H15C 4300   5.286   3.606  11.114 -0.2470 -2.7253 -0.9301
   58SAPC   C11 4301   5.372   3.319  11.010  0.1535  0.2328  0.5904
   58SAPC  H11A 4302   5.319   3.228  10.974  1.3877  0.0924 -0.9769
   58SAPC  H11B 4303   5.480   3.292  11.006 -0.5832 -3.3163  0.6717
   58SAPC     P 4304   5.214   3.480  10.864  0.1808 -0.0246  0.1140
   58SAPC   O13 4305   5.097   3.443  10.950  0.0561  0.1732 -0.9642
   58SAPC   O14 4306   5.228   3.620  10.823 -0.7115  0.2150 -0.5359
   58SAPC   O12 4307   5.351   3.429  10.922 -0.1209 -0.0812 -0.8052
   58SAPC   O11 4308   5.195   3.399  10.730 -0.0800  0.1004 -0.4344
   58SAPC    C1 4309   5.305   3.366  10.639  0.0674  0.3367 -0.4270
   58SAPC    HA 4310   5.403   3.344  10.688 -0.3549  1.3601  0.9393
   58SAPC    HB 4311   5.274   3.278  10.579  0.9165  1.1181 -2.0818
   58SAPC    C2 4312   5.335   3.484  10.538 -0.2144 -0.1669  0.3319
   58SAPC    HS 4313   5.356   3.570  10.605  2.9264 -1.4501  1.1336
   58SAPC   O21 4314   5.219   3.506  10.452 -0.3476  0.3967  0.7504
   58SAPC   C21 4315   5.195   3.639  10.429 -0.3123 -0.3174  0.2375
   58SAPC   O22 4316   5.265   3.730  10.469  0.2133 -0.0996 -0.1918
   58SAPC   C22 4317   5.066   3.654  10.345 -0.6544 -0.1240  0.4573
   58SAPC   H2R 4318   5.001   3.570  10.378 -0.8558 -1.2371 -2.5155
   58SAPC   H2S 4319   5.019   3.754  10.352  1.1559  0.7400  0.9032
   58SAPC    C3 4320   5.464   3.438  10.463 -0.5765  0.7131  0.3926
   58SAPC    HX 4321   5.465   3.332  10.430 -3.2992  0.4298  0.9960
   58SAPC    HY 4322   5.547   3.437  10.537  0.8662  0.3054 -1.1692
   58SAPC   O31 4323   5.511   3.525  10.355 -0.6796  0.2063  0.1314
   58SAPC   C31 4324   5.484   3.486  10.230  0.6607  0.5311 -1.0923
   58SAPC   O32 4325   5.407   3.401  10.195 -0.2660 -0.4656 -0.1916
   58SAPC   C32 4326   5.544   3.584  10.131 -1.0043  0.3195  0.1105
   58SAPC   H2X 4327   5.654   3.594  10.142 -1.0433  0.9787 -0.0586
   58SAPC   H2Y 4328   5.497   3.678  10.167 -0.7371  0.1681  0.8885
   58SAPC   C23 4329   5.084   3.627  10.185 -0.2949  0.2807  0.7714
   58SAPC   H3R 4330   4.984   3.599  10.144 -0.3795 -0.2509  1.3245
   58SAPC   H3S 4331   5.157   3.547  10.165 -1.0189  0.2846 -2.3558
   58SAPC   C24 4332   5.116   3.757  10.107 -0.3340  0.1584 -0.0693
   58SAPC   H4R 4333   5.214   3.799  10.139 -1.2930  1.9094  0.7015
   58SAPC   H4S 4334   5.037   3.828  10.138 -0.5205 -0.2095  0.3152
   58SAPC   C25 4335   5.128   3.730   9.958 -0.0931  0.1374  0.0041
   58SAPC   H5R 4336   5.172   3.633   9.930 -0.0288 -0.1650  1.1106
   58SAPC   C26 4337   5.098   3.825   9.867  0.5173 -0.2844 -0.0680
   58SAPC   H6R 4338   5.101   3.800   9.760  0.8959 -0.3452 -0.0421
   58SAPC   C27 4339   5.042   3.970   9.893  0.2884  0.4212 -0.9866
   58SAPC   H7R 4340   5.105   4.048   9.845 -2.2331  1.9641 -1.9785
   58SAPC   H7S 4341   5.055   3.998  10.000  0.0808 -1.1654 -0.5214
   58SAPC   C28 4342   4.899   3.994   9.857  0.2891  0.5734  0.1431
   58SAPC   H8R 4343   4.838   4.030   9.941 -1.8178  2.4215 -2.0449
   58SAPC   C29 4344   4.836   3.977   9.743  0.2903 -0.1882 -0.0037
   58SAPC   H9R 4345   4.727   3.993   9.747  0.3493 -0.1028  2.6857
   58SAPC  C210 4346   4.898   3.923   9.613  0.6332  0.0871  0.0282
   58SAPC  H10R 4347   4.859   3.820   9.604 -2.2934  1.2740 -2.5971
   58SAPC  H10S 4348   5.009   3.919   9.621  0.8004  0.9196 -1.5575
   58SAPC  C211 4349   4.865   3.995   9.484  0.3268  0.4524  0.1964
   58SAPC  H11R 4350   4.950   4.037   9.427  0.2338 -1.0877 -1.1325
   58SAPC  C212 4351   4.746   3.988   9.418  0.3199 -0.4183 -0.2971
   58SAPC  H12R 4352   4.742   4.026   9.315 -1.9529 -2.3765 -1.0125
   58SAPC  C213 4353   4.619   3.923   9.452 -0.3794  0.1048 -0.7394
   58SAPC  H13R 4354   4.536   3.995   9.437  1.1942  1.7501 -1.9763
   58SAPC  H13S 4355   4.610   3.902   9.561 -0.1268 -1.2899 -0.9731
   58SAPC  C214 4356   4.605   3.790   9.381 -0.4444 -0.0257  0.4587
   58SAPC  H14R 4357   4.655   3.705   9.430  1.2323  0.5063 -0.2616
   58SAPC  C215 4358   4.533   3.765   9.274 -0.3751  0.7747  0.5850
   58SAPC  H15R 4359   4.529   3.658   9.249  0.6807  0.8531  0.0530
   58SAPC  C216 4360   4.464   3.866   9.178  0.0559  0.5845 -0.6307
   58SAPC  H16R 4361   4.542   3.936   9.141  2.6210 -1.3376  0.7395
   58SAPC  H16S 4362   4.378   3.911   9.232 -1.8514 -2.2747 -1.0452
   58SAPC  C217 4363   4.403   3.794   9.052  0.1835 -0.0396 -0.5146
   58SAPC  H17R 4364   4.348   3.867   8.990 -0.7983  0.1628  0.5468
   58SAPC  H17S 4365   4.325   3.718   9.075 -1.5127  2.0252  1.1003
   58SAPC  C218 4366   4.502   3.731   8.960  0.7373 -0.2265  0.4238
   58SAPC  H18R 4367   4.564   3.646   8.996  1.1832 -1.1377 -2.3146
   58SAPC  H18S 4368   4.572   3.813   8.934  1.1815 -1.0953 -1.2204
   58SAPC  C219 4369   4.430   3.688   8.827 -0.4472  0.0918  0.8069
   58SAPC  H19R 4370   4.372   3.766   8.774 -0.8766 -0.2986  0.6973
   58SAPC  H19S 4371   4.360   3.604   8.847  1.1846 -1.3819  0.5856
   58SAPC  C220 4372   4.524   3.623   8.726 -0.2469  0.5548  0.3723
   58SAPC  H20R 4373   4.555   3.526   8.770 -1.1764 -0.4028 -1.0066
   58SAPC  H20S 4374   4.618   3.682   8.718 -0.0728  0.2493  0.1601
   58SAPC  H20T 4375   4.466   3.608   8.632  2.0066 -0.1842 -0.9773
   58SAPC   C33 4376   5.504   3.553   9.990 -0.2297  0.5307  0.2614
   58SAPC   H3X 4377   5.395   3.560   9.972 -0.1021 -0.1272 -0.8511
   58SAPC   H3Y 4378   5.535   3.448   9.974 -1.0509  0.0901  1.5433
   58SAPC   C34 4379   5.578   3.628   9.876 -0.0593 -0.5196 -0.3598
   58SAPC   H4X 4380   5.542   3.601   9.775 -1.2035  0.3436 -0.1929
   58SAPC   H4Y 4381   5.686   3.601   9.880  0.4414  1.3590  0.0788
   58SAPC   C35 4382   5.560   3.777   9.891  0.2625 -0.5557 -0.0287
   58SAPC   H5X 4383   5.610   3.802   9.987 -0.1212  2.1262 -0.4703
   58SAPC   H5Y 4384   5.452   3.804   9.896  0.4228  0.2064 -0.5046
   58SAPC   C36 4385   5.628   3.862   9.782  0.3057 -0.0415  0.3302
   58SAPC   H6X 4386   5.734   3.835   9.763  0.0099 -1.0104 -0.0535
   58SAPC   H6Y 4387   5.620   3.968   9.814 -0.4372 -1.0946  4.0558
   58SAPC   C37 4388   5.552   3.842   9.647 -0.1873 -0.6654 -0.4748
   58SAPC   H7X 4389   5.447   3.875   9.665 -0.5176 -1.7198 -0.3435
   58SAPC   H7Y 4390   5.530   3.738   9.614 -0.3859 -0.3160 -1.4746
   58SAPC   C38 4391   5.616   3.907   9.528 -0.3344 -0.0496 -0.1834
   58SAPC   H8X 4392   5.716   3.859   9.516  0.2737  1.3676 -1.1091
   58SAPC   H8Y 4393   5.630   4.014   9.555 -0.2386 -0.1561  0.1868
   58SAPC   C39 4394   5.530   3.856   9.404 -0.1267 -0.1649  0.7533
   58SAPC   H9X 4395   5.436   3.914   9.391 -0.8529 -1.5362 -0.4082
   58SAPC   H9Y 4396   5.494   3.751   9.412 -0.0687 -0.2858 -0.4317
   58SAPC  C310 4397   5.617   3.874   9.277 -0.2725  0.4079 -0.2003
   58SAPC  H10X 4398   5.716   3.828   9.299  0.4387  1.5562 -0.8833
   58SAPC  H10Y 4399   5.644   3.981   9.286  0.2579  0.2811 -0.2793
   58SAPC  C311 4400   5.549   3.822   9.150  0.8993  0.2029  0.0307
   58SAPC  H11X 4401   5.464   3.889   9.125  1.4535  0.7218 -0.4743
   58SAPC  H11Y 4402   5.506   3.720   9.163  1.0327  0.3259  1.5704
   58SAPC  C312 4403   5.653   3.835   9.034  0.4102 -0.2059  0.2272
   58SAPC  H12X 4404   5.684   3.941   9.021  1.4389 -0.6746 -1.6004
   58SAPC  H12Y 4405   5.602   3.797   8.943 -3.0652  3.7240  0.2439
   58SAPC  C313 4406   5.778   3.757   9.071  0.3061  0.0811 -0.0148
   58SAPC  H13X 4407   5.749   3.665   9.127  1.0328 -0.3856 -0.3889
   58SAPC  H13Y 4408   5.844   3.821   9.133  0.2839  0.0157  0.0774
   58SAPC  C314 4409   5.866   3.721   8.946  0.0432 -0.3354 -0.4824
   58SAPC  H14X 4410   5.895   3.810   8.886 -0.0874 -0.1736 -0.3087
   58SAPC  H14Y 4411   5.802   3.665   8.876  0.2278  0.0309 -0.9477
   58SAPC  C315 4412   5.997   3.653   8.974 -0.4464 -0.2300  0.4951
   58SAPC  H15X 4413   5.990   3.559   9.032  1.5588 -1.4259 -1.0563
   58SAPC  H15Y 4414   6.068   3.723   9.024  2.1502 -1.1775 -1.6365
   58SAPC  C316 4415   6.074   3.613   8.850  0.1397 -0.8039  0.7971
   58SAPC  H16X 4416   6.185   3.610   8.856  0.0727 -0.4732  2.6098
   58SAPC  H16Y 4417   6.057   3.685   8.768  2.3138 -0.4683  0.5834
   58SAPC  C317 4418   6.019   3.482   8.787 -0.4674 -0.2597 -0.4972
   58SAPC  H17X 4419   5.909   3.475   8.801 -0.4019 -0.2057  0.0665
   58SAPC  H17Y 4420   6.063   3.398   8.844  0.5697  1.0153  0.6642
   58SAPC  C318 4421   6.050   3.465   8.641 -1.1278 -0.2430  0.2693
   58SAPC  H18X 4422   6.155   3.429   8.644 -1.2149 -0.4349  1.2834
   58SAPC  H18Y 4423   6.033   3.547   8.568 -0.3226  0.5468  0.9352
   58SAPC  H18Z 4424   6.002   3.376   8.596  0.7968 -1.2206  0.0061
   59SAPC     N 4425   0.999   4.276  11.463  0.1715  0.0411 -0.8250
   59SAPC   C12 4426   0.864   4.356  11.444 -0.6314 -0.3230 -0.4181
   59SAPC  H12A 4427   0.889   4.438  11.377 -2.4126  2.5229  2.1174
   59SAPC  H12B 4428   0.837   4.403  11.537 -0.2522 -2.5081  0.8497
   59SAPC   C13 4429   1.073   4.230  11.337 -0.3510 -0.3186 -0.1591
   59SAPC  H13A 4430   1.173   4.198  11.362 -0.3260  2.2625  4.0249
   59SAPC  H13B 4431   1.013   4.151  11.292  1.1960 -2.4387  1.3136
   59SAPC  H13C 4432   1.075   4.310  11.265 -1.3047  0.8460  1.0681
   59SAPC   C14 4433   1.100   4.374  11.530  0.2339 -0.0585 -0.1157
   59SAPC  H14A 4434   1.150   4.433  11.455  3.4626 -1.0537  1.0672
   59SAPC  H14B 4435   1.038   4.444  11.584 -2.1855 -1.6588 -0.6761
   59SAPC  H14C 4436   1.185   4.328  11.578  2.3801  2.5233 -1.1695
   59SAPC   C15 4437   0.972   4.164  11.560  0.4412  0.4707 -0.3817
   59SAPC  H15A 4438   1.064   4.109  11.574 -0.8939 -1.7246  0.3688
   59SAPC  H15B 4439   0.934   4.202  11.654 -1.3303 -0.0966 -0.8266
   59SAPC  H15C 4440   0.904   4.093  11.515  1.7376 -1.7665  0.9917
   59SAPC   C11 4441   0.740   4.296  11.379 -0.5054  0.1207 -0.2368
   59SAPC  H11A 4442   0.776   4.280  11.275  1.7918  1.3797  0.2992
   59SAPC  H11B 4443   0.656   4.369  11.383  1.2485  2.2161 -0.1572
   59SAPC     P 4444   0.640   4.058  11.371  0.5960  0.0366 -0.0792
   59SAPC   O13 4445   0.726   3.977  11.287  0.1918  0.4454 -0.2470
   59SAPC   O14 4446   0.564   3.978  11.466  0.7063  0.1923  0.6475
   59SAPC   O12 4447   0.718   4.172  11.450  0.1253 -0.5655  0.5504
   59SAPC   O11 4448   0.553   4.147  11.280 -0.2506  0.0390 -0.5120
   59SAPC    C1 4449   0.453   4.095  11.199 -0.1476  0.7129  0.4600
   59SAPC    HA 4450   0.403   4.004  11.239  0.1248  0.8271  1.0773
   59SAPC    HB 4451   0.368   4.166  11.193 -0.3356  0.6236  1.6988
   59SAPC    C2 4452   0.504   4.064  11.055  0.7342 -0.3087 -0.4134
   59SAPC    HS 4453   0.587   3.994  11.073 -0.6128 -1.1496  3.4048
   59SAPC   O21 4454   0.536   4.191  10.998  0.1611  0.0865 -0.3005
   59SAPC   C21 4455   0.635   4.184  10.907  0.1572  0.0286 -0.1502
   59SAPC   O22 4456   0.688   4.083  10.869 -0.6979 -0.0028  0.0153
   59SAPC   C22 4457   0.680   4.322  10.861  0.3877  0.1796  0.2939
   59SAPC   H2R 4458   0.592   4.390  10.869 -0.7182 -1.1592 -0.0842
   59SAPC   H2S 4459   0.747   4.373  10.933  0.1971  2.9349 -1.3061
   59SAPC    C3 4460   0.387   3.995  10.980 -0.6124 -0.0443  0.3881
   59SAPC    HX 4461   0.308   4.073  10.974 -0.4975  0.1706  1.4066
   59SAPC    HY 4462   0.348   3.914  11.045  0.5109 -0.2724  0.8068
   59SAPC   O31 4463   0.442   3.949  10.850 -0.1742 -0.4602 -0.6092
   59SAPC   C31 4464   0.372   3.981  10.741 -0.4106 -0.5157 -0.8281
   59SAPC   O32 4465   0.261   4.023  10.741 -0.1894  0.1765 -0.3079
   59SAPC   C32 4466   0.458   3.929  10.623  0.5134  0.4103 -0.0083
   59SAPC   H2X 4467   0.474   3.819  10.628  1.7031  0.5495 -0.2859
   59SAPC   H2Y 4468   0.556   3.981  10.624 -0.1949  1.8012 -0.4705
   59SAPC   C23 4469   0.738   4.325  10.720  0.2266 -0.0392 -0.2448
   59SAPC   H3R 4470   0.671   4.276  10.646 -1.1166 -0.3244  1.1011
   59SAPC   H3S 4471   0.827   4.258  10.725  0.7223  0.7106  1.4859
   59SAPC   C24 4472   0.773   4.475  10.683  0.6826  0.0703  0.0726
   59SAPC   H4R 4473   0.822   4.514  10.775  0.1667  0.9742 -0.0162
   59SAPC   H4S 4474   0.681   4.532  10.655  1.6912  1.0117 -1.4794
   59SAPC   C25 4475   0.864   4.482  10.560  0.3878  0.0464  0.1134
   59SAPC   H5R 4476   0.970   4.498  10.585 -0.1946  2.3086  1.4575
   59SAPC   C26 4477   0.824   4.471  10.435  0.0545  0.8054 -0.6503
   59SAPC   H6R 4478   0.903   4.492  10.361 -0.6155  1.7786 -1.1113
   59SAPC   C27 4479   0.686   4.447  10.372 -0.0492  0.3816  0.1114
   59SAPC   H7R 4480   0.610   4.483  10.445  0.7012  2.9644 -0.2818
   59SAPC   H7S 4481   0.672   4.338  10.355  1.9532  0.4137 -2.2656
   59SAPC   C28 4482   0.661   4.516  10.240 -0.3822 -0.0507  0.2860
   59SAPC   H8R 4483   0.607   4.611  10.253 -0.6503 -0.4939  3.0940
   59SAPC   C29 4484   0.698   4.485  10.116  0.0743  0.4895  0.1071
   59SAPC   H9R 4485   0.674   4.557  10.036 -0.5537 -0.9722 -1.0841
   59SAPC  C210 4486   0.784   4.361  10.079  0.7461  0.0386 -0.0268
   59SAPC  H10R 4487   0.810   4.310  10.174 -1.4860 -0.5185  0.3213
   59SAPC  H10S 4488   0.881   4.393  10.034  0.7253  2.3442  1.3722
   59SAPC  C211 4489   0.707   4.269   9.988 -0.1617 -0.1486 -0.2594
   59SAPC  H11R 4490   0.643   4.200  10.046 -1.0355  2.3273  1.8750
   59SAPC  C212 4491   0.687   4.270   9.853  0.6527 -0.4342  0.0412
   59SAPC  H12R 4492   0.647   4.178   9.808 -0.6130  0.8715 -1.6271
   59SAPC  C213 4493   0.744   4.370   9.756 -0.1502  0.4825  0.6171
   59SAPC  H13R 4494   0.807   4.438   9.817  0.8853  0.4477 -0.3758
   59SAPC  H13S 4495   0.664   4.443   9.733 -0.5316 -0.3860 -0.9329
   59SAPC  C214 4496   0.803   4.323   9.625  0.5915 -0.1709  0.5420
   59SAPC  H14R 4497   0.873   4.238   9.637  1.4783  0.2800 -1.1152
   59SAPC  C215 4498   0.788   4.362   9.498 -0.2069 -0.7405 -0.0685
   59SAPC  H15R 4499   0.840   4.302   9.423  0.4237 -1.9448  1.2865
   59SAPC  C216 4500   0.710   4.474   9.437  0.6680 -0.7432  0.3119
   59SAPC  H16R 4501   0.666   4.550   9.506 -2.6190  0.6465 -2.9266
   59SAPC  H16S 4502   0.627   4.424   9.382 -1.0980 -0.0966  2.2511
   59SAPC  C217 4503   0.780   4.548   9.317  0.0762 -1.2167 -0.2579
   59SAPC  H17R 4504   0.812   4.482   9.233 -0.1952  0.2692 -1.5789
   59SAPC  H17S 4505   0.873   4.593   9.357  0.3857 -0.0732 -2.1671
   59SAPC  C218 4506   0.691   4.664   9.267  0.6321  1.0475  0.3840
   59SAPC  H18R 4507   0.643   4.719   9.350 -2.6551  0.3350 -0.9005
   59SAPC  H18S 4508   0.608   4.620   9.209  0.9686 -0.6755  1.1307
   59SAPC  C219 4509   0.768   4.758   9.176  0.3308  0.0222  0.7491
   59SAPC  H19R 4510   0.834   4.694   9.113 -0.2461 -2.0124  2.1104
   59SAPC  H19S 4511   0.836   4.821   9.237  1.2981 -2.6370  2.6123
   59SAPC  C220 4512   0.668   4.836   9.095 -0.2263 -0.5537  0.4211
   59SAPC  H20R 4513   0.719   4.917   9.038 -0.0138 -0.6689  0.4452
   59SAPC  H20S 4514   0.589   4.877   9.161 -0.4670 -1.2172  0.5525
   59SAPC  H20T 4515   0.610   4.775   9.023  0.6980 -1.3077  0.2962
   59SAPC   C33 4516   0.385   3.955  10.494  0.2445  0.6214 -0.1994
   59SAPC   H3X 4517   0.366   4.063  10.476 -2.0201  0.2741 -0.2381
   59SAPC   H3Y 4518   0.284   3.910  10.504  1.5993 -2.5434  0.6992
   59SAPC   C34 4519   0.471   3.906  10.374 -0.2803 -0.3984  0.6275
   59SAPC   H4X 4520   0.494   3.799  10.394  0.7155 -0.5273 -0.9873
   59SAPC   H4Y 4521   0.568   3.957  10.353 -0.1479  0.3384  2.7607
   59SAPC   C35 4522   0.395   3.909  10.243  0.1854 -0.0449  0.4286
   59SAPC   H5X 4523   0.371   4.016  10.225 -0.5269 -0.6104 -2.5845
   59SAPC   H5Y 4524   0.303   3.849  10.254 -0.5679  0.6741 -1.4593
   59SAPC   C36 4525   0.479   3.853  10.128 -0.5167  0.4125 -0.1669
   59SAPC   H6X 4526   0.488   3.745  10.153 -2.0373  0.1545 -0.6527
   59SAPC   H6Y 4527   0.583   3.888  10.142  0.1676 -1.3726 -0.5228
   59SAPC   C37 4528   0.425   3.880   9.983  0.6247 -0.1976 -0.2814
   59SAPC   H7X 4529   0.423   3.990   9.970 -2.8608  0.1005  1.6090
   59SAPC   H7Y 4530   0.321   3.843   9.974  0.3108  0.5642  0.1021
   59SAPC   C38 4531   0.512   3.819   9.877  0.3721  0.5270  0.3992
   59SAPC   H8X 4532   0.505   3.709   9.888 -0.3278  0.7783  3.2246
   59SAPC   H8Y 4533   0.620   3.844   9.890  1.4779 -1.2038 -3.7706
   59SAPC   C39 4534   0.470   3.854   9.735  0.0824 -0.0759  0.3014
   59SAPC   H9X 4535   0.500   3.955   9.699  2.0162 -1.5695 -2.7189
   59SAPC   H9Y 4536   0.361   3.850   9.715  0.1828 -1.0442 -0.0889
   59SAPC  C310 4537   0.539   3.759   9.635  0.1393 -0.0071  0.2117
   59SAPC  H10X 4538   0.527   3.663   9.689  2.3509 -1.2040 -1.2572
   59SAPC  H10Y 4539   0.648   3.777   9.633 -0.1501  1.9203 -0.5713
   59SAPC  C311 4540   0.477   3.760   9.495 -0.3718  0.2193 -0.2536
   59SAPC  H11X 4541   0.366   3.759   9.496 -0.3673 -0.4139  0.0429
   59SAPC  H11Y 4542   0.512   3.668   9.444 -1.0608 -0.2850  0.1537
   59SAPC  C312 4543   0.523   3.885   9.407 -0.1975  0.2962 -0.8470
   59SAPC  H12X 4544   0.632   3.869   9.393 -0.1337  1.4506 -1.8563
   59SAPC  H12Y 4545   0.503   3.980   9.461  1.1218  0.7579 -1.1314
   59SAPC  C313 4546   0.454   3.883   9.265 -0.3516 -0.2247 -0.2055
   59SAPC  H13X 4547   0.349   3.914   9.280  0.1295  1.8064 -0.8007
   59SAPC  H13Y 4548   0.465   3.782   9.220 -1.4957  0.1594 -1.4197
   59SAPC  C314 4549   0.523   3.976   9.173 -0.3900 -0.1854 -0.2447
   59SAPC  H14X 4550   0.448   3.974   9.091 -2.2939 -3.7899  1.3512
   59SAPC  H14Y 4551   0.615   3.930   9.130 -0.3553  0.0890 -0.4615
   59SAPC  C315 4552   0.541   4.120   9.229  0.4146  0.2090  0.2972
   59SAPC  H15X 4553   0.634   4.109   9.290  0.5451 -0.3000  0.0190
   59SAPC  H15Y 4554   0.461   4.157   9.296 -0.0842 -1.9180  0.9497
   59SAPC  C316 4555   0.553   4.235   9.118 -0.1990  0.1381  0.2126
   59SAPC  H16X 4556   0.574   4.332   9.166 -0.0470 -0.2754  1.0012
   59SAPC  H16Y 4557   0.453   4.236   9.069  0.6035  0.5044 -1.4825
   59SAPC  C317 4558   0.647   4.200   9.003  0.2406  0.2082  0.5139
   59SAPC  H17X 4559   0.610   4.104   8.961 -0.6284  0.4827  0.6537
   59SAPC  H17Y 4560   0.750   4.189   9.045  0.7026 -1.3757 -0.8891
   59SAPC  C318 4561   0.665   4.304   8.895  0.0222  0.4764 -0.0339
   59SAPC  H18X 4562   0.564   4.331   8.857  0.2881 -0.9921 -1.9451
   59SAPC  H18Y 4563   0.729   4.275   8.809 -0.5368  2.9630 -1.3889
   59SAPC  H18Z 4564   0.710   4.391   8.948 -1.6794  1.1643  0.3505
   60SAPC     N 4565   3.056   2.940  11.183 -0.3323 -0.3251  0.1376
   60SAPC   C12 4566   2.996   3.034  11.085 -0.3416 -0.4564 -0.0478
   60SAPC  H12A 4567   3.012   3.133  11.126 -2.0783 -0.0957 -0.1454
   60SAPC  H12B 4568   2.888   3.031  11.078 -0.4980  1.4475  0.8606
   60SAPC   C13 4569   3.031   2.797  11.147 -0.5317 -0.3710 -0.0600
   60SAPC  H13A 4570   2.929   2.781  11.116 -1.1243 -0.9414  2.0086
   60SAPC  H13B 4571   3.096   2.769  11.065 -0.0536  1.0008 -0.1772
   60SAPC  H13C 4572   3.049   2.736  11.234  0.4911 -0.6396 -0.4441
   60SAPC   C14 4573   3.198   2.964  11.202  0.3340 -0.3403  0.4361
   60SAPC  H14A 4574   3.210   3.063  11.244  0.2251  0.9609 -2.3908
   60SAPC  H14B 4575   3.241   2.890  11.269  0.1435  0.8258  1.8949
   60SAPC  H14C 4576   3.256   2.973  11.112 -1.4513  0.4465 -0.6751
   60SAPC   C15 4577   2.984   2.965  11.314  0.4092 -0.8341 -0.7150
   60SAPC  H15A 4578   2.990   3.072  11.326  1.0454 -1.0290  1.0287
   60SAPC  H15B 4579   2.881   2.936  11.302  0.3365 -0.3003 -1.4545
   60SAPC  H15C 4580   3.024   2.907  11.396 -0.8608  0.3809  0.8425
   60SAPC   C11 4581   3.042   3.019  10.936 -0.1384 -0.4091  0.3643
   60SAPC  H11A 4582   2.983   3.084  10.867  1.0521  1.5960  1.1429
   60SAPC  H11B 4583   3.015   2.917  10.901 -1.4796  0.0242  0.0396
   60SAPC     P 4584   3.248   3.173  10.901 -0.6945  0.3553  0.0053
   60SAPC   O13 4585   3.242   3.237  11.035 -0.5787 -0.1604 -0.2804
   60SAPC   O14 4586   3.386   3.164  10.845 -0.3531 -0.1390  0.1755
   60SAPC   O12 4587   3.178   3.037  10.914 -0.0034 -0.3514 -0.1749
   60SAPC   O11 4588   3.157   3.255  10.798  0.0323  0.4705 -0.0992
   60SAPC    C1 4589   3.167   3.241  10.659 -0.5424 -0.2428 -0.0721
   60SAPC    HA 4590   3.263   3.283  10.621 -0.0376 -1.9072 -0.7036
   60SAPC    HB 4591   3.175   3.135  10.630 -0.4473 -0.5576  1.0431
   60SAPC    C2 4592   3.057   3.320  10.591  0.1054  0.0737  0.0467
   60SAPC    HS 4593   3.062   3.428  10.615 -1.0027  0.0388  0.5124
   60SAPC   O21 4594   2.932   3.260  10.637  0.1638  0.0892  0.1905
   60SAPC   C21 4595   2.831   3.351  10.656 -0.5097 -0.7049  0.9121
   60SAPC   O22 4596   2.845   3.470  10.636 -0.2802  0.1435 -0.5119
   60SAPC   C22 4597   2.701   3.290  10.714  0.0086 -0.3988 -0.0056
   60SAPC   H2R 4598   2.731   3.202  10.774  3.0890  0.3615 -0.2449
   60SAPC   H2S 4599   2.651   3.355  10.790  0.3878  1.2105 -1.0902
   60SAPC    C3 4600   3.067   3.327  10.432 -0.1803 -1.2036 -0.5052
   60SAPC    HX 4601   3.092   3.223  10.399  2.2135 -0.4748 -1.1960
   60SAPC    HY 4602   3.158   3.388  10.415 -0.3951 -1.1660 -1.6398
   60SAPC   O31 4603   2.950   3.379  10.366  0.0076  0.5032 -0.2575
   60SAPC   C31 4604   2.954   3.509  10.332 -0.4451  0.7032  0.3524
   60SAPC   O32 4605   3.037   3.589  10.359  0.1895 -0.3042 -0.0485
   60SAPC   C32 4606   2.828   3.543  10.252 -0.3767  0.1817  0.0984
   60SAPC   H2X 4607   2.819   3.654  10.255 -0.3326  0.1645  1.1177
   60SAPC   H2Y 4608   2.743   3.498  10.307  1.8628 -2.9425  1.2810
   60SAPC   C23 4609   2.598   3.258  10.608  0.3320 -0.4379 -0.2006
   60SAPC   H3R 4610   2.521   3.195  10.658 -3.3881  1.4586 -3.1025
   60SAPC   H3S 4611   2.643   3.198  10.526  2.1759  1.3681 -0.5818
   60SAPC   C24 4612   2.544   3.389  10.549  0.1933  0.4554 -0.0104
   60SAPC   H4R 4613   2.620   3.428  10.477  2.0608  0.2530  1.7797
   60SAPC   H4S 4614   2.542   3.464  10.630  3.2643  1.0237 -0.3577
   60SAPC   C25 4615   2.409   3.359  10.487  0.5683 -0.0766  0.3573
   60SAPC   H5R 4616   2.334   3.309  10.549  0.1641  0.5799  0.4079
   60SAPC   C26 4617   2.370   3.377  10.359  0.3276 -0.1767 -0.8107
   60SAPC   H6R 4618   2.263   3.362  10.338  0.0981  0.5291 -0.2029
   60SAPC   C27 4619   2.458   3.442  10.253  0.1535 -0.5853 -0.0667
   60SAPC   H7R 4620   2.414   3.427  10.152  0.8454 -0.6782 -0.3583
   60SAPC   H7S 4621   2.551   3.382  10.244 -0.2541 -1.2760  0.2635
   60SAPC   C28 4622   2.497   3.587  10.266  0.2782 -0.1071  0.7586
   60SAPC   H8R 4623   2.558   3.613  10.354  0.2254 -0.6598  0.9600
   60SAPC   C29 4624   2.447   3.683  10.186  0.6709  0.6059 -0.3888
   60SAPC   H9R 4625   2.461   3.785  10.224  1.3452  0.9528 -1.4989
   60SAPC  C210 4626   2.358   3.678  10.067 -0.6408 -0.1283  0.0377
   60SAPC  H10R 4627   2.292   3.767  10.062 -0.8431 -0.3022 -0.4375
   60SAPC  H10S 4628   2.296   3.586  10.078 -1.7047  0.5583 -0.0286
   60SAPC  C211 4629   2.434   3.669   9.938 -0.4492 -0.1080  0.2414
   60SAPC  H11R 4630   2.539   3.700   9.933 -0.4490 -0.2743 -1.8547
   60SAPC  C212 4631   2.380   3.621   9.817  0.5682 -0.0562  0.0814
   60SAPC  H12R 4632   2.452   3.590   9.739  2.4851  1.4266  1.1533
   60SAPC  C213 4633   2.240   3.575   9.801 -0.3058 -0.0017 -0.3909
   60SAPC  H13R 4634   2.189   3.522   9.884 -1.2863  2.2547  0.5144
   60SAPC  H13S 4635   2.231   3.500   9.719  0.1642 -0.1141 -0.3409
   60SAPC  C214 4636   2.152   3.697   9.768 -0.3211  0.0011  0.3177
   60SAPC  H14R 4637   2.152   3.777   9.844 -1.2683  0.4097 -0.0954
   60SAPC  C215 4638   2.083   3.720   9.657 -0.6001  0.1880  0.1216
   60SAPC  H15R 4639   2.012   3.804   9.661 -1.6369 -0.6528 -0.1545
   60SAPC  C216 4640   2.068   3.629   9.541 -0.5144  0.8597  0.1800
   60SAPC  H16R 4641   2.024   3.532   9.570 -1.0440  0.3204 -2.1687
   60SAPC  H16S 4642   2.169   3.622   9.494 -0.3926  1.1518  0.3942
   60SAPC  C217 4643   1.990   3.681   9.423  0.2519 -0.2513 -0.5896
   60SAPC  H17R 4644   2.050   3.745   9.355 -0.4327 -0.2916 -1.2548
   60SAPC  H17S 4645   1.901   3.734   9.463 -0.3039 -0.6980 -1.2110
   60SAPC  C218 4646   1.939   3.569   9.322 -0.8519 -0.0790 -0.1362
   60SAPC  H18R 4647   1.886   3.490   9.380 -3.9706  1.4457 -0.6916
   60SAPC  H18S 4648   2.038   3.534   9.284  0.5364  1.5197  1.7790
   60SAPC  C219 4649   1.857   3.631   9.209  0.6420 -0.2433 -0.5953
   60SAPC  H19R 4650   1.846   3.555   9.129 -0.5526 -1.4393  0.6530
   60SAPC  H19S 4651   1.916   3.718   9.173  1.4285 -0.0365  1.0889
   60SAPC  C220 4652   1.714   3.677   9.258 -0.2764  0.8878  0.3570
   60SAPC  H20R 4653   1.655   3.723   9.177 -0.4212  3.5623  1.8570
   60SAPC  H20S 4654   1.721   3.760   9.332  3.2694  0.9792  0.0992
   60SAPC  H20T 4655   1.662   3.591   9.306 -1.9730  0.5539 -1.9635
   60SAPC   C33 4656   2.839   3.497  10.105 -0.4725 -0.1169  0.0321
   60SAPC   H3X 4657   2.739   3.509  10.056 -0.5648  0.6909  0.4066
   60SAPC   H3Y 4658   2.860   3.389  10.120 -1.2358 -0.2569  0.1283
   60SAPC   C34 4659   2.938   3.583  10.029 -0.0567  0.4443 -0.1897
   60SAPC   H4X 4660   3.031   3.576  10.090 -0.1370 -0.4452 -0.1646
   60SAPC   H4Y 4661   2.904   3.689  10.023 -0.2772  0.3956  0.2121
   60SAPC   C35 4662   2.984   3.522   9.888  0.1066 -0.4418 -0.6030
   60SAPC   H5X 4663   2.895   3.511   9.823 -0.8760  2.3419  0.1016
   60SAPC   H5Y 4664   3.035   3.427   9.916 -1.7279 -0.5285  3.1422
   60SAPC   C36 4665   3.094   3.611   9.826 -0.1599 -0.3141  0.5620
   60SAPC   H6X 4666   3.188   3.603   9.886 -1.3443 -0.7566  2.4700
   60SAPC   H6Y 4667   3.068   3.719   9.833 -1.2027 -0.5951  1.4010
   60SAPC   C37 4668   3.125   3.560   9.688  0.8950  0.2635  0.1842
   60SAPC   H7X 4669   3.031   3.531   9.637  0.5611 -0.4570  1.1787
   60SAPC   H7Y 4670   3.181   3.464   9.689  0.4875  0.0190  1.1014
   60SAPC   C38 4671   3.213   3.655   9.608  0.0059 -0.0400 -0.8379
   60SAPC   H8X 4672   3.312   3.668   9.658 -1.0007 -1.4591  1.6980
   60SAPC   H8Y 4673   3.157   3.751   9.614  1.2558  0.7229 -0.8625
   60SAPC   C39 4674   3.233   3.618   9.461 -0.3879 -0.1005 -0.4136
   60SAPC   H9X 4675   3.166   3.538   9.423 -1.1723  0.4348 -0.1680
   60SAPC   H9Y 4676   3.331   3.566   9.451 -1.4053 -2.4071  0.9087
   60SAPC  C310 4677   3.218   3.730   9.357 -0.4527 -0.3743 -0.1930
   60SAPC  H10X 4678   3.282   3.813   9.393 -1.2261  1.5925 -3.0358
   60SAPC  H10Y 4679   3.116   3.771   9.342 -0.3509  0.7513  1.8226
   60SAPC  C311 4680   3.274   3.688   9.217  0.0273 -0.5316 -0.2991
   60SAPC  H11X 4681   3.380   3.664   9.238  0.4009  0.9482 -0.3840
   60SAPC  H11Y 4682   3.257   3.764   9.138 -0.8211 -0.8899 -0.4666
   60SAPC  C312 4683   3.215   3.560   9.151  0.7857 -0.3478 -0.0946
   60SAPC  H12X 4684   3.222   3.476   9.223 -1.0839 -1.7116 -1.4235
   60SAPC  H12Y 4685   3.282   3.544   9.064  0.8344  0.5772 -0.2333
   60SAPC  C313 4686   3.078   3.599   9.092  0.3407  0.3484  0.5040
   60SAPC  H13X 4687   3.091   3.686   9.025 -1.7453  1.3931  1.3586
   60SAPC  H13Y 4688   3.013   3.642   9.171 -0.0679  3.3950 -1.3245
   60SAPC  C314 4689   2.997   3.495   9.012 -0.1046 -0.1988 -0.5384
   60SAPC  H14X 4690   2.905   3.546   8.976 -0.6615 -0.2371  0.7799
   60SAPC  H14Y 4691   2.947   3.420   9.076 -2.4342  1.6020 -0.0964
   60SAPC  C315 4692   3.066   3.442   8.891  0.0526  0.0593  0.6017
   60SAPC  H15X 4693   3.163   3.395   8.919  0.8537  1.7918  0.8155
   60SAPC  H15Y 4694   3.087   3.520   8.814  0.1216  0.1114  0.6743
   60SAPC  C316 4695   2.982   3.327   8.821 -0.2986 -0.2219  0.8682
   60SAPC  H16X 4696   2.975   3.248   8.898  4.0803  1.6185  3.5830
   60SAPC  H16Y 4697   3.041   3.289   8.735 -2.9046  2.7160 -2.5845
   60SAPC  C317 4698   2.852   3.382   8.762 -0.3464  0.3187 -1.0447
   60SAPC  H17X 4699   2.869   3.469   8.695  1.5093  0.2542 -0.7080
   60SAPC  H17Y 4700   2.789   3.411   8.848  2.3522  1.7687  0.5767
   60SAPC  C318 4701   2.768   3.286   8.681 -0.5676  0.5755  0.0417
   60SAPC  H18X 4702   2.738   3.197   8.740 -0.2953 -0.5191 -1.3931
   60SAPC  H18Y 4703   2.817   3.262   8.584  1.2561  2.1822  0.5038
   60SAPC  H18Z 4704   2.676   3.340   8.650  0.2010  2.1136  0.3443
   61SAPC     N 4705   2.970   2.362  11.053 -0.5037 -0.0254  0.1658
   61SAPC   C12 4706   2.855   2.450  11.075 -0.7200 -0.1632 -0.1098
   61SAPC  H12A 4707   2.814   2.468  10.977 -1.3232  1.2268  0.3742
   61SAPC  H12B 4708   2.892   2.543  11.115 -0.6749 -0.8426  1.5008
   61SAPC   C13 4709   2.937   2.257  10.947 -0.6385  0.0727 -0.2313
   61SAPC  H13A 4710   2.935   2.310  10.853 -2.2841 -0.7009 -0.6692
   61SAPC  H13B 4711   3.019   2.187  10.950 -2.3710 -2.0256  1.5174
   61SAPC  H13C 4712   2.846   2.201  10.960 -1.9845  1.9949 -0.9246
   61SAPC   C14 4713   3.085   2.440  11.006 -0.4844  0.3438 -0.1200
   61SAPC  H14A 4714   3.048   2.480  10.913 -1.6380 -0.6023 -0.0943
   61SAPC  H14B 4715   3.121   2.518  11.071 -0.0738 -0.0358  0.1110
   61SAPC  H14C 4716   3.158   2.363  10.987  1.9577  2.3997  0.4711
   61SAPC   C15 4717   3.020   2.282  11.164  0.4111  0.2600 -0.6255
   61SAPC  H15A 4718   3.093   2.204  11.145 -0.6222 -0.8581 -0.1123
   61SAPC  H15B 4719   3.060   2.339  11.247 -1.8263  0.4339  0.3846
   61SAPC  H15C 4720   2.947   2.223  11.218  2.1233 -0.6210  0.8418
   61SAPC   C11 4721   2.736   2.402  11.161 -0.7267  0.3073 -0.3263
   61SAPC  H11A 4722   2.657   2.480  11.167  0.7825  1.9399 -0.8511
   61SAPC  H11B 4723   2.758   2.391  11.270  3.6812 -2.0648 -1.2500
   61SAPC     P 4724   2.569   2.278  11.002  0.0732 -0.1310 -0.2370
   61SAPC   O13 4725   2.554   2.134  10.950 -0.3425 -1.1966  0.6011
   61SAPC   O14 4726   2.447   2.336  11.064  0.0502 -0.2330 -0.3396
   61SAPC   O12 4727   2.682   2.281  11.105 -0.5347 -0.4944  0.3321
   61SAPC   O11 4728   2.625   2.371  10.892  0.0995  0.2783  0.6113
   61SAPC    C1 4729   2.533   2.464  10.822 -0.1219  0.6727 -0.0080
   61SAPC    HA 4730   2.426   2.435  10.835  0.3956 -1.5597 -0.4008
   61SAPC    HB 4731   2.550   2.569  10.856  0.4690  0.7996 -0.6876
   61SAPC    C2 4732   2.566   2.462  10.670  0.3637  0.2316  0.3825
   61SAPC    HS 4733   2.667   2.506  10.655  0.0688  0.3170 -1.7596
   61SAPC   O21 4734   2.456   2.535  10.603  0.3745 -0.2755 -0.2587
   61SAPC   C21 4735   2.460   2.668  10.600  0.6819 -0.1538 -0.0743
   61SAPC   O22 4736   2.543   2.736  10.653 -0.0539  0.5282 -0.1039
   61SAPC   C22 4737   2.354   2.716  10.502 -0.5408  0.2686  0.8635
   61SAPC   H2R 4738   2.263   2.654  10.518 -0.2796 -0.0379  1.1798
   61SAPC   H2S 4739   2.317   2.817  10.530 -1.5666  1.1237 -2.9912
   61SAPC    C3 4740   2.579   2.323  10.615  0.1564  0.4779  0.7347
   61SAPC    HX 4741   2.484   2.279  10.654 -0.7460  1.9600  0.2721
   61SAPC    HY 4742   2.665   2.262  10.652 -0.4164 -2.5125 -2.3419
   61SAPC   O31 4743   2.588   2.322  10.464 -0.4173 -0.1981 -0.8387
   61SAPC   C31 4744   2.706   2.349  10.416 -0.3854 -0.2215  0.8026
   61SAPC   O32 4745   2.803   2.382  10.484 -0.0088  0.0933  0.2725
   61SAPC   C32 4746   2.680   2.362  10.259 -0.0059 -1.0929 -0.9504
   61SAPC   H2X 4747   2.670   2.472  10.252  1.5296 -0.9323 -0.8836
   61SAPC   H2Y 4748   2.589   2.309  10.221 -0.1670 -1.2004 -0.4170
   61SAPC   C23 4749   2.390   2.727  10.352  0.0584 -0.1782 -0.4689
   61SAPC   H3R 4750   2.410   2.629  10.304  0.8665  0.2878 -1.1133
   61SAPC   H3S 4751   2.475   2.799  10.355 -0.7992  0.8831 -0.6982
   61SAPC   C24 4752   2.289   2.798  10.252 -0.5281 -0.0743 -0.3827
   61SAPC   H4R 4753   2.201   2.731  10.238 -0.4578 -0.1335 -0.5362
   61SAPC   H4S 4754   2.338   2.821  10.155  2.3605  0.1722  1.0306
   61SAPC   C25 4755   2.226   2.921  10.309 -0.0607 -0.2198 -0.2788
   61SAPC   H5R 4756   2.175   2.903  10.404  1.7451 -2.3527  0.3750
   61SAPC   C26 4757   2.239   3.043  10.258 -0.6270 -0.8005 -0.3339
   61SAPC   H6R 4758   2.189   3.123  10.315  1.3291 -0.7640  1.4393
   61SAPC   C27 4759   2.324   3.086  10.138  0.9300 -0.1393 -1.6826
   61SAPC   H7R 4760   2.275   3.179  10.104 -0.1912 -0.1854 -0.2976
   61SAPC   H7S 4761   2.310   3.024  10.047  0.6567  1.0793 -2.4846
   61SAPC   C28 4762   2.468   3.096  10.174 -0.5515  0.0428 -0.7104
   61SAPC   H8R 4763   2.501   3.044  10.265 -0.4349 -1.7544 -1.7298
   61SAPC   C29 4764   2.559   3.151  10.093 -0.8171  0.4753  1.5004
   61SAPC   H9R 4765   2.665   3.170  10.117 -0.0559 -0.5862 -0.7358
   61SAPC  C210 4766   2.521   3.195   9.960 -0.4070 -0.6995  1.0030
   61SAPC  H10R 4767   2.538   3.304   9.950 -0.9453 -0.5238  1.8914
   61SAPC  H10S 4768   2.413   3.183   9.936 -0.2193  0.4503 -0.5425
   61SAPC  C211 4769   2.595   3.116   9.853  0.0565  0.5252  0.3917
   61SAPC  H11R 4770   2.616   3.009   9.868  1.3728  0.6272 -0.5030
   61SAPC  C212 4771   2.621   3.151   9.727  0.3334  0.3729 -0.7369
   61SAPC  H12R 4772   2.679   3.075   9.673  1.2228  0.9401 -0.5933
   61SAPC  C213 4773   2.585   3.283   9.660 -0.1618 -0.4495 -0.8118
   61SAPC  H13R 4774   2.524   3.344   9.731  0.1045 -0.0207 -0.9457
   61SAPC  H13S 4775   2.524   3.266   9.569 -1.9315  2.2973 -0.2562
   61SAPC  C214 4776   2.705   3.363   9.617 -0.2118 -0.0867 -0.0051
   61SAPC  H14R 4777   2.728   3.449   9.681  0.2250 -1.2545  1.4501
   61SAPC  C215 4778   2.778   3.358   9.504  0.4367 -0.5671 -0.3986
   61SAPC  H15R 4779   2.855   3.437   9.500 -0.0168 -0.0671  0.3900
   61SAPC  C216 4780   2.748   3.256   9.396  0.1599  0.6752 -0.1719
   61SAPC  H16R 4781   2.682   3.173   9.430  2.4637 -1.2283 -0.0994
   61SAPC  H16S 4782   2.845   3.207   9.374  1.1006  2.2351  0.3390
   61SAPC  C217 4783   2.698   3.318   9.262  0.1131 -0.2251 -0.0361
   61SAPC  H17R 4784   2.775   3.391   9.228 -0.5011  0.6237  0.3483
   61SAPC  H17S 4785   2.603   3.376   9.268  0.5802  0.5680 -0.1345
   61SAPC  C218 4786   2.688   3.211   9.146  0.0206  0.3873  0.0464
   61SAPC  H18R 4787   2.782   3.152   9.137 -0.7844 -0.6632 -2.0301
   61SAPC  H18S 4788   2.674   3.260   9.047 -0.2610 -1.6816 -0.9748
   61SAPC  C219 4789   2.577   3.101   9.161 -0.7727 -0.4942  0.1562
   61SAPC  H19R 4790   2.607   3.046   9.252  0.6546  0.9801  0.6256
   61SAPC  H19S 4791   2.577   3.041   9.067  1.1341 -1.8161  0.9323
   61SAPC  C220 4792   2.433   3.149   9.178 -0.3483  0.0502 -0.1186
   61SAPC  H20R 4793   2.403   3.207   9.088  1.0985 -0.3154 -0.8552
   61SAPC  H20S 4794   2.436   3.218   9.264  1.2846 -1.2425  0.9116
   61SAPC  H20T 4795   2.367   3.067   9.216  0.6979 -0.1016  1.4499
   61SAPC   C33 4796   2.799   2.321  10.180  0.0383 -0.2965 -0.1180
   61SAPC   H3X 4797   2.802   2.211  10.169 -0.0254 -0.4227  0.9782
   61SAPC   H3Y 4798   2.899   2.328  10.229  1.7483 -0.4125 -3.3220
   61SAPC   C34 4799   2.829   2.398  10.048 -0.7907 -0.1324  0.3384
   61SAPC   H4X 4800   2.932   2.377  10.012 -0.7165  0.9565 -0.1418
   61SAPC   H4Y 4801   2.827   2.508  10.064  1.0931  0.0670 -0.4938
   61SAPC   C35 4802   2.738   2.347   9.940  0.1680  0.7559  0.0375
   61SAPC   H5X 4803   2.634   2.369   9.974 -0.4946  3.2027 -3.0752
   61SAPC   H5Y 4804   2.744   2.236   9.933 -2.9539  0.3836  1.2933
   61SAPC   C36 4805   2.765   2.413   9.805  0.4049 -0.1235  0.3960
   61SAPC   H6X 4806   2.875   2.416   9.795  0.7134 -0.2406  2.9791
   61SAPC   H6Y 4807   2.744   2.522   9.809  0.5394 -0.1186  1.2653
   61SAPC   C37 4808   2.683   2.342   9.688  0.0312 -0.9361  0.6900
   61SAPC   H7X 4809   2.699   2.232   9.678  0.9398 -0.8745  1.3376
   61SAPC   H7Y 4810   2.714   2.384   9.590 -3.1818  1.2450  0.4451
   61SAPC   C38 4811   2.526   2.375   9.699  0.1968 -0.0678  0.2538
   61SAPC   H8X 4812   2.496   2.335   9.798  0.2983 -0.7821 -0.0055
   61SAPC   H8Y 4813   2.459   2.328   9.625 -1.4784 -2.3219  2.9714
   61SAPC   C39 4814   2.492   2.524   9.724 -0.8451  0.8364 -0.0847
   61SAPC   H9X 4815   2.515   2.580   9.631 -1.1278 -0.5996 -1.0609
   61SAPC   H9Y 4816   2.551   2.574   9.803 -1.2694  2.9078 -1.0083
   61SAPC  C310 4817   2.336   2.544   9.751 -0.7268  0.2361 -0.1770
   61SAPC  H10X 4818   2.304   2.471   9.828 -1.6935 -0.1473 -0.9365
   61SAPC  H10Y 4819   2.276   2.539   9.658  1.5803  2.5049 -1.9670
   61SAPC  C311 4820   2.306   2.684   9.811  0.6013  0.0370  0.2019
   61SAPC  H11X 4821   2.366   2.718   9.898  1.2732  1.4159 -0.7728
   61SAPC  H11Y 4822   2.202   2.676   9.851  1.0675 -0.0520  1.4316
   61SAPC  C312 4823   2.313   2.792   9.708 -0.1326  1.1438 -0.0198
   61SAPC  H12X 4824   2.233   2.780   9.632 -0.7340  1.5046  0.5498
   61SAPC  H12Y 4825   2.415   2.790   9.664 -0.1936  0.7172 -0.1502
   61SAPC  C313 4826   2.272   2.938   9.757  0.7336  0.4173 -0.2917
   61SAPC  H13X 4827   2.360   2.971   9.817  1.5544 -1.4645 -0.3727
   61SAPC  H13Y 4828   2.182   2.935   9.821  1.5729 -0.0788  0.9026
   61SAPC  C314 4829   2.239   3.037   9.650 -1.3005 -0.0177  0.2262
   61SAPC  H14X 4830   2.162   3.000   9.579  0.9005 -1.0216 -1.7432
   61SAPC  H14Y 4831   2.335   3.044   9.595  1.1317 -2.8842  3.6363
   61SAPC  C315 4832   2.197   3.172   9.707  0.3206 -0.2159 -0.2596
   61SAPC  H15X 4833   2.280   3.239   9.739 -0.2772  0.2892  0.2414
   61SAPC  H15Y 4834   2.119   3.166   9.785 -1.3322 -1.0163 -1.9193
   61SAPC  C316 4835   2.120   3.246   9.598 -0.3293 -0.6722  0.2581
   61SAPC  H16X 4836   2.072   3.339   9.636  0.4256  0.1727 -0.7651
   61SAPC  H16Y 4837   2.035   3.185   9.561  0.9036 -1.4442 -1.4115
   61SAPC  C317 4838   2.201   3.286   9.475 -0.6627  0.7687 -0.1701
   61SAPC  H17X 4839   2.293   3.224   9.467 -0.1116  1.5726 -0.2404
   61SAPC  H17Y 4840   2.240   3.388   9.497 -0.7745  0.9657 -0.8637
   61SAPC  C318 4841   2.126   3.291   9.340  0.1061  0.6546  0.5547
   61SAPC  H18X 4842   2.179   3.342   9.257  0.0542 -0.1787 -0.0082
   61SAPC  H18Y 4843   2.023   3.332   9.348 -1.0334 -2.0479  0.9330
   61SAPC  H18Z 4844   2.117   3.186   9.305  0.5840  0.5011  0.8913
   62SAPC     N 4845   0.847   6.545  10.835 -0.2986  0.0957 -0.0622
   62SAPC   C12 4846   0.955   6.553  10.735 -0.5892  0.0902 -0.4928
   62SAPC  H12A 4847   0.931   6.486  10.654  3.6763 -0.3103 -1.6778
   62SAPC  H12B 4848   1.049   6.525  10.780 -0.3453  0.5696 -0.7064
   62SAPC   C13 4849   0.720   6.574  10.772 -0.3605  0.2890 -0.0474
   62SAPC  H13A 4850   0.646   6.598  10.847 -1.1779  0.9833 -1.0486
   62SAPC  H13B 4851   0.726   6.654  10.701  1.8606  1.5469  1.4437
   62SAPC  H13C 4852   0.675   6.490  10.720 -0.8557  0.9708 -0.7391
   62SAPC   C14 4853   0.835   6.401  10.881 -0.3027 -0.1004  0.0630
   62SAPC  H14A 4854   0.750   6.383  10.945 -1.1817 -0.2580 -1.1018
   62SAPC  H14B 4855   0.836   6.334  10.796  2.6440  0.3509 -0.3441
   62SAPC  H14C 4856   0.915   6.370  10.945  0.7889  1.3265 -0.5457
   62SAPC   C15 4857   0.877   6.624  10.956 -0.1605 -0.1936 -0.1863
   62SAPC  H15A 4858   0.889   6.728  10.929  0.6276  0.6749  3.1101
   62SAPC  H15B 4859   0.811   6.622  11.041  0.3838  0.2376  0.2531
   62SAPC  H15C 4860   0.967   6.580  10.996 -0.1778 -1.9786 -1.9629
   62SAPC   C11 4861   0.979   6.691  10.666 -0.5492 -0.0455  0.1598
   62SAPC  H11A 4862   0.894   6.716  10.600  0.9635  0.4233 -1.7121
   62SAPC  H11B 4863   1.059   6.679  10.590 -1.5721  0.9510 -1.1076
   62SAPC     P 4864   1.163   6.818  10.785  0.1954 -0.2751 -0.0490
   62SAPC   O13 4865   1.170   6.921  10.892 -0.4902 -0.5551  0.3721
   62SAPC   O14 4866   1.230   6.690  10.808  0.2673 -0.4944 -0.6168
   62SAPC   O12 4867   1.011   6.801  10.753 -0.3950  0.7409 -0.1634
   62SAPC   O11 4868   1.228   6.881  10.657  0.5711 -0.0103 -0.3654
   62SAPC    C1 4869   1.191   7.019  10.619 -0.2545 -0.0584  0.6095
   62SAPC    HA 4870   1.124   7.074  10.689 -1.2799 -0.3990 -0.0951
   62SAPC    HB 4871   1.283   7.082  10.620 -0.4999  0.3056  1.3068
   62SAPC    C2 4872   1.130   7.018  10.477  0.5367  0.1606  0.1944
   62SAPC    HS 4873   1.039   6.954  10.480  0.5876 -0.1243 -2.2365
   62SAPC   O21 4874   1.232   6.954  10.391  0.1439 -0.1004  0.2918
   62SAPC   C21 4875   1.192   6.857  10.312  0.1271 -0.5040 -0.0745
   62SAPC   O22 4876   1.083   6.847  10.257 -0.0917 -0.0489  0.2329
   62SAPC   C22 4877   1.305   6.757  10.298  0.4584 -0.1998 -0.4225
   62SAPC   H2R 4878   1.392   6.801  10.245  0.1628 -1.5017 -2.0483
   62SAPC   H2S 4879   1.344   6.734  10.400 -2.5991  1.8945  1.3985
   62SAPC    C3 4880   1.103   7.164  10.422  0.1525 -0.5370 -0.8989
   62SAPC    HX 4881   1.202   7.214  10.429 -0.8123  1.4571 -0.7532
   62SAPC    HY 4882   1.045   7.222  10.497 -0.2953 -2.0147 -0.0667
   62SAPC   O31 4883   1.038   7.166  10.293 -0.2526  0.1093  0.1437
   62SAPC   C31 4884   1.126   7.163  10.191 -0.2552 -0.2525  0.0393
   62SAPC   O32 4885   1.245   7.173  10.203 -0.4871 -0.4163 -0.0093
   62SAPC   C32 4886   1.054   7.162  10.060  0.1211 -1.0435  0.3373
   62SAPC   H2X 4887   0.997   7.257  10.055  3.7066  1.2436 -0.5052
   62SAPC   H2Y 4888   0.986   7.074  10.063 -0.7738 -0.3350  1.5490
   62SAPC   C23 4889   1.253   6.630  10.222 -0.5822 -0.1030  0.6551
   62SAPC   H3R 4890   1.143   6.619  10.234 -0.8145  2.3392  1.0795
   62SAPC   H3S 4891   1.305   6.550  10.280  2.1568  0.2158 -1.1452
   62SAPC   C24 4892   1.286   6.617  10.072  0.2339 -0.0074  0.2886
   62SAPC   H4R 4893   1.253   6.511  10.067 -0.6937  0.2468  0.8437
   62SAPC   H4S 4894   1.397   6.626  10.063  0.1745  2.4608  1.2588
   62SAPC   C25 4895   1.226   6.710   9.971 -0.0478  0.8268  0.1924
   62SAPC   H5R 4896   1.153   6.777  10.020 -0.0861 -1.5224  3.7226
   62SAPC   C26 4897   1.236   6.691   9.837  1.2657 -0.3509  0.7382
   62SAPC   H6R 4898   1.191   6.766   9.770 -2.3097 -2.3504  0.6765
   62SAPC   C27 4899   1.314   6.579   9.767  0.2586 -0.0849  0.5176
   62SAPC   H7R 4900   1.335   6.494   9.835  1.3962  0.3309  0.7135
   62SAPC   H7S 4901   1.410   6.623   9.731 -0.5955  1.0862 -0.4145
   62SAPC   C28 4902   1.232   6.516   9.654  0.3323 -0.5264  0.5052
   62SAPC   H8R 4903   1.152   6.451   9.693 -1.0211  1.2822  0.8973
   62SAPC   C29 4904   1.239   6.551   9.523 -0.8727 -0.5753 -0.1556
   62SAPC   H9R 4905   1.167   6.508   9.452  1.0245 -1.6693 -1.5066
   62SAPC  C210 4906   1.332   6.657   9.466  0.5612 -0.3903  0.5487
   62SAPC  H10R 4907   1.422   6.612   9.420 -0.5584 -2.1831  0.0164
   62SAPC  H10S 4908   1.368   6.724   9.548 -0.8645 -0.0917  0.9684
   62SAPC  C211 4909   1.271   6.741   9.361 -0.1342  0.1659 -0.5404
   62SAPC  H11R 4910   1.210   6.821   9.404 -0.9944 -1.1506  0.7782
   62SAPC  C212 4911   1.269   6.715   9.230  0.4355  0.9040  0.3312
   62SAPC  H12R 4912   1.211   6.779   9.163  1.1164  1.8947  0.6558
   62SAPC  C213 4913   1.336   6.595   9.170 -0.7463  0.3986 -0.1291
   62SAPC  H13R 4914   1.260   6.515   9.179 -0.6259  0.5353  3.4778
   62SAPC  H13S 4915   1.417   6.559   9.236 -0.0030  2.3368  0.0982
   62SAPC  C214 4916   1.364   6.608   9.020 -0.1797 -0.6594 -0.4818
   62SAPC  H14R 4917   1.454   6.663   8.988 -0.1486 -1.0070 -1.0100
   62SAPC  C215 4918   1.277   6.561   8.926 -0.3188 -0.2229 -0.2098
   62SAPC  H15R 4919   1.300   6.579   8.820 -0.9607  0.2767 -0.2718
   62SAPC  C216 4920   1.149   6.491   8.947 -0.2558  0.3229  0.1068
   62SAPC  H16R 4921   1.082   6.536   8.871  0.4560 -0.6294 -1.1237
   62SAPC  H16S 4922   1.110   6.505   9.051  0.0290 -0.9248  0.3967
   62SAPC  C217 4923   1.167   6.338   8.937 -0.0173  0.1238  0.1824
   62SAPC  H17R 4924   1.216   6.324   9.036 -1.2812  0.9624  0.9583
   62SAPC  H17S 4925   1.227   6.302   8.851 -1.2074 -0.7494 -0.3131
   62SAPC  C218 4926   1.032   6.264   8.912 -0.6222  0.1696  0.1074
   62SAPC  H18R 4927   0.994   6.241   9.014 -1.6493 -2.1082 -0.7269
   62SAPC  H18S 4928   1.061   6.167   8.867 -2.1516 -1.2942  2.0804
   62SAPC  C219 4929   0.927   6.329   8.813 -0.2237 -0.4190 -0.2645
   62SAPC  H19R 4930   0.978   6.397   8.741 -1.8641  1.0789 -0.0683
   62SAPC  H19S 4931   0.874   6.392   8.888 -1.3335 -1.6045 -0.0250
   62SAPC  C220 4932   0.827   6.238   8.750  0.0650 -0.8924  0.1763
   62SAPC  H20R 4933   0.761   6.298   8.684 -2.2415 -0.8550  2.3397
   62SAPC  H20S 4934   0.754   6.206   8.828  0.0170 -0.3246  0.3726
   62SAPC  H20T 4935   0.878   6.151   8.704 -2.6388 -2.9335  0.7702
   62SAPC   C33 4936   1.144   7.126   9.936  0.3285  0.3763 -0.6337
   62SAPC   H3X 4937   1.178   7.021   9.944 -0.9347  0.0144  0.4520
   62SAPC   H3Y 4938   1.224   7.203   9.928  1.7404 -0.8313  1.1841
   62SAPC   C34 4939   1.064   7.137   9.806  1.3484 -0.1328 -1.0014
   62SAPC   H4X 4940   1.025   7.241   9.799 -0.3654 -0.6812 -0.1471
   62SAPC   H4Y 4941   0.972   7.076   9.796  0.5724  0.2554  2.3849
   62SAPC   C35 4942   1.154   7.106   9.686  0.0969 -0.0686  0.3095
   62SAPC   H5X 4943   1.162   6.996   9.678  0.3384  0.0641 -1.6907
   62SAPC   H5Y 4944   1.247   7.165   9.698 -1.2555  1.9095  2.0243
   62SAPC   C36 4945   1.083   7.148   9.558  0.2297  0.0897 -0.5094
   62SAPC   H6X 4946   1.038   7.247   9.581  0.9716  0.2136  0.4568
   62SAPC   H6Y 4947   1.001   7.075   9.541 -2.0072  1.8438  1.8572
   62SAPC   C37 4948   1.161   7.169   9.424 -0.2887  0.1733  0.1825
   62SAPC   H7X 4949   1.268   7.143   9.434 -0.3719  0.0552  0.7838
   62SAPC   H7Y 4950   1.169   7.279   9.407  0.3143  0.7397  3.5246
   62SAPC   C38 4951   1.090   7.093   9.305 -0.5077  0.3139  0.4853
   62SAPC   H8X 4952   0.981   7.114   9.301 -1.3561 -2.3241  3.9250
   62SAPC   H8Y 4953   1.087   6.983   9.320 -1.3024  0.3623  0.7342
   62SAPC   C39 4954   1.157   7.119   9.166 -0.0614  0.0910 -0.4264
   62SAPC   H9X 4955   1.265   7.092   9.169 -0.5945 -2.0643  0.7806
   62SAPC   H9Y 4956   1.147   7.229   9.154  2.6165  0.4281 -0.2703
   62SAPC  C310 4957   1.099   7.037   9.050  0.3366  0.3405 -1.1389
   62SAPC  H10X 4958   0.996   7.073   9.024  0.2792  1.9143  0.9738
   62SAPC  H10Y 4959   1.103   6.928   9.069 -0.3166  0.8995  3.4315
   62SAPC  C311 4960   1.179   7.055   8.924 -0.1277 -0.0974  0.1205
   62SAPC  H11X 4961   1.278   7.006   8.931  0.3964  1.1430  2.9159
   62SAPC  H11Y 4962   1.205   7.161   8.907  3.1023 -0.8902 -0.5805
   62SAPC  C312 4963   1.113   7.007   8.792  0.4564 -0.2638 -0.1424
   62SAPC  H12X 4964   1.030   7.080   8.775  0.1658 -0.1959  1.4751
   62SAPC  H12Y 4965   1.063   6.908   8.803 -1.1009 -0.0665 -3.8249
   62SAPC  C313 4966   1.207   7.001   8.673  0.3808  1.5245 -0.7461
   62SAPC  H13X 4967   1.296   6.941   8.703 -0.9947  0.2094  0.9387
   62SAPC  H13Y 4968   1.246   7.102   8.647  0.7881  2.5371  3.1039
   62SAPC  C314 4969   1.136   6.933   8.551  0.5145  0.3206 -0.2930
   62SAPC  H14X 4970   1.211   6.957   8.472 -0.3986  0.3189 -1.1807
   62SAPC  H14Y 4971   1.046   6.986   8.515 -0.9130 -2.1220 -0.4804
   62SAPC  C315 4972   1.124   6.779   8.561  0.3238 -0.2362  0.4430
   62SAPC  H15X 4973   1.078   6.765   8.661  0.3439 -0.0682  0.4760
   62SAPC  H15Y 4974   1.229   6.745   8.562  0.7065  0.6678 -2.2830
   62SAPC  C316 4975   1.045   6.720   8.446 -0.5887 -0.4866 -0.1611
   62SAPC  H16X 4976   1.122   6.700   8.368  0.0665  0.7275  0.1494
   62SAPC  H16Y 4977   0.981   6.805   8.415  0.8942  0.3174 -1.1279
   62SAPC  C317 4978   0.974   6.586   8.473  0.4403  0.0448 -0.3670
   62SAPC  H17X 4979   0.916   6.593   8.568  0.3439 -3.2570 -0.0966
   62SAPC  H17Y 4980   1.062   6.521   8.493 -0.3448 -0.6894  0.8022
   62SAPC  C318 4981   0.895   6.526   8.355  0.2006 -0.2908  0.1380
   62SAPC  H18X 4982   0.816   6.593   8.316  0.6703 -0.9989 -2.2161
   62SAPC  H18Y 4983   0.841   6.434   8.386  0.7801  0.0958  2.5392
   62SAPC  H18Z 4984   0.964   6.512   8.268  0.2197 -1.4198  0.3155
   63SAPC     N 4985   4.239   5.441   6.520  0.5158  0.0349 -0.4082
   63SAPC   C12 4986   4.118   5.397   6.602  0.5336  1.0984 -0.0203
   63SAPC  H12A 4987   4.149   5.317   6.667 -3.2474 -1.0860 -0.6306
   63SAPC  H12B 4988   4.051   5.338   6.541  1.2331  1.4011 -1.1139
   63SAPC   C13 4989   4.303   5.316   6.467  0.2074 -0.1694  0.5134
   63SAPC  H13A 4990   4.396   5.337   6.417 -0.0874  0.4908  0.2409
   63SAPC  H13B 4991   4.331   5.249   6.547 -0.3634 -0.1996  0.6938
   63SAPC  H13C 4992   4.233   5.265   6.402 -1.1649 -0.4280  2.1269
   63SAPC   C14 4993   4.197   5.529   6.398  0.4233 -0.0854 -0.3039
   63SAPC  H14A 4994   4.285   5.557   6.342  0.0127  1.4599 -0.2197
   63SAPC  H14B 4995   4.129   5.472   6.336  0.0723  0.6279 -0.5747
   63SAPC  H14C 4996   4.155   5.622   6.432  0.1730 -0.9203  1.8480
   63SAPC   C15 4997   4.331   5.525   6.604  0.7499 -0.0145 -0.5644
   63SAPC  H15A 4998   4.414   5.553   6.540  0.1273  1.9093 -0.5685
   63SAPC  H15B 4999   4.289   5.622   6.626  1.4067  1.0046 -3.3970
   63SAPC  H15C 5000   4.375   5.473   6.688  1.9076  1.6301 -0.0991
   63SAPC   C11 5001   4.046   5.507   6.673 -0.4891 -0.3653 -0.2401
   63SAPC  H11A 5002   4.124   5.559   6.732 -2.3305  1.1604  0.9588
   63SAPC  H11B 5003   3.988   5.478   6.763  0.5806 -0.2379  0.5034
   63SAPC     P 5004   3.842   5.565   6.532  0.4909  0.1587  0.4346
   63SAPC   O13 5005   3.810   5.650   6.414 -0.1285  0.4134  0.1806
   63SAPC   O14 5006   3.818   5.421   6.505  0.0507 -0.2823 -0.1257
   63SAPC   O12 5007   3.979   5.593   6.591 -0.1850 -0.2894  0.1445
   63SAPC   O11 5008   3.751   5.620   6.645 -0.2371  0.7137 -0.2156
   63SAPC    C1 5009   3.781   5.737   6.719 -0.0384 -0.4243  0.5418
   63SAPC    HA 5010   3.885   5.735   6.758  0.6163 -1.5598 -1.1346
   63SAPC    HB 5011   3.768   5.820   6.646  2.1766 -0.0870  0.4624
   63SAPC    C2 5012   3.674   5.750   6.833 -0.2676  0.2991  0.7581
   63SAPC    HS 5013   3.700   5.842   6.890 -1.1268  0.0002  1.6776
   63SAPC   O21 5014   3.676   5.630   6.910  0.4219  0.0963 -0.0479
   63SAPC   C21 5015   3.793   5.622   6.981 -0.0370 -0.0642  0.2766
   63SAPC   O22 5016   3.857   5.717   7.024 -0.2803  0.2038 -0.8045
   63SAPC   C22 5017   3.836   5.474   7.008 -0.0847  0.1344  0.4004
   63SAPC   H2R 5018   3.762   5.409   6.956  0.4852  0.0791 -0.3678
   63SAPC   H2S 5019   3.935   5.453   6.963 -0.2213 -0.7780  0.4966
   63SAPC    C3 5020   3.535   5.776   6.775 -0.0697  0.1937  0.6196
   63SAPC    HX 5021   3.491   5.680   6.740 -0.4864  0.0425  1.5197
   63SAPC    HY 5022   3.544   5.836   6.682 -2.3349  0.2472  0.3922
   63SAPC   O31 5023   3.441   5.834   6.872 -0.2122  0.3873 -0.3537
   63SAPC   C31 5024   3.378   5.745   6.944 -0.4286 -0.9074 -0.2601
   63SAPC   O32 5025   3.393   5.627   6.932  0.5551 -0.4216  0.2001
   63SAPC   C32 5026   3.261   5.811   7.012  0.6258 -0.3480  0.1980
   63SAPC   H2X 5027   3.180   5.831   6.938  1.4453  0.0445 -0.6203
   63SAPC   H2Y 5028   3.300   5.912   7.036 -0.6600  0.5166 -1.1658
   63SAPC   C23 5029   3.837   5.453   7.159 -0.3514  0.3970 -0.1467
   63SAPC   H3R 5030   3.922   5.510   7.203 -3.3114  2.3151  3.6884
   63SAPC   H3S 5031   3.873   5.350   7.177  1.0277  0.8021 -0.4573
   63SAPC   C24 5032   3.719   5.498   7.248 -0.7427 -0.6678  0.3957
   63SAPC   H4R 5033   3.722   5.609   7.253 -2.6284 -0.6074  0.9775
   63SAPC   H4S 5034   3.755   5.483   7.353  1.9518  0.3211 -0.3152
   63SAPC   C25 5035   3.581   5.447   7.215 -0.4587  0.5113  0.9558
   63SAPC   H5R 5036   3.552   5.462   7.110  1.4785 -1.5014  0.0481
   63SAPC   C26 5037   3.486   5.398   7.302 -0.5689 -0.1732 -0.0858
   63SAPC   H6R 5038   3.388   5.376   7.257 -1.0855  0.3869  0.7359
   63SAPC   C27 5039   3.505   5.378   7.454 -0.0665  0.2580 -0.8610
   63SAPC   H7R 5040   3.608   5.340   7.473  0.2635  1.0015 -1.1301
   63SAPC   H7S 5041   3.436   5.300   7.493  0.3814  1.1269  1.8428
   63SAPC   C28 5042   3.481   5.495   7.550 -0.1107 -0.2413  0.3491
   63SAPC   H8R 5043   3.428   5.583   7.513 -0.7578 -1.1959 -1.1017
   63SAPC   C29 5044   3.531   5.505   7.677 -0.1521  0.6433 -0.4314
   63SAPC   H9R 5045   3.518   5.599   7.733  0.9257  0.9228 -0.6326
   63SAPC  C210 5046   3.615   5.398   7.746 -0.2535  0.2072 -0.0361
   63SAPC  H10R 5047   3.724   5.410   7.731 -0.2464  1.8716  1.0614
   63SAPC  H10S 5048   3.604   5.299   7.697  2.2293 -0.6826  1.0470
   63SAPC  C211 5049   3.590   5.394   7.894  0.2927 -0.6415  0.0082
   63SAPC  H11R 5050   3.502   5.334   7.921  0.2224  0.1820  1.7056
   63SAPC  C212 5051   3.655   5.467   7.985 -0.3993  0.1827  0.6612
   63SAPC  H12R 5052   3.619   5.475   8.089  0.4436 -0.1673  0.9936
   63SAPC  C213 5053   3.766   5.567   7.957  0.1015  0.4979 -0.7180
   63SAPC  H13R 5054   3.722   5.668   7.968  2.1398  1.5813 -1.9089
   63SAPC  H13S 5055   3.802   5.559   7.852 -0.2014 -2.0365 -0.7025
   63SAPC  C214 5056   3.874   5.547   8.061 -0.7010 -0.2325 -0.5862
   63SAPC  H14R 5057   3.920   5.447   8.066  4.4377  1.7559 -1.2191
   63SAPC  C215 5058   3.906   5.638   8.157 -0.4360 -0.3382  0.2648
   63SAPC  H15R 5059   3.961   5.608   8.248  1.8654  0.5547 -0.7660
   63SAPC  C216 5060   3.832   5.764   8.177 -0.3463 -0.5115 -0.0617
   63SAPC  H16R 5061   3.731   5.736   8.214 -0.0636  0.8468  1.8832
   63SAPC  H16S 5062   3.838   5.818   8.080  1.9057  1.3574  1.0340
   63SAPC  C217 5063   3.909   5.846   8.276 -0.2082  0.2541  0.5880
   63SAPC  H17R 5064   4.015   5.866   8.247 -0.4055 -0.5609 -0.8230
   63SAPC  H17S 5065   3.925   5.792   8.372  1.4400  0.7958  0.6554
   63SAPC  C218 5066   3.847   5.973   8.305  0.7226 -0.1774 -0.1965
   63SAPC  H18R 5067   3.737   5.964   8.294  0.5169  1.4301  0.3302
   63SAPC  H18S 5068   3.885   6.041   8.226  1.7263  0.0221  0.4431
   63SAPC  C219 5069   3.886   6.026   8.441  0.5903  0.4145  0.5829
   63SAPC  H19R 5070   3.997   6.020   8.442  0.7363  0.5140 -2.7100
   63SAPC  H19S 5071   3.839   5.959   8.516 -0.2421  0.3071 -0.0113
   63SAPC  C220 5072   3.851   6.170   8.479  0.1621 -0.3067  0.4834
   63SAPC  H20R 5073   3.745   6.196   8.461  0.1515 -0.6590  0.0128
   63SAPC  H20S 5074   3.899   6.238   8.406 -2.3897  1.2358  0.1160
   63SAPC  H20T 5075   3.876   6.198   8.584  1.3165 -0.4650  0.2670
   63SAPC   C33 5076   3.187   5.734   7.130 -0.0482 -0.2766  0.0138
   63SAPC   H3X 5077   3.163   5.632   7.092 -2.0013  0.3497 -0.5971
   63SAPC   H3Y 5078   3.086   5.780   7.143  0.3305  0.8218 -0.8095
   63SAPC   C34 5079   3.260   5.726   7.269 -0.0087  0.2279  0.4574
   63SAPC   H4X 5080   3.298   5.826   7.298 -2.5752  1.0714  1.1740
   63SAPC   H4Y 5081   3.338   5.647   7.261 -1.6753 -1.5433  0.8457
   63SAPC   C35 5082   3.153   5.706   7.380 -0.1409 -0.3762 -0.0536
   63SAPC   H5X 5083   3.077   5.785   7.362  0.9112  1.3156  2.2969
   63SAPC   H5Y 5084   3.205   5.733   7.475  0.7346 -0.7854 -0.4093
   63SAPC   C36 5085   3.097   5.563   7.397  0.3999 -1.2474  0.6783
   63SAPC   H6X 5086   3.180   5.489   7.407 -0.8204 -3.0015 -1.2477
   63SAPC   H6Y 5087   3.061   5.527   7.298  1.7856 -1.3604  0.1836
   63SAPC   C37 5088   2.989   5.550   7.502  0.9918  0.2666  0.0189
   63SAPC   H7X 5089   2.941   5.452   7.480 -1.4204  1.7607 -1.9472
   63SAPC   H7Y 5090   2.914   5.626   7.469  2.1509  1.9864  1.1728
   63SAPC   C38 5091   3.024   5.582   7.642  0.4236 -0.3781  0.5995
   63SAPC   H8X 5092   2.934   5.599   7.704  1.2757 -1.9397  2.3383
   63SAPC   H8Y 5093   3.086   5.674   7.641  2.3346 -1.6144 -0.1951
   63SAPC   C39 5094   3.100   5.458   7.699 -0.0656 -0.9360 -0.6421
   63SAPC   H9X 5095   3.208   5.465   7.673  0.0002  0.9836 -0.0191
   63SAPC   H9Y 5096   3.050   5.367   7.660  0.1750 -0.7903 -1.3071
   63SAPC  C310 5097   3.069   5.444   7.847 -0.0341 -0.0295 -0.5305
   63SAPC  H10X 5098   3.118   5.355   7.891 -0.1687 -0.7019 -1.6899
   63SAPC  H10Y 5099   2.959   5.428   7.848  0.0873 -0.9978 -1.1822
   63SAPC  C311 5100   3.097   5.568   7.933  0.6178 -1.1014 -0.1360
   63SAPC  H11X 5101   3.049   5.553   8.033 -0.9608  0.8129 -0.5370
   63SAPC  H11Y 5102   3.048   5.658   7.891  1.2853 -0.5850  0.1670
   63SAPC  C312 5103   3.248   5.598   7.955 -0.7864 -0.5817  0.7394
   63SAPC  H12X 5104   3.286   5.634   7.857  0.3406 -0.0934  1.3378
   63SAPC  H12Y 5105   3.302   5.504   7.980  0.3110 -1.2104 -3.2333
   63SAPC  C313 5106   3.274   5.695   8.072 -0.0236  1.2345 -0.0542
   63SAPC  H13X 5107   3.262   5.631   8.162 -1.7609 -1.1866 -1.8341
   63SAPC  H13Y 5108   3.201   5.778   8.067 -1.3377  0.0539 -2.3512
   63SAPC  C314 5109   3.412   5.766   8.067 -0.4461  0.2683  0.1657
   63SAPC  H14X 5110   3.427   5.801   7.963  0.4431  0.2563  0.2811
   63SAPC  H14Y 5111   3.486   5.684   8.081  1.1425  1.8013  1.0368
   63SAPC  C315 5112   3.412   5.876   8.174  0.2151  0.0820  0.4200
   63SAPC  H15X 5113   3.316   5.930   8.162 -0.4622 -1.2623 -0.4033
   63SAPC  H15Y 5114   3.493   5.952   8.170 -0.9367  1.4420  1.6632
   63SAPC  C316 5115   3.400   5.814   8.320 -0.1247  0.4870  0.5906
   63SAPC  H16X 5116   3.487   5.749   8.348  0.0776  0.5594  0.1337
   63SAPC  H16Y 5117   3.317   5.741   8.321  0.6702 -0.4997 -1.1908
   63SAPC  C317 5118   3.355   5.912   8.426  0.0096 -0.0084  0.7438
   63SAPC  H17X 5119   3.348   5.860   8.524 -0.0347  0.6763  1.1139
   63SAPC  H17Y 5120   3.254   5.950   8.400 -0.2942 -1.3340 -0.1091
   63SAPC  C318 5121   3.444   6.031   8.441 -0.2642 -0.8904 -0.5890
   63SAPC  H18X 5122   3.548   6.004   8.468  1.2556  1.0702 -3.8081
   63SAPC  H18Y 5123   3.399   6.098   8.517  0.0962 -0.7466 -0.5002
   63SAPC  H18Z 5124   3.452   6.092   8.348 -0.3530  1.0851  0.6459
   64SAPC     N 5125   0.822   6.311   5.783 -0.6323  0.0045 -0.0600
   64SAPC   C12 5126   0.884   6.274   5.919  0.1192  0.4975  0.5120
   64SAPC  H12A 5127   0.925   6.357   5.975  0.2010  0.6209  0.2735
   64SAPC  H12B 5128   0.964   6.202   5.912  0.2671  0.6131  0.9762
   64SAPC   C13 5129   0.724   6.206   5.743 -0.2099 -0.3008  0.2408
   64SAPC  H13A 5130   0.650   6.251   5.680 -1.0848 -0.9375  0.7885
   64SAPC  H13B 5131   0.764   6.122   5.688  0.8439  0.8482 -0.8118
   64SAPC  H13C 5132   0.674   6.167   5.831 -1.6919 -1.0275 -0.8861
   64SAPC   C14 5133   0.745   6.443   5.790  0.8125  0.2872 -0.4652
   64SAPC  H14A 5134   0.685   6.442   5.881  0.0671 -3.2438 -0.8507
   64SAPC  H14B 5135   0.809   6.529   5.794 -1.4381  2.0138  1.3204
   64SAPC  H14C 5136   0.681   6.458   5.704 -0.8566  0.7708  0.8059
   64SAPC   C15 5137   0.924   6.313   5.681 -0.0811 -0.5046  0.3644
   64SAPC  H15A 5138   0.882   6.363   5.594 -1.7610  0.8031  1.8352
   64SAPC  H15B 5139   1.016   6.369   5.690 -0.4001  0.3354 -1.2084
   64SAPC  H15C 5140   0.951   6.217   5.641  2.8454  0.7739 -1.0450
   64SAPC   C11 5141   0.791   6.194   6.016  0.0866  0.4783  0.2090
   64SAPC  H11A 5142   0.691   6.243   6.017  0.1448  0.6324 -0.7339
   64SAPC  H11B 5143   0.817   6.211   6.123 -0.5759 -2.5548  0.9575
   64SAPC     P 5144   0.879   5.955   6.043  0.2418  0.0839  0.2574
   64SAPC   O13 5145   0.850   5.812   5.997 -0.1038 -0.1082 -1.1431
   64SAPC   O14 5146   1.017   6.006   6.023 -0.1059 -0.1304 -0.8709
   64SAPC   O12 5147   0.777   6.058   5.983  0.9064 -0.1760 -0.2431
   64SAPC   O11 5148   0.849   5.968   6.197 -0.5651 -0.3018 -0.2700
   64SAPC    C1 5149   0.712   5.952   6.241 -0.2281 -0.2201  0.3690
   64SAPC    HA 5150   0.660   6.049   6.222  0.3821  0.1038  0.3304
   64SAPC    HB 5151   0.653   5.878   6.183 -0.6957  0.4909 -0.0782
   64SAPC    C2 5152   0.701   5.905   6.387  0.5698 -1.1567  0.6171
   64SAPC    HS 5153   0.746   5.981   6.454  1.8671 -1.6533  0.3426
   64SAPC   O21 5154   0.784   5.793   6.403 -0.7821  0.2666 -0.0169
   64SAPC   C21 5155   0.840   5.768   6.529  0.0579 -0.0711  0.1126
   64SAPC   O22 5156   0.822   5.841   6.623 -0.1956 -0.0545  0.9802
   64SAPC   C22 5157   0.910   5.632   6.525  0.7088 -0.7093  0.5605
   64SAPC   H2R 5158   0.846   5.542   6.526  1.1475 -1.0261  1.9008
   64SAPC   H2S 5159   0.986   5.642   6.445  0.4452 -0.1063  0.3772
   64SAPC    C3 5160   0.549   5.882   6.438 -0.4640 -0.8209  0.6632
   64SAPC    HX 5161   0.518   5.793   6.379  1.4249 -0.5881 -0.7768
   64SAPC    HY 5162   0.487   5.965   6.399  0.7520  0.8484  2.1448
   64SAPC   O31 5163   0.538   5.846   6.577  0.5980  0.0834 -0.0544
   64SAPC   C31 5164   0.522   5.950   6.652  0.0277 -0.0452 -0.8956
   64SAPC   O32 5165   0.530   6.066   6.614 -0.5494 -0.2737 -1.1770
   64SAPC   C32 5166   0.502   5.894   6.792 -0.4883  0.3956 -0.0813
   64SAPC   H2X 5167   0.521   5.785   6.804  2.5041  1.0611  2.4258
   64SAPC   H2Y 5168   0.392   5.906   6.807 -0.5770  0.3914 -0.6714
   64SAPC   C23 5169   0.992   5.617   6.655  0.3431  0.7148  0.2887
   64SAPC   H3R 5170   0.918   5.598   6.736 -1.3283  1.0375 -1.1026
   64SAPC   H3S 5171   1.041   5.715   6.675  1.7523  0.0272  0.3483
   64SAPC   C24 5172   1.088   5.500   6.633 -0.5764  0.1528  0.4874
   64SAPC   H4R 5173   1.103   5.489   6.523  0.4130 -3.3218  0.8526
   64SAPC   H4S 5174   1.043   5.404   6.666 -1.3807  0.2990 -0.1662
   64SAPC   C25 5175   1.212   5.529   6.706 -0.3811  0.5713 -0.2587
   64SAPC   H5R 5176   1.253   5.630   6.692  0.8247  0.1688  0.2950
   64SAPC   C26 5177   1.290   5.435   6.769  0.1805 -0.1521  0.4948
   64SAPC   H6R 5178   1.364   5.471   6.842 -0.8592 -1.0220  2.0316
   64SAPC   C27 5179   1.260   5.290   6.763  0.2592  0.8981 -0.1321
   64SAPC   H7R 5180   1.238   5.247   6.663 -1.0146 -1.6063  1.1561
   64SAPC   H7S 5181   1.163   5.281   6.816 -0.1633  0.3068 -0.9865
   64SAPC   C28 5182   1.370   5.203   6.820 -0.4590  0.2443  0.2542
   64SAPC   H8R 5183   1.449   5.171   6.751  0.2590  3.6018 -0.6419
   64SAPC   C29 5184   1.377   5.165   6.949 -1.0319  0.2036  0.6713
   64SAPC   H9R 5185   1.462   5.101   6.977 -1.8861  0.2424  3.6327
   64SAPC  C210 5186   1.283   5.208   7.054 -0.3561  0.0253 -0.2356
   64SAPC  H10R 5187   1.225   5.121   7.093 -0.1057 -0.0151  0.0470
   64SAPC  H10S 5188   1.215   5.283   7.009  1.8030  1.1781 -1.7886
   64SAPC  C211 5189   1.345   5.293   7.160  0.5905 -0.3117  0.5442
   64SAPC  H11R 5190   1.431   5.348   7.118  0.5173 -2.4700 -2.7921
   64SAPC  C212 5191   1.317   5.296   7.287  0.1904  0.4973 -0.7920
   64SAPC  H12R 5192   1.380   5.365   7.345 -1.5155  0.8841  0.6789
   64SAPC  C213 5193   1.207   5.237   7.374 -0.6988  0.6937  0.3578
   64SAPC  H13R 5194   1.130   5.187   7.311 -0.1712 -0.4066  0.5623
   64SAPC  H13S 5195   1.163   5.316   7.438 -3.8673 -0.3121 -0.4160
   64SAPC  C214 5196   1.271   5.125   7.452 -0.3251 -0.1578  0.3694
   64SAPC  H14R 5197   1.334   5.062   7.387  1.9642  4.0150 -1.8679
   64SAPC  C215 5198   1.257   5.108   7.584  0.3087  0.0678  0.3414
   64SAPC  H15R 5199   1.295   5.022   7.641 -0.0549  0.3420  1.0173
   64SAPC  C216 5200   1.173   5.205   7.659  0.2810  0.4764 -0.0698
   64SAPC  H16R 5201   1.074   5.199   7.608  0.6254 -0.4940 -0.6451
   64SAPC  H16S 5202   1.209   5.310   7.667 -2.4438  1.3911  2.2092
   64SAPC  C217 5203   1.149   5.141   7.804 -0.0328 -0.0865 -0.0554
   64SAPC  H17R 5204   1.252   5.148   7.845  0.4064  1.7053 -1.3074
   64SAPC  H17S 5205   1.127   5.034   7.787  1.2472 -0.2364 -0.9174
   64SAPC  C218 5206   1.037   5.212   7.878  0.1256  0.7363 -0.2573
   64SAPC  H18R 5207   0.965   5.218   7.793  2.2976 -1.0790 -2.4027
   64SAPC  H18S 5208   1.043   5.319   7.904 -0.6102  0.2418  2.2326
   64SAPC  C219 5209   0.988   5.136   8.002  0.2125 -0.1813  0.6499
   64SAPC  H19R 5210   1.065   5.058   8.021 -0.0371 -0.5219  0.2900
   64SAPC  H19S 5211   0.884   5.104   7.979 -0.3702  2.0832 -0.0986
   64SAPC  C220 5212   0.978   5.220   8.126 -0.1993 -0.4163 -0.1121
   64SAPC  H20R 5213   1.078   5.264   8.147 -0.1122 -1.6734  2.4585
   64SAPC  H20S 5214   0.951   5.157   8.213  1.7769  3.3454  3.5584
   64SAPC  H20T 5215   0.908   5.305   8.111  0.0404 -0.5327 -2.2453
   64SAPC   C33 5216   0.593   5.971   6.890 -0.3127 -0.2681 -0.1174
   64SAPC   H3X 5217   0.584   6.080   6.876  1.3015 -0.2793 -1.5413
   64SAPC   H3Y 5218   0.700   5.950   6.867 -0.7187 -0.9186 -1.5217
   64SAPC   C34 5219   0.561   5.945   7.036  0.2533  0.0526 -0.3379
   64SAPC   H4X 5220   0.646   5.979   7.098  0.8551 -1.1524 -0.4664
   64SAPC   H4Y 5221   0.541   5.836   7.041  1.6707 -0.1974  0.4342
   64SAPC   C35 5222   0.436   6.018   7.080  1.2363 -0.0688  0.5945
   64SAPC   H5X 5223   0.343   5.974   7.038 -0.4506  2.6798  1.1784
   64SAPC   H5Y 5224   0.440   6.127   7.059 -0.4127  0.2730  1.8388
   64SAPC   C36 5225   0.415   6.020   7.232 -0.1577  0.5803 -0.0974
   64SAPC   H6X 5226   0.511   6.042   7.284 -0.7328  0.7972  0.8920
   64SAPC   H6Y 5227   0.397   5.918   7.271  3.5583  0.6602  2.3460
   64SAPC   C37 5228   0.311   6.115   7.289  0.3851 -0.2353  0.6424
   64SAPC   H7X 5229   0.218   6.117   7.229  1.4788 -0.1515 -1.1579
   64SAPC   H7Y 5230   0.360   6.215   7.291  2.1428 -0.9931 -0.8829
   64SAPC   C38 5231   0.278   6.096   7.441  0.2261  0.5844  0.1065
   64SAPC   H8X 5232   0.374   6.123   7.491  0.8463  1.7238 -1.5957
   64SAPC   H8Y 5233   0.260   5.988   7.457  0.0889  0.6065  0.0952
   64SAPC   C39 5234   0.155   6.186   7.483 -0.7769  0.2748 -0.2619
   64SAPC   H9X 5235   0.057   6.151   7.442 -0.7307  0.2089 -0.3178
   64SAPC   H9Y 5236   0.169   6.280   7.426 -2.1979  0.5175 -0.2546
   64SAPC  C310 5237   0.143   6.199   7.640  0.5067 -0.3624  0.6442
   64SAPC  H10X 5238   0.048   6.256   7.649  0.8488  1.0683 -3.1259
   64SAPC  H10Y 5239   0.227   6.258   7.683  0.3341 -0.7380  1.5215
   64SAPC  C311 5240   0.122   6.068   7.718  0.9087 -0.3220 -0.4045
   64SAPC  H11X 5241   0.226   6.041   7.747  0.9909 -1.7799 -1.9123
   64SAPC  H11Y 5242   0.089   5.993   7.643  0.9766  0.9720 -1.7781
   64SAPC  C312 5243   0.020   6.088   7.829  0.7301  0.2647  0.4482
   64SAPC  H12X 5244  -0.077   6.118   7.783  2.1189  2.8399 -1.0256
   64SAPC  H12Y 5245   0.039   6.181   7.887 -1.0964 -0.1207  1.7666
   64SAPC  C313 5246   0.013   5.967   7.928  0.1074 -0.3655 -0.1995
   64SAPC  H13X 5247   0.113   5.931   7.960  0.7092  0.8783 -0.5837
   64SAPC  H13Y 5248  -0.044   5.888   7.874 -1.8184  1.6347 -1.2613
   64SAPC  C314 5249  -0.051   6.006   8.062 -0.2273 -0.5246 -0.1326
   64SAPC  H14X 5250   0.007   6.087   8.112 -0.8680 -0.4888  0.5738
   64SAPC  H14Y 5251  -0.059   5.914   8.125  1.4381 -0.4855  0.1885
   64SAPC  C315 5252  -0.195   6.061   8.048 -0.0105 -0.3568 -0.0742
   64SAPC  H15X 5253  -0.194   6.166   8.012 -0.2973  1.4787  4.6318
   64SAPC  H15Y 5254  -0.228   6.086   8.151 -0.1409 -2.7998  0.5440
   64SAPC  C316 5255  -0.300   5.964   7.980  0.6560 -0.1751 -0.3716
   64SAPC  H16X 5256  -0.254   5.922   7.888 -0.0144  0.3611 -0.9648
   64SAPC  H16Y 5257  -0.389   6.028   7.961 -0.6451 -2.5231 -2.7866
   64SAPC  C317 5258  -0.338   5.844   8.072  0.4890  0.1316 -0.8283
   64SAPC  H17X 5259  -0.241   5.790   8.082  1.6065  1.6305 -2.9663
   64SAPC  H17Y 5260  -0.413   5.774   8.031  0.6892 -0.7458  0.2501
   64SAPC  C318 5261  -0.377   5.885   8.223 -0.3853 -0.3652 -0.5911
   64SAPC  H18X 5262  -0.287   5.890   8.288 -0.8494  1.8598 -0.0509
   64SAPC  H18Y 5263  -0.442   5.811   8.275 -1.1295  1.3627  1.0502
   64SAPC  H18Z 5264  -0.416   5.989   8.227  0.9535  0.1307  0.1801
   65SAPC     N 5265   2.918   3.054   6.335  0.5325  0.4133 -0.2673
   65SAPC   C12 5266   2.822   3.164   6.311  0.1466 -0.7215  0.0201
   65SAPC  H12A 5267   2.876   3.255   6.328 -1.5105  0.2814  0.1609
   65SAPC  H12B 5268   2.734   3.164   6.374  0.8495  3.1102  1.2183
   65SAPC   C13 5269   3.031   3.053   6.233 -0.1348  0.0153  0.0267
   65SAPC  H13A 5270   2.992   3.056   6.132 -0.0730  0.3545  0.0133
   65SAPC  H13B 5271   3.102   3.131   6.254  1.4771 -1.9161  2.2683
   65SAPC  H13C 5272   3.094   2.966   6.232  0.2095  0.2624 -0.5182
   65SAPC   C14 5273   2.972   3.067   6.473 -0.1726 -0.1080  0.5489
   65SAPC  H14A 5274   3.057   3.003   6.492 -0.4332 -0.7322 -0.2970
   65SAPC  H14B 5275   3.007   3.168   6.487 -1.9953  0.5422  0.7594
   65SAPC  H14C 5276   2.891   3.048   6.542 -1.3125 -1.8830 -1.1644
   65SAPC   C15 5277   2.847   2.915   6.320  0.1743 -0.5941  0.2327
   65SAPC  H15A 5278   2.905   2.825   6.331 -2.7349 -2.5994  0.3558
   65SAPC  H15B 5279   2.774   2.906   6.399 -1.2961  0.1692 -0.9860
   65SAPC  H15C 5280   2.795   2.918   6.225  1.0523  2.0627 -0.2367
   65SAPC   C11 5281   2.757   3.174   6.177 -0.2699  0.2895  0.0409
   65SAPC  H11A 5282   2.830   3.157   6.095 -1.7981  0.2433 -1.3691
   65SAPC  H11B 5283   2.709   3.272   6.154 -1.3557 -0.3539 -0.5590
   65SAPC     P 5284   2.509   3.081   6.217 -0.1928  0.1084  0.3656
   65SAPC   O13 5285   2.438   3.177   6.132  0.5284 -0.3979  0.2080
   65SAPC   O14 5286   2.461   2.942   6.223 -0.3421  0.2908 -0.2002
   65SAPC   O12 5287   2.657   3.067   6.161 -0.9457 -0.0206  0.0187
   65SAPC   O11 5288   2.521   3.141   6.357  0.0681 -0.0518  0.2668
   65SAPC    C1 5289   2.415   3.183   6.438 -0.1776 -0.1830  0.1207
   65SAPC    HA 5290   2.404   3.293   6.434 -0.7423 -0.2471 -0.3416
   65SAPC    HB 5291   2.318   3.141   6.404 -0.2116  1.4358 -2.0003
   65SAPC    C2 5292   2.432   3.153   6.594 -0.1760 -0.5533  0.5739
   65SAPC    HS 5293   2.530   3.197   6.623 -0.3401  0.5702 -0.5150
   65SAPC   O21 5294   2.428   3.015   6.613 -0.0694 -0.1226  0.2900
   65SAPC   C21 5295   2.536   2.956   6.605  0.2721 -0.4427 -0.7358
   65SAPC   O22 5296   2.652   2.996   6.601  0.0936  0.1208  0.1660
   65SAPC   C22 5297   2.496   2.812   6.631 -0.0747 -0.8446 -0.5964
   65SAPC   H2R 5298   2.483   2.806   6.741  0.8810  0.5786 -0.3809
   65SAPC   H2S 5299   2.403   2.792   6.573 -2.0066  0.3973  1.8496
   65SAPC    C3 5300   2.327   3.229   6.683 -0.3134  1.1295 -0.1613
   65SAPC    HX 5301   2.233   3.212   6.626 -0.9529 -1.1473  1.4322
   65SAPC    HY 5302   2.355   3.336   6.693  0.2896  0.8816  0.9798
   65SAPC   O31 5303   2.315   3.163   6.817 -0.2995 -0.3862  0.2691
   65SAPC   C31 5304   2.415   3.184   6.896 -0.4008  0.2237  0.2596
   65SAPC   O32 5305   2.520   3.242   6.866 -0.5706  0.0845  0.4873
   65SAPC   C32 5306   2.385   3.120   7.034  0.3484 -0.1365  0.1511
   65SAPC   H2X 5307   2.388   3.009   7.029  2.2375 -0.2016  1.6298
   65SAPC   H2Y 5308   2.281   3.149   7.060  0.0780 -1.5187  0.6664
   65SAPC   C23 5309   2.612   2.718   6.600 -0.2594 -0.0142  0.3488
   65SAPC   H3R 5310   2.692   2.756   6.667 -1.6571  3.4010  0.2875
   65SAPC   H3S 5311   2.642   2.719   6.493 -1.0631  0.9859  0.1147
   65SAPC   C24 5312   2.581   2.573   6.633  0.5236  0.3819 -0.7082
   65SAPC   H4R 5313   2.580   2.571   6.744 -0.8788  0.1813 -0.7112
   65SAPC   H4S 5314   2.670   2.509   6.618  0.2393 -0.8281  2.2348
   65SAPC   C25 5315   2.454   2.513   6.564  0.1693  0.0691  0.0836
   65SAPC   H5R 5316   2.443   2.503   6.455 -1.5747 -0.8026  0.3029
   65SAPC   C26 5317   2.341   2.474   6.635 -0.2793  0.6558 -0.3290
   65SAPC   H6R 5318   2.246   2.466   6.580 -0.1452 -1.1800 -0.3825
   65SAPC   C27 5319   2.327   2.468   6.781 -0.2225 -0.1948  0.4789
   65SAPC   H7R 5320   2.345   2.572   6.816 -1.7040  0.6888 -1.1961
   65SAPC   H7S 5321   2.411   2.412   6.827  0.6675  0.5522 -0.2058
   65SAPC   C28 5322   2.201   2.419   6.835 -0.0631 -1.1182 -0.2543
   65SAPC   H8R 5323   2.113   2.412   6.769 -1.8826 -1.6947  2.1060
   65SAPC   C29 5324   2.185   2.383   6.965  0.4259  0.6218 -0.1494
   65SAPC   H9R 5325   2.085   2.360   7.003 -0.0723 -1.0089 -2.2673
   65SAPC  C210 5326   2.288   2.378   7.078 -0.3139 -1.0683  0.2832
   65SAPC  H10R 5327   2.241   2.440   7.157 -1.2354 -0.7157 -0.5252
   65SAPC  H10S 5328   2.378   2.439   7.053 -0.9046 -0.4207 -0.2956
   65SAPC  C211 5329   2.319   2.235   7.123  0.2572 -0.2809  0.1719
   65SAPC  H11R 5330   2.359   2.173   7.042 -2.3814 -0.2642 -1.2577
   65SAPC  C212 5331   2.288   2.177   7.240  0.1528  0.0208 -0.6952
   65SAPC  H12R 5332   2.310   2.069   7.240 -0.7164 -0.1723  0.3980
   65SAPC  C213 5333   2.222   2.247   7.361 -0.3798  0.0866  0.8738
   65SAPC  H13R 5334   2.126   2.285   7.319  1.0056  1.4289 -1.2818
   65SAPC  H13S 5335   2.273   2.343   7.381 -0.8722  0.1523  1.8848
   65SAPC  C214 5336   2.196   2.161   7.485 -0.2487  0.0224  0.4367
   65SAPC  H14R 5337   2.152   2.062   7.472 -1.1427  0.6518 -1.6737
   65SAPC  C215 5338   2.233   2.200   7.602 -0.6243 -0.3501 -0.6095
   65SAPC  H15R 5339   2.213   2.134   7.688 -0.4555 -0.9638 -1.0402
   65SAPC  C216 5340   2.308   2.328   7.647 -0.6545  0.1674 -0.1134
   65SAPC  H16R 5341   2.240   2.388   7.712 -0.9497  0.1439 -0.3967
   65SAPC  H16S 5342   2.344   2.384   7.558 -0.5271 -1.1918 -0.9375
   65SAPC  C217 5343   2.430   2.303   7.745 -0.1890 -0.1841 -0.5553
   65SAPC  H17R 5344   2.481   2.402   7.754  0.5018 -0.5963  0.1422
   65SAPC  H17S 5345   2.497   2.226   7.703 -1.7178 -2.0688  0.3188
   65SAPC  C218 5346   2.383   2.275   7.892  1.2131  0.1724  0.0549
   65SAPC  H18R 5347   2.332   2.176   7.895  1.0595  0.2437 -0.2076
   65SAPC  H18S 5348   2.301   2.345   7.917  1.9087  1.5392 -1.3848
   65SAPC  C219 5349   2.499   2.288   7.995  0.5101  0.2928  0.5391
   65SAPC  H19R 5350   2.529   2.395   7.994  3.2599 -0.3893 -0.5857
   65SAPC  H19S 5351   2.585   2.223   7.969 -0.3142 -0.2191 -1.0307
   65SAPC  C220 5352   2.444   2.251   8.130  0.2986  0.3431 -0.0777
   65SAPC  H20R 5353   2.405   2.150   8.107  1.0131  0.4416 -1.9251
   65SAPC  H20S 5354   2.364   2.321   8.163  1.7199  2.3932 -0.7684
   65SAPC  H20T 5355   2.522   2.243   8.208 -0.0522 -1.0135  0.1535
   65SAPC   C33 5356   2.478   3.161   7.148 -0.2955 -0.1013  0.1162
   65SAPC   H3X 5357   2.515   3.264   7.130 -0.5844 -0.1504 -0.8191
   65SAPC   H3Y 5358   2.569   3.097   7.154  0.4011  0.8186 -0.2897
   65SAPC   C34 5359   2.410   3.151   7.280 -0.5877 -0.0450  0.1685
   65SAPC   H4X 5360   2.369   3.049   7.294  0.5856 -0.4585  0.6602
   65SAPC   H4Y 5361   2.333   3.232   7.278  1.8247  2.4755  1.8038
   65SAPC   C35 5362   2.496   3.169   7.408 -0.3533  0.0284 -0.1843
   65SAPC   H5X 5363   2.530   3.275   7.405  1.5657 -0.5612 -0.8916
   65SAPC   H5Y 5364   2.580   3.098   7.398  0.2477  0.6751  0.1862
   65SAPC   C36 5365   2.422   3.139   7.537 -0.1305 -0.1790 -0.2723
   65SAPC   H6X 5366   2.379   3.037   7.538  1.0119 -0.6955 -1.3089
   65SAPC   H6Y 5367   2.350   3.223   7.527  2.4514  2.1965 -0.3539
   65SAPC   C37 5368   2.534   3.163   7.647  0.4137  0.1866  0.1806
   65SAPC   H7X 5369   2.573   3.264   7.621 -2.1761  0.5804 -2.8893
   65SAPC   H7Y 5370   2.599   3.074   7.647 -2.0359 -1.7389  2.0115
   65SAPC   C38 5371   2.491   3.179   7.796 -0.2761  0.0432 -0.7776
   65SAPC   H8X 5372   2.430   3.092   7.827  1.2886 -0.0296  2.4750
   65SAPC   H8Y 5373   2.428   3.270   7.803  0.5837  0.6146 -0.1802
   65SAPC   C39 5374   2.613   3.192   7.893 -0.1878  0.6107  0.2316
   65SAPC   H9X 5375   2.678   3.280   7.871  0.6968  0.2536  1.2777
   65SAPC   H9Y 5376   2.679   3.104   7.879  0.3364  1.3956 -3.1073
   65SAPC  C310 5377   2.583   3.195   8.046  0.1512 -0.2639  0.6525
   65SAPC  H10X 5378   2.683   3.193   8.094  1.0711 -0.1706 -1.1358
   65SAPC  H10Y 5379   2.524   3.103   8.069 -0.5668 -0.1925 -0.7808
   65SAPC  C311 5380   2.495   3.317   8.082 -0.3861  0.1796 -0.3085
   65SAPC  H11X 5381   2.398   3.299   8.031 -0.0538 -0.9443 -0.5473
   65SAPC  H11Y 5382   2.539   3.414   8.051 -0.9297  0.3966 -0.4180
   65SAPC  C312 5383   2.467   3.322   8.237 -0.0986  0.3294 -0.4031
   65SAPC  H12X 5384   2.563   3.336   8.293  0.4925  0.7788 -1.4962
   65SAPC  H12Y 5385   2.420   3.224   8.261 -1.4493  1.1763  0.5499
   65SAPC  C313 5386   2.385   3.440   8.285  0.2544 -0.5502  0.4113
   65SAPC  H13X 5387   2.284   3.441   8.237  1.5454  1.2340 -2.5801
   65SAPC  H13Y 5388   2.429   3.534   8.246  0.3797 -0.0517  1.7049
   65SAPC  C314 5389   2.367   3.445   8.439 -0.2817  0.4942 -0.1184
   65SAPC  H14X 5390   2.447   3.504   8.488 -1.9393  1.5493  1.4772
   65SAPC  H14Y 5391   2.386   3.339   8.467 -1.2203  0.3449  0.0125
   65SAPC  C315 5392   2.228   3.482   8.496 -0.4489 -0.0253  0.0925
   65SAPC  H15X 5393   2.232   3.460   8.604 -0.9844  0.0644  0.1320
   65SAPC  H15Y 5394   2.153   3.417   8.446  1.5801 -0.7842 -2.1933
   65SAPC  C316 5395   2.199   3.627   8.476 -0.2203 -0.6348  0.1760
   65SAPC  H16X 5396   2.198   3.630   8.365 -1.8301 -2.1867  0.1038
   65SAPC  H16Y 5397   2.273   3.697   8.520  0.0067 -1.9427  1.9700
   65SAPC  C317 5398   2.062   3.669   8.528 -0.2444 -0.1428 -0.3603
   65SAPC  H17X 5399   1.980   3.603   8.494  0.6847 -1.9893  0.8386
   65SAPC  H17Y 5400   2.044   3.765   8.475 -3.2465 -0.3277  0.1735
   65SAPC  C318 5401   2.055   3.667   8.678  0.3042 -0.2572  0.4121
   65SAPC  H18X 5402   2.098   3.577   8.729  2.1829  0.1500 -0.3721
   65SAPC  H18Y 5403   1.951   3.669   8.716  0.5769  0.7631  1.1489
   65SAPC  H18Z 5404   2.106   3.756   8.721  1.3405 -0.6025 -0.0509
   66SAPC     N 5405   5.971   6.126   5.783 -0.2733  0.4596  0.0827
   66SAPC   C12 5406   6.084   6.157   5.883  0.3566 -0.2797  0.7440
   66SAPC  H12A 5407   6.159   6.081   5.866  0.7904  0.1537  0.7387
   66SAPC  H12B 5408   6.049   6.130   5.982 -1.7288 -2.3898 -0.4412
   66SAPC   C13 5409   5.914   5.992   5.820  0.4004 -0.7037 -0.1616
   66SAPC  H13A 5410   5.974   5.904   5.800  0.9439 -0.8950  2.0797
   66SAPC  H13B 5411   5.900   5.981   5.927  0.2195  0.0861 -0.1015
   66SAPC  H13C 5412   5.818   5.977   5.773  0.5823 -0.5267 -0.5886
   66SAPC   C14 5413   5.867   6.232   5.801 -0.1975  0.2805  0.2046
   66SAPC  H14A 5414   5.892   6.319   5.742  0.7469 -0.5518 -0.6596
   66SAPC  H14B 5415   5.772   6.200   5.761 -0.1631  0.6312 -0.1669
   66SAPC  H14C 5416   5.871   6.269   5.902  1.9068 -0.2295  0.3511
   66SAPC   C15 5417   6.022   6.123   5.649  0.2538 -0.2422 -0.2530
   66SAPC  H15A 5418   6.038   6.224   5.613  0.1668 -0.0313  0.2924
   66SAPC  H15B 5419   6.107   6.060   5.631 -1.7179 -2.7799 -1.3298
   66SAPC  H15C 5420   5.958   6.074   5.577  0.4406 -0.8723  0.0079
   66SAPC   C11 5421   6.162   6.288   5.870 -0.0345 -0.0348 -0.3307
   66SAPC  H11A 5422   6.208   6.295   5.769 -0.1315  0.4121 -0.3416
   66SAPC  H11B 5423   6.244   6.271   5.943 -0.2835 -2.2319 -0.4742
   66SAPC     P 5424   6.022   6.448   6.039  0.1049  0.2417 -0.3331
   66SAPC   O13 5425   6.117   6.536   6.101 -0.5799 -0.2197  0.4518
   66SAPC   O14 5426   5.885   6.492   6.016  0.1270  0.4302  0.0251
   66SAPC   O12 5427   6.078   6.401   5.899 -0.0973  0.4889 -0.4878
   66SAPC   O11 5428   6.014   6.316   6.127  0.2778 -0.3422  0.5517
   66SAPC    C1 5429   6.121   6.286   6.212  0.4301 -0.5037 -0.4541
   66SAPC    HA 5430   6.130   6.175   6.214 -1.4625 -0.6970  1.4448
   66SAPC    HB 5431   6.220   6.326   6.183  0.7722 -0.3613  0.8312
   66SAPC    C2 5432   6.109   6.334   6.360  0.4951 -0.0350  0.1814
   66SAPC    HS 5433   6.126   6.443   6.368  0.3707  0.0224 -0.3693
   66SAPC   O21 5434   6.206   6.255   6.429  0.0940 -0.5484  0.0066
   66SAPC   C21 5435   6.258   6.306   6.540 -0.0856  0.0010  0.0560
   66SAPC   O22 5436   6.230   6.417   6.580  0.0361 -0.2712  0.1596
   66SAPC   C22 5437   6.364   6.224   6.603 -1.3788 -0.0605 -0.0111
   66SAPC   H2R 5438   6.328   6.119   6.596  0.1294 -0.6434  0.7058
   66SAPC   H2S 5439   6.459   6.246   6.551 -0.8851  2.6752  1.8416
   66SAPC    C3 5440   5.973   6.290   6.425  0.5553 -0.2333  0.4214
   66SAPC    HX 5441   5.969   6.180   6.409 -2.9746  0.2580 -3.6036
   66SAPC    HY 5442   5.898   6.344   6.365  1.5900 -0.7998 -1.4645
   66SAPC   O31 5443   5.950   6.325   6.566 -0.3433  0.1037  0.0901
   66SAPC   C31 5444   5.920   6.451   6.600  0.0470  0.1831 -0.3204
   66SAPC   O32 5445   5.888   6.536   6.518  0.1056 -0.5418 -0.0453
   66SAPC   C32 5446   5.961   6.475   6.749 -0.2825  0.6184 -0.1911
   66SAPC   H2X 5447   6.034   6.396   6.778  0.4755  1.1268 -0.6662
   66SAPC   H2Y 5448   5.867   6.466   6.807  1.4358  1.9342  3.0859
   66SAPC   C23 5449   6.381   6.245   6.758  1.1569  0.9687  0.1822
   66SAPC   H3R 5450   6.288   6.260   6.817  2.2138  1.6037  1.7471
   66SAPC   H3S 5451   6.438   6.339   6.773 -0.6195  1.8264  1.9685
   66SAPC   C24 5452   6.463   6.134   6.825  0.1915  0.6180  0.3400
   66SAPC   H4R 5453   6.524   6.177   6.907  1.2208  0.4336 -0.3067
   66SAPC   H4S 5454   6.538   6.090   6.756  1.5211  1.7532  1.0043
   66SAPC   C25 5455   6.370   6.023   6.869 -0.7048 -0.5764  0.6596
   66SAPC   H5R 5456   6.326   5.957   6.792 -0.7173  0.9500 -0.6852
   66SAPC   C26 5457   6.333   5.999   6.996  0.0988 -0.0742  0.2995
   66SAPC   H6R 5458   6.261   5.917   7.013 -1.0724  1.3788  2.7929
   66SAPC   C27 5459   6.375   6.077   7.128  0.0707 -0.5612  0.0713
   66SAPC   H7R 5460   6.433   6.166   7.096  0.6429  0.1033  2.7718
   66SAPC   H7S 5461   6.433   6.017   7.201  0.9643  2.9720  2.5331
   66SAPC   C28 5462   6.253   6.124   7.203  0.2760  0.2721 -0.0525
   66SAPC   H8R 5463   6.160   6.112   7.145  1.1238 -0.9446 -1.2431
   66SAPC   C29 5464   6.250   6.168   7.327 -0.4199 -0.3996  0.4319
   66SAPC   H9R 5465   6.146   6.180   7.363  0.4206  1.5616  2.4443
   66SAPC  C210 5466   6.372   6.191   7.417 -0.3043  0.4647  0.3372
   66SAPC  H10R 5467   6.351   6.295   7.449  1.0633  0.4343  1.4703
   66SAPC  H10S 5468   6.465   6.198   7.356 -0.2479 -0.8792  0.2395
   66SAPC  C211 5469   6.387   6.084   7.521 -0.4412  0.2625  0.4519
   66SAPC  H11R 5470   6.445   5.994   7.496 -1.4951  0.2084 -2.0754
   66SAPC  C212 5471   6.345   6.089   7.649 -0.2852  0.2908  0.6077
   66SAPC  H12R 5472   6.347   5.997   7.709 -1.4073  0.7846  1.4432
   66SAPC  C213 5473   6.265   6.200   7.714  0.1128  0.3099  0.6873
   66SAPC  H13R 5474   6.177   6.167   7.772 -0.3033  1.5145  0.7610
   66SAPC  H13S 5475   6.219   6.264   7.636 -0.0497 -0.7125 -0.0924
   66SAPC  C214 5476   6.361   6.276   7.793  0.7943 -0.2134  0.0899
   66SAPC  H14R 5477   6.454   6.293   7.738  0.5662  0.4456 -0.1080
   66SAPC  C215 5478   6.359   6.315   7.923  0.3087  0.8942 -0.0199
   66SAPC  H15R 5479   6.456   6.356   7.955  0.9099 -0.1673 -0.4191
   66SAPC  C216 5480   6.251   6.295   8.028 -0.3872  0.9591  0.4727
   66SAPC  H16R 5481   6.235   6.188   8.055 -0.9573  1.4794  2.3593
   66SAPC  H16S 5482   6.164   6.342   7.979  1.7282  2.7121 -1.8660
   66SAPC  C217 5483   6.282   6.383   8.146 -0.2738 -0.0401 -0.4202
   66SAPC  H17R 5484   6.188   6.398   8.203  0.7531 -0.9062  1.6000
   66SAPC  H17S 5485   6.317   6.485   8.118  1.1788  0.2307  2.1102
   66SAPC  C218 5486   6.391   6.317   8.238  0.2765  0.0560  0.8290
   66SAPC  H18R 5487   6.484   6.293   8.183  0.7189  1.0153  1.1485
   66SAPC  H18S 5488   6.350   6.218   8.269 -0.6535  0.1717  0.0325
   66SAPC  C219 5489   6.426   6.405   8.359  0.5065  0.5691 -0.3364
   66SAPC  H19R 5490   6.328   6.434   8.401  0.5470  0.7175 -0.3417
   66SAPC  H19S 5491   6.487   6.495   8.335 -1.6773  1.8623 -1.4188
   66SAPC  C220 5492   6.492   6.321   8.463 -0.7245 -0.2315 -0.0439
   66SAPC  H20R 5493   6.507   6.371   8.562  0.8677 -1.3548  0.3318
   66SAPC  H20S 5494   6.593   6.283   8.436 -1.3364 -1.1744 -1.0607
   66SAPC  H20T 5495   6.428   6.231   8.477 -2.8219  1.5149  2.6637
   66SAPC   C33 5496   6.006   6.621   6.779 -0.0643 -0.2688  0.4126
   66SAPC   H3X 5497   5.929   6.697   6.752  0.8841  0.2598 -0.9171
   66SAPC   H3Y 5498   6.101   6.646   6.727  0.0616  1.7448  1.5108
   66SAPC   C34 5499   6.046   6.633   6.924  0.4069  0.2699 -0.5836
   66SAPC   H4X 5500   5.962   6.598   6.988  1.5016  0.6419  1.1029
   66SAPC   H4Y 5501   6.064   6.740   6.948  0.0759  0.4973 -1.3309
   66SAPC   C35 5502   6.176   6.552   6.956 -0.2905  0.3716 -0.3597
   66SAPC   H5X 5503   6.257   6.628   6.953  0.3255 -0.2649 -0.0000
   66SAPC   H5Y 5504   6.182   6.469   6.882 -1.6122 -0.7485  0.7234
   66SAPC   C36 5505   6.179   6.502   7.110  0.4770 -0.1097  0.3559
   66SAPC   H6X 5506   6.261   6.427   7.109 -0.8612 -1.6267 -0.0914
   66SAPC   H6Y 5507   6.087   6.441   7.120  0.9306 -0.5081  2.3951
   66SAPC   C37 5508   6.192   6.605   7.213 -0.0306 -0.3676  0.0383
   66SAPC   H7X 5509   6.119   6.686   7.193  0.2533 -0.7237 -2.8706
   66SAPC   H7Y 5510   6.291   6.654   7.204 -1.1965  2.5704  1.8805
   66SAPC   C38 5511   6.154   6.545   7.357 -0.0041  0.3925  0.0347
   66SAPC   H8X 5512   6.247   6.495   7.391 -1.5712 -2.2909  0.6701
   66SAPC   H8Y 5513   6.073   6.470   7.341  0.4709 -0.6057  2.0419
   66SAPC   C39 5514   6.099   6.640   7.457 -0.1458  0.3609 -1.1947
   66SAPC   H9X 5515   5.989   6.649   7.450 -0.1386  0.4279 -1.2244
   66SAPC   H9Y 5516   6.141   6.739   7.429 -0.3373  0.5759 -0.7235
   66SAPC  C310 5517   6.148   6.606   7.593 -0.6165  0.0727  0.5616
   66SAPC  H10X 5518   6.259   6.614   7.598 -0.2006 -1.7948 -2.6873
   66SAPC  H10Y 5519   6.129   6.499   7.613  1.2876 -0.5037 -0.4383
   66SAPC  C311 5520   6.087   6.692   7.707  0.9598  0.0366  0.0064
   66SAPC  H11X 5521   5.984   6.650   7.717  0.6674  0.6709 -0.2571
   66SAPC  H11Y 5522   6.080   6.795   7.666  0.6423 -0.6480 -1.7398
   66SAPC  C312 5523   6.156   6.685   7.844 -0.3682 -0.2416 -0.4726
   66SAPC  H12X 5524   6.261   6.708   7.814 -0.5035 -0.9285 -1.5514
   66SAPC  H12Y 5525   6.142   6.587   7.895  0.9322  1.0225  2.5611
   66SAPC  C313 5526   6.113   6.808   7.930  0.1761 -0.2098 -0.6700
   66SAPC  H13X 5527   6.136   6.901   7.875  2.6986  0.0943  0.7313
   66SAPC  H13Y 5528   6.171   6.812   8.025 -1.0060  1.2001  0.0285
   66SAPC  C314 5529   5.959   6.802   7.959 -0.9586 -0.1544 -0.4353
   66SAPC  H14X 5530   5.922   6.704   7.996  0.0124 -0.2031  0.4391
   66SAPC  H14Y 5531   5.911   6.816   7.860  0.6479  3.0054 -0.8950
   66SAPC  C315 5532   5.922   6.910   8.052 -0.2841  0.1882  0.2378
   66SAPC  H15X 5533   5.910   7.006   7.997  0.4073  1.4238  2.1347
   66SAPC  H15Y 5534   6.001   6.922   8.129  0.7844 -2.1990 -0.3972
   66SAPC  C316 5535   5.785   6.897   8.111 -0.3916 -0.0314  0.7590
   66SAPC  H16X 5536   5.784   6.809   8.179 -1.1629  0.6254  1.6161
   66SAPC  H16Y 5537   5.701   6.881   8.041 -1.6471  1.3534  1.8981
   66SAPC  C317 5538   5.734   7.022   8.190 -0.8386 -0.0283 -0.1750
   66SAPC  H17X 5539   5.737   7.100   8.110 -0.9598  0.6190  0.4462
   66SAPC  H17Y 5540   5.806   7.053   8.268  1.2573  0.1592 -2.0668
   66SAPC  C318 5541   5.595   7.019   8.252  0.1270  1.1880  0.3591
   66SAPC  H18X 5542   5.523   7.016   8.168 -1.5709  1.4409  1.7320
   66SAPC  H18Y 5543   5.581   7.106   8.320 -2.7025  2.1987 -1.3840
   66SAPC  H18Z 5544   5.585   6.928   8.316 -1.6921 -0.9701 -2.7296
   67SAPC     N 5545   1.331   1.757   5.997 -0.4012 -0.1400 -0.3392
   67SAPC   C12 5546   1.401   1.695   6.113  0.3409  0.1729 -0.1620
   67SAPC  H12A 5547   1.505   1.690   6.083  0.5203 -0.0685  0.4655
   67SAPC  H12B 5548   1.371   1.591   6.120  0.6955  0.0877  0.1365
   67SAPC   C13 5549   1.393   1.889   5.971 -0.0430 -0.3014 -0.2444
   67SAPC  H13A 5550   1.352   1.938   5.884  0.2161  1.2454  0.4683
   67SAPC  H13B 5551   1.384   1.957   6.054  2.1676 -0.1491 -0.0711
   67SAPC  H13C 5552   1.500   1.880   5.958 -0.2167 -1.7180 -0.8837
   67SAPC   C14 5553   1.344   1.672   5.877  0.1431  0.8347 -0.3008
   67SAPC  H14A 5554   1.308   1.574   5.903  1.5552  0.1531 -0.8141
   67SAPC  H14B 5555   1.285   1.719   5.800  1.2654  1.7273 -0.6590
   67SAPC  H14C 5556   1.446   1.671   5.840  0.1259  0.9480 -0.3514
   67SAPC   C15 5557   1.194   1.777   6.020 -0.1720  0.9836  0.4354
   67SAPC  H15A 5558   1.167   1.833   6.109 -1.3873  2.0815 -0.5852
   67SAPC  H15B 5559   1.149   1.830   5.938 -0.1647  0.0680 -0.1703
   67SAPC  H15C 5560   1.154   1.680   6.045 -0.6504  0.8142 -0.9200
   67SAPC   C11 5561   1.398   1.744   6.251  0.1865  0.0877 -0.0811
   67SAPC  H11A 5562   1.444   1.678   6.327  1.0939  1.2199  0.3705
   67SAPC  H11B 5563   1.295   1.747   6.292  0.4608 -3.7270  1.3631
   67SAPC     P 5564   1.604   1.900   6.266 -0.1268 -0.0094 -0.3471
   67SAPC   O13 5565   1.675   1.816   6.168 -0.2268 -0.3349 -0.7426
   67SAPC   O14 5566   1.628   2.049   6.268  0.3887 -0.6436  0.0442
   67SAPC   O12 5567   1.450   1.875   6.263 -0.2976 -0.0008 -0.0705
   67SAPC   O11 5568   1.637   1.851   6.418  0.3363  0.0432 -0.1735
   67SAPC    C1 5569   1.553   1.895   6.525 -0.2095  0.5917  0.5797
   67SAPC    HA 5570   1.537   2.003   6.504 -1.4942  0.0487 -1.5391
   67SAPC    HB 5571   1.459   1.836   6.526  0.3860 -0.4162  2.6468
   67SAPC    C2 5572   1.612   1.882   6.669 -0.2881  0.0994  0.8999
   67SAPC    HS 5573   1.708   1.935   6.687  0.6886  0.3972 -3.8645
   67SAPC   O21 5574   1.621   1.749   6.705  0.5824  0.7886  0.6697
   67SAPC   C21 5575   1.724   1.685   6.671 -0.1513 -0.1124 -0.2821
   67SAPC   O22 5576   1.826   1.731   6.630 -0.0543 -0.6924 -0.0621
   67SAPC   C22 5577   1.701   1.538   6.717  0.3702  0.7256  0.0271
   67SAPC   H2R 5578   1.661   1.539   6.821  0.1824  0.0163 -0.0296
   67SAPC   H2S 5579   1.618   1.490   6.660 -0.0392  0.0254  1.1615
   67SAPC    C3 5580   1.508   1.945   6.772 -0.2473  0.2050  0.7786
   67SAPC    HX 5581   1.554   1.950   6.873 -0.0321  1.7025  0.6226
   67SAPC    HY 5582   1.428   1.867   6.781  1.6945 -2.0388 -0.2458
   67SAPC   O31 5583   1.447   2.072   6.724  0.6042 -0.0843  0.1800
   67SAPC   C31 5584   1.530   2.185   6.750  0.0734 -0.5352  0.1149
   67SAPC   O32 5585   1.644   2.176   6.789 -0.3774  0.0114  0.7815
   67SAPC   C32 5586   1.449   2.312   6.736  0.2147  0.5832 -0.3254
   67SAPC   H2X 5587   1.409   2.316   6.632  1.6063  2.2235 -0.8563
   67SAPC   H2Y 5588   1.527   2.391   6.731  1.0349 -0.2612 -2.1971
   67SAPC   C23 5589   1.828   1.452   6.719 -0.2481  0.0673  0.3071
   67SAPC   H3R 5590   1.908   1.499   6.657 -0.9429 -0.0191 -0.6821
   67SAPC   H3S 5591   1.797   1.354   6.677 -1.6511  0.1205  1.1489
   67SAPC   C24 5592   1.884   1.408   6.860  0.5064 -0.6100  0.3916
   67SAPC   H4R 5593   1.911   1.506   6.905  1.0923 -1.2356  1.4155
   67SAPC   H4S 5594   1.968   1.336   6.855  0.8396 -0.1416 -2.1531
   67SAPC   C25 5595   1.782   1.342   6.947  0.1067 -0.5713  0.3981
   67SAPC   H5R 5596   1.726   1.257   6.906  0.1454  0.0059 -0.8869
   67SAPC   C26 5597   1.761   1.365   7.082  0.2755  0.6499  0.6270
   67SAPC   H6R 5598   1.674   1.314   7.126 -0.2866  0.3454 -0.7825
   67SAPC   C27 5599   1.829   1.476   7.161 -0.3041  0.0100 -0.1457
   67SAPC   H7R 5600   1.778   1.479   7.259 -0.1304 -2.3587  0.0885
   67SAPC   H7S 5601   1.818   1.575   7.113  0.8003  0.5033  0.5661
   67SAPC   C28 5602   1.972   1.443   7.202  0.0275  0.7713  0.1779
   67SAPC   H8R 5603   2.018   1.374   7.129 -0.6171  1.9581 -1.3971
   67SAPC   C29 5604   2.046   1.492   7.303 -0.0662 -0.4581 -1.5432
   67SAPC   H9R 5605   2.144   1.447   7.328  0.3250  0.6169 -1.0951
   67SAPC  C210 5606   2.024   1.596   7.412 -0.1755  0.8138 -0.0428
   67SAPC  H10R 5607   2.020   1.567   7.519 -0.6039 -0.1820 -0.3177
   67SAPC  H10S 5608   1.922   1.638   7.400 -0.2381  0.3513 -1.2675
   67SAPC  C211 5609   2.119   1.716   7.383 -1.3878  0.1105 -0.3041
   67SAPC  H11R 5610   2.135   1.736   7.276  1.1202 -1.3367 -0.2857
   67SAPC  C212 5611   2.172   1.802   7.475  0.6852 -0.0042 -0.5631
   67SAPC  H12R 5612   2.220   1.894   7.437  2.4454 -0.0618  1.3357
   67SAPC  C213 5613   2.150   1.801   7.625  0.5556  0.0161 -0.3224
   67SAPC  H13R 5614   2.136   1.695   7.654 -0.0514  0.0902 -0.3223
   67SAPC  H13S 5615   2.054   1.853   7.646  1.2871  1.0151  0.6547
   67SAPC  C214 5616   2.259   1.872   7.705  0.0072 -0.5448  0.2721
   67SAPC  H14R 5617   2.331   1.929   7.645  1.8486 -1.5655  1.3833
   67SAPC  C215 5618   2.282   1.852   7.838  0.4105  0.4369  0.1957
   67SAPC  H15R 5619   2.354   1.916   7.890  0.5458  0.1993  0.3008
   67SAPC  C216 5620   2.212   1.763   7.938  0.2687 -0.1292  0.3084
   67SAPC  H16R 5621   2.282   1.677   7.937  0.5136  0.0708 -0.6919
   67SAPC  H16S 5622   2.117   1.717   7.905  1.5226 -2.9978  0.3967
   67SAPC  C217 5623   2.207   1.803   8.092  0.5216  0.0549  0.0375
   67SAPC  H17R 5624   2.292   1.765   8.153 -0.6482 -0.5348  1.3541
   67SAPC  H17S 5625   2.122   1.746   8.135  0.1818  1.1934  0.9391
   67SAPC  C218 5626   2.184   1.955   8.130 -0.5062  0.1804 -0.6778
   67SAPC  H18R 5627   2.078   1.973   8.100 -1.0683 -0.4959  0.8121
   67SAPC  H18S 5628   2.248   2.024   8.071  1.4279  0.3063  1.4752
   67SAPC  C219 5629   2.200   1.991   8.280  0.4154  0.2801  0.5883
   67SAPC  H19R 5630   2.302   1.976   8.321  0.2208 -0.7467  0.7371
   67SAPC  H19S 5631   2.136   1.912   8.326 -3.5910  2.4432 -0.7857
   67SAPC  C220 5632   2.154   2.131   8.313 -0.0873 -0.0217 -0.0669
   67SAPC  H20R 5633   2.144   2.151   8.422 -1.0031 -2.6694  0.4001
   67SAPC  H20S 5634   2.062   2.146   8.251 -0.6622  0.0128  0.7764
   67SAPC  H20T 5635   2.230   2.207   8.285 -0.2021  0.6670  1.3933
   67SAPC   C33 5636   1.356   2.335   6.854  0.6354 -0.2232  1.3028
   67SAPC   H3X 5637   1.273   2.262   6.855 -0.9064  1.3678 -0.7690
   67SAPC   H3Y 5638   1.312   2.436   6.840  2.4883  0.6051  1.0881
   67SAPC   C34 5639   1.418   2.340   6.995 -0.4280 -0.5500 -0.6770
   67SAPC   H4X 5640   1.518   2.386   6.978 -1.3267  1.4403 -0.8056
   67SAPC   H4Y 5641   1.443   2.239   7.033 -0.6158 -0.8004 -1.2114
   67SAPC   C35 5642   1.344   2.422   7.101 -0.2401 -0.1051  0.6456
   67SAPC   H5X 5643   1.240   2.386   7.118 -0.6011 -0.7842 -2.4041
   67SAPC   H5Y 5644   1.334   2.529   7.071  0.7727  0.0136  0.6946
   67SAPC   C36 5645   1.430   2.435   7.232  0.3655  0.9185 -0.2070
   67SAPC   H6X 5646   1.528   2.481   7.204  2.0883 -1.7659  1.0884
   67SAPC   H6Y 5647   1.447   2.329   7.259 -3.9042  0.2936  0.6253
   67SAPC   C37 5648   1.363   2.504   7.349 -0.1676 -0.1486  0.5643
   67SAPC   H7X 5649   1.263   2.460   7.368 -1.4962  2.0095 -0.9893
   67SAPC   H7Y 5650   1.338   2.607   7.316  1.1733  0.4756  1.4131
   67SAPC   C38 5651   1.449   2.531   7.475  0.3610 -1.0780  0.0180
   67SAPC   H8X 5652   1.528   2.604   7.445 -1.0433  0.1456 -0.8253
   67SAPC   H8Y 5653   1.478   2.427   7.500 -0.1314 -0.6648  2.5827
   67SAPC   C39 5654   1.361   2.583   7.589  0.1835  0.0945  0.2761
   67SAPC   H9X 5655   1.273   2.518   7.604  1.1174 -1.4075 -0.4955
   67SAPC   H9Y 5656   1.336   2.688   7.563  0.3614 -0.1641 -0.9993
   67SAPC  C310 5657   1.425   2.585   7.731 -0.1936 -0.0257  0.5338
   67SAPC  H10X 5658   1.525   2.633   7.724  1.0644 -2.1861  2.3437
   67SAPC  H10Y 5659   1.445   2.486   7.777  1.7303  0.2783  0.4361
   67SAPC  C311 5660   1.331   2.668   7.826  0.1127 -0.0644 -0.6288
   67SAPC  H11X 5661   1.239   2.609   7.846 -0.2680  1.5943  3.2695
   67SAPC  H11Y 5662   1.296   2.766   7.786  0.3668  0.1745 -0.2596
   67SAPC  C312 5663   1.405   2.672   7.964 -0.2820 -0.7916 -0.4524
   67SAPC  H12X 5664   1.504   2.721   7.955 -1.0651  1.1317  0.7457
   67SAPC  H12Y 5665   1.435   2.569   7.992  0.0747 -0.4276  0.5501
   67SAPC  C313 5666   1.308   2.726   8.078 -0.5060  0.2150  0.5427
   67SAPC  H13X 5667   1.219   2.659   8.076  0.3238 -0.9562  1.1698
   67SAPC  H13Y 5668   1.272   2.826   8.046 -3.0013 -0.8212 -0.1729
   67SAPC  C314 5669   1.366   2.729   8.225  0.1959 -0.7005  0.3365
   67SAPC  H14X 5670   1.443   2.810   8.226 -0.2829 -0.1696 -1.4488
   67SAPC  H14Y 5671   1.420   2.636   8.254 -0.3183 -1.8413 -2.1150
   67SAPC  C315 5672   1.258   2.748   8.335 -0.7051 -0.4944 -0.2649
   67SAPC  H15X 5673   1.215   2.647   8.354 -0.6377 -0.3848  0.5051
   67SAPC  H15Y 5674   1.188   2.823   8.293 -1.0854 -0.3538  0.5855
   67SAPC  C316 5675   1.313   2.814   8.461 -0.7209 -0.1455 -0.6044
   67SAPC  H16X 5676   1.305   2.924   8.446  1.0891  0.1795  0.5148
   67SAPC  H16Y 5677   1.419   2.783   8.473 -0.5396  0.9902  0.9892
   67SAPC  C317 5678   1.219   2.784   8.582  0.2072 -1.0234 -0.2331
   67SAPC  H17X 5679   1.241   2.676   8.601 -1.4571 -1.7785 -2.2276
   67SAPC  H17Y 5680   1.111   2.782   8.555  0.0098 -1.3721  0.5454
   67SAPC  C318 5681   1.245   2.877   8.702  0.1090 -0.1452 -0.2611
   67SAPC  H18X 5682   1.163   2.849   8.771  0.7196 -1.1520  0.0859
   67SAPC  H18Y 5683   1.261   2.984   8.678  1.7114 -0.1804  0.5285
   67SAPC  H18Z 5684   1.343   2.843   8.743  0.3398  1.5639  0.6945
   68SAPC     N 5685   5.854   0.924   6.025 -0.8607 -0.0790 -0.6342
   68SAPC   C12 5686   5.902   0.980   6.157 -0.7071 -0.4993 -0.4023
   68SAPC  H12A 5687   5.843   0.932   6.234 -1.7917 -1.6037 -1.8628
   68SAPC  H12B 5688   5.864   1.080   6.173  1.1335  0.5439 -2.0091
   68SAPC   C13 5689   5.890   0.781   6.011 -0.2764 -0.1652  0.4217
   68SAPC  H13A 5690   5.996   0.761   6.020 -0.3730 -0.7399  0.2772
   68SAPC  H13B 5691   5.830   0.730   6.084  0.7686  0.2470  1.6140
   68SAPC  H13C 5692   5.860   0.741   5.916 -2.9347  1.4270  0.4969
   68SAPC   C14 5693   5.706   0.936   6.015  0.3458  0.4055 -1.0185
   68SAPC  H14A 5694   5.672   1.038   6.018  0.9485  0.5834 -0.2488
   68SAPC  H14B 5695   5.674   0.902   5.917  3.0126  0.6737 -2.0515
   68SAPC  H14C 5696   5.658   0.877   6.092  1.9239  0.9533  0.4415
   68SAPC   C15 5697   5.905   0.992   5.906 -0.4537  0.2439 -0.4031
   68SAPC  H15A 5698   6.012   0.984   5.918 -0.6624 -0.7132  1.0032
   68SAPC  H15B 5699   5.880   0.942   5.814 -0.3481  1.5415 -1.1640
   68SAPC  H15C 5700   5.879   1.097   5.903 -1.5442 -0.0300 -0.7881
   68SAPC   C11 5701   6.049   0.971   6.190 -0.8080 -0.8300 -0.0969
   68SAPC  H11A 5702   6.088   0.867   6.197  2.0571 -0.0365 -2.0956
   68SAPC  H11B 5703   6.063   1.012   6.292  1.8365 -3.8813  0.9201
   68SAPC     P 5704   6.200   1.178   6.110  0.1972 -0.5338 -0.5679
   68SAPC   O13 5705   6.305   1.188   6.011 -0.3185 -0.4411  0.1495
   68SAPC   O14 5706   6.097   1.283   6.108 -0.4372 -0.0463  0.2567
   68SAPC   O12 5707   6.127   1.037   6.088  0.4111  0.7280  0.2885
   68SAPC   O11 5708   6.247   1.169   6.255  0.4177  0.2191 -0.4328
   68SAPC    C1 5709   6.396   1.164   6.272 -0.3943  0.0945  0.3746
   68SAPC    HA 5710   6.443   1.068   6.241  0.9175  0.6056  0.7052
   68SAPC    HB 5711   6.452   1.245   6.221  1.0875 -0.6931  0.6936
   68SAPC    C2 5712   6.440   1.182   6.416 -0.2816  0.1907 -0.0797
   68SAPC    HS 5713   6.412   1.095   6.478 -1.3950  0.1350 -0.6390
   68SAPC   O21 5714   6.379   1.301   6.462  0.7048 -0.1027  0.3804
   68SAPC   C21 5715   6.251   1.288   6.506  0.1151  0.0871  0.2870
   68SAPC   O22 5716   6.194   1.184   6.530  0.0181 -0.0371 -0.1020
   68SAPC   C22 5717   6.199   1.432   6.540  0.5444 -0.2675  0.0138
   68SAPC   H2R 5718   6.289   1.496   6.551  1.3433 -1.3166 -0.2606
   68SAPC   H2S 5719   6.136   1.473   6.457  1.5766 -2.8716 -2.2162
   68SAPC    C3 5720   6.595   1.202   6.432 -0.1670  0.0492 -0.2869
   68SAPC    HX 5721   6.625   1.287   6.368 -1.2372  1.1003  0.5498
   68SAPC    HY 5722   6.639   1.107   6.399  1.3936 -0.0321  1.8100
   68SAPC   O31 5723   6.631   1.216   6.571  0.4432 -0.1678 -0.3481
   68SAPC   C31 5724   6.612   1.338   6.624 -0.5542  1.0841 -0.0942
   68SAPC   O32 5725   6.589   1.438   6.567 -0.4087  0.1490  0.6024
   68SAPC   C32 5726   6.646   1.330   6.777  0.2467 -0.2055  0.5760
   68SAPC   H2X 5727   6.545   1.324   6.823  0.6765  1.5036  1.8474
   68SAPC   H2Y 5728   6.697   1.425   6.802  1.1628 -0.7556  0.8294
   68SAPC   C23 5729   6.127   1.439   6.677  0.4126 -0.5584 -0.2200
   68SAPC   H3R 5730   6.028   1.388   6.675 -0.7633  1.5380  0.6197
   68SAPC   H3S 5731   6.091   1.543   6.692 -0.9269 -1.2893  2.1923
   68SAPC   C24 5732   6.217   1.407   6.798  0.4663 -0.3073 -0.0507
   68SAPC   H4R 5733   6.174   1.470   6.879 -0.2220 -0.7893 -0.0265
   68SAPC   H4S 5734   6.313   1.455   6.772  1.0372 -0.9047  0.8639
   68SAPC   C25 5735   6.244   1.264   6.837 -0.8787  0.0728  0.4651
   68SAPC   H5R 5736   6.241   1.186   6.760 -0.8148  3.2134 -3.0226
   68SAPC   C26 5737   6.269   1.229   6.963  0.0576 -0.5270 -0.4773
   68SAPC   H6R 5738   6.286   1.123   6.989 -1.0175 -0.3001  1.2646
   68SAPC   C27 5739   6.257   1.324   7.081 -0.1018 -0.8522  0.1448
   68SAPC   H7R 5740   6.147   1.334   7.093 -0.2054  0.8939 -1.7804
   68SAPC   H7S 5741   6.306   1.423   7.071 -0.6541 -0.3621  1.8220
   68SAPC   C28 5742   6.326   1.268   7.203  0.1661  0.5915  0.5905
   68SAPC   H8R 5743   6.419   1.213   7.183 -0.8290 -1.0528  0.3198
   68SAPC   C29 5744   6.298   1.292   7.331  0.1275 -0.4034  0.2266
   68SAPC   H9R 5745   6.364   1.250   7.409  0.8675  1.1504  0.5041
   68SAPC  C210 5746   6.179   1.377   7.371  0.1878 -0.6849 -0.4029
   68SAPC  H10R 5747   6.100   1.317   7.423 -0.4657  0.3072 -0.2189
   68SAPC  H10S 5748   6.116   1.408   7.285  0.2784 -0.1315 -0.2722
   68SAPC  C211 5749   6.218   1.505   7.440  0.8288 -0.4616 -0.4547
   68SAPC  H11R 5750   6.275   1.575   7.377  0.5579  0.5739  0.4052
   68SAPC  C212 5751   6.181   1.543   7.560  0.3265 -0.2873  0.1197
   68SAPC  H12R 5752   6.226   1.641   7.584 -0.6028  1.1090 -3.2407
   68SAPC  C213 5753   6.118   1.457   7.664  0.0318 -0.5231  0.4443
   68SAPC  H13R 5754   6.059   1.371   7.626 -2.9353  0.8741  1.5714
   68SAPC  H13S 5755   6.050   1.524   7.721  0.1813  0.7242 -0.8043
   68SAPC  C214 5756   6.225   1.392   7.749 -0.0012 -0.2813  0.3582
   68SAPC  H14R 5757   6.320   1.374   7.697 -0.6104  1.6710 -1.5419
   68SAPC  C215 5758   6.210   1.355   7.878  0.1603 -0.4156 -0.1248
   68SAPC  H15R 5759   6.301   1.312   7.923 -0.2571 -1.1381  0.0482
   68SAPC  C216 5760   6.090   1.372   7.964 -0.1229 -0.6118 -0.2968
   68SAPC  H16R 5761   6.076   1.284   8.029  0.8698 -0.7004 -0.1901
   68SAPC  H16S 5762   5.996   1.392   7.908 -0.6404  1.9156  1.2937
   68SAPC  C217 5763   6.103   1.493   8.059  0.0711 -0.0589 -0.0121
   68SAPC  H17R 5764   6.020   1.480   8.130  0.1529  1.7841  0.4931
   68SAPC  H17S 5765   6.098   1.588   8.001 -1.3917  0.4260  0.8693
   68SAPC  C218 5766   6.231   1.501   8.143 -0.1692  0.9438 -1.0145
   68SAPC  H18R 5767   6.327   1.492   8.088  0.2900  1.6111 -0.3507
   68SAPC  H18S 5768   6.239   1.419   8.217  0.1211  2.0957  0.2872
   68SAPC  C219 5769   6.228   1.630   8.226  0.2516  0.0097  0.0005
   68SAPC  H19R 5770   6.227   1.711   8.150  0.7784 -0.1701 -0.2007
   68SAPC  H19S 5771   6.325   1.632   8.280  1.2491 -2.9747 -1.4554
   68SAPC  C220 5772   6.108   1.647   8.318 -0.9374  0.7783 -0.1501
   68SAPC  H20R 5773   6.089   1.552   8.371  1.0130  0.1826 -0.4678
   68SAPC  H20S 5774   6.021   1.674   8.254  0.0038  0.7048 -1.4968
   68SAPC  H20T 5775   6.123   1.732   8.389 -0.0904  1.9761 -1.7015
   68SAPC   C33 5776   6.735   1.208   6.816  0.0581 -0.0513 -0.1291
   68SAPC   H3X 5777   6.843   1.218   6.793 -0.0627  0.8802 -0.3647
   68SAPC   H3Y 5778   6.693   1.117   6.768  1.1382  0.4572 -2.1426
   68SAPC   C34 5779   6.709   1.183   6.965 -1.0037  0.3500 -0.2651
   68SAPC   H4X 5780   6.749   1.083   6.989 -0.2323  0.4989 -0.8857
   68SAPC   H4Y 5781   6.599   1.187   6.980 -0.9096 -1.7778  1.4183
   68SAPC   C35 5782   6.783   1.281   7.056 -0.1184  0.4730  0.1384
   68SAPC   H5X 5783   6.761   1.386   7.027  0.3093  0.5430  0.0544
   68SAPC   H5Y 5784   6.893   1.266   7.045 -0.4206 -1.2806 -0.8511
   68SAPC   C36 5785   6.730   1.271   7.201 -0.4460 -0.3122  0.1857
   68SAPC   H6X 5786   6.622   1.291   7.186 -0.1072 -0.6167 -3.9957
   68SAPC   H6Y 5787   6.783   1.351   7.257  0.3019 -0.9755  0.4460
   68SAPC   C37 5788   6.757   1.139   7.269 -0.0558 -0.1680 -0.0276
   68SAPC   H7X 5789   6.865   1.116   7.266 -0.2477 -1.0808 -0.3737
   68SAPC   H7Y 5790   6.711   1.062   7.203 -1.5236  0.7899 -0.1719
   68SAPC   C38 5791   6.677   1.113   7.400  0.0322 -0.4416 -0.5433
   68SAPC   H8X 5792   6.672   1.004   7.422  0.0163  0.2720  3.7656
   68SAPC   H8Y 5793   6.571   1.140   7.383 -0.2119 -1.6247 -1.0084
   68SAPC   C39 5794   6.732   1.192   7.516 -0.0644 -0.1873 -0.3995
   68SAPC   H9X 5795   6.674   1.286   7.533  1.2441  0.8249 -1.3259
   68SAPC   H9Y 5796   6.839   1.219   7.511  0.2162 -0.8122  1.3543
   68SAPC  C310 5797   6.717   1.115   7.643  0.2247 -0.3911  0.2949
   68SAPC  H10X 5798   6.777   1.023   7.656  0.9549  0.2241  1.5098
   68SAPC  H10Y 5799   6.616   1.068   7.650  0.8771 -1.9386 -0.2802
   68SAPC  C311 5800   6.753   1.211   7.765  0.4325  0.9497  0.4839
   68SAPC  H11X 5801   6.701   1.308   7.753  0.7131  0.9424 -0.9155
   68SAPC  H11Y 5802   6.860   1.239   7.751  0.1919  0.8431 -1.9495
   68SAPC  C312 5803   6.728   1.145   7.905  0.5001 -0.3188 -0.2027
   68SAPC  H12X 5804   6.776   1.045   7.907 -0.3571 -0.7185  0.5455
   68SAPC  H12Y 5805   6.620   1.124   7.914  0.6507 -2.4226 -2.3569
   68SAPC  C313 5806   6.798   1.225   8.024 -0.5594  0.5664  0.3255
   68SAPC  H13X 5807   6.760   1.328   8.042 -1.6485  0.6662 -2.1654
   68SAPC  H13Y 5808   6.905   1.230   7.995 -1.5476  0.2004 -4.0737
   68SAPC  C314 5809   6.782   1.150   8.162 -0.5638 -0.1239  0.1986
   68SAPC  H14X 5810   6.814   1.046   8.141 -0.5678  0.0454 -0.6826
   68SAPC  H14Y 5811   6.674   1.150   8.189 -1.6322  1.0221 -3.5097
   68SAPC  C315 5812   6.865   1.209   8.278 -0.6181 -0.4521  0.5145
   68SAPC  H15X 5813   6.809   1.302   8.301 -2.7786 -1.1624 -1.4732
   68SAPC  H15Y 5814   6.965   1.230   8.233 -1.5766  2.2829 -0.5541
   68SAPC  C316 5815   6.873   1.119   8.400 -0.5136  0.3303 -0.3851
   68SAPC  H16X 5816   6.960   1.053   8.380 -0.8287 -0.6383  1.2654
   68SAPC  H16Y 5817   6.782   1.056   8.412 -0.4017  0.4013  0.9601
   68SAPC  C317 5818   6.897   1.183   8.540  0.0638  0.4727 -0.0867
   68SAPC  H17X 5819   6.920   1.101   8.612 -2.0191 -0.1210 -0.0420
   68SAPC  H17Y 5820   6.804   1.230   8.579 -0.4695 -1.2469  0.8205
   68SAPC  C318 5821   7.004   1.289   8.548  0.3915  0.3310 -0.0985
   68SAPC  H18X 5822   6.984   1.368   8.473  0.0579 -0.5194 -0.9208
   68SAPC  H18Y 5823   7.106   1.245   8.537  0.6506  0.1258  2.5517
   68SAPC  H18Z 5824   7.017   1.334   8.649 -0.6015  1.5618 -0.4957
   69SLPC     N 5825   3.681   1.750  11.294  0.0775 -0.6248  0.0087
   69SLPC   C13 5826   3.651   1.604  11.318  0.1729 -1.3348  0.5855
   69SLPC  H13A 5827   3.552   1.567  11.298  0.5371 -2.2324  0.3932
   69SLPC  H13B 5828   3.722   1.543  11.263 -0.7352 -0.0990 -2.1207
   69SLPC  H13C 5829   3.665   1.590  11.424  1.5786 -1.4895  0.3985
   69SLPC   C14 5830   3.798   1.798  11.369  0.1004 -0.3575  0.5017
   69SLPC  H14A 5831   3.883   1.757  11.318  0.2072 -1.2049  1.3296
   69SLPC  H14B 5832   3.812   1.905  11.367 -1.0544 -0.1716  1.0776
   69SLPC  H14C 5833   3.804   1.751  11.466  1.8014 -3.1770 -0.8462
   69SLPC   C15 5834   3.570   1.834  11.346  0.3132 -0.5760  0.2230
   69SLPC  H15A 5835   3.477   1.816  11.295 -0.3269  0.0607  1.1419
   69SLPC  H15B 5836   3.565   1.821  11.453 -0.2015 -2.7752 -0.0034
   69SLPC  H15C 5837   3.588   1.938  11.325 -0.5154 -0.9992 -3.1924
   69SLPC   C12 5838   3.705   1.795  11.151  0.2573  0.1694  0.4373
   69SLPC  H12A 5839   3.753   1.892  11.150  0.5753  0.0181  0.6896
   69SLPC  H12B 5840   3.610   1.794  11.100  0.7493  2.2563 -0.6211
   69SLPC   C11 5841   3.796   1.712  11.062 -0.0135  0.0024  0.2189
   69SLPC  H11A 5842   3.767   1.739  10.958 -0.8751 -3.5239 -0.5834
   69SLPC  H11B 5843   3.772   1.603  11.059  2.1089 -0.4777 -0.8035
   69SLPC     P 5844   4.012   1.852  11.064  0.2040 -0.3047 -0.2709
   69SLPC   O13 5845   3.967   1.949  11.168  0.5494 -0.5785 -0.0739
   69SLPC   O14 5846   4.156   1.828  11.063 -0.3284  0.6346 -0.0880
   69SLPC   O12 5847   3.936   1.721  11.089 -0.0016  0.0254  0.0904
   69SLPC   O11 5848   3.970   1.899  10.921  0.0219  0.0352  0.2592
   69SLPC    C1 5849   4.009   1.819  10.811  0.3457 -0.3158  0.6877
   69SLPC    HA 5850   4.119   1.830  10.804  0.0790  1.8362 -1.5558
   69SLPC    HB 5851   3.973   1.714  10.815  1.1799 -0.7023 -0.8928
   69SLPC    C2 5852   3.942   1.869  10.679 -0.6521 -0.1763 -0.0777
   69SLPC    HS 5853   3.960   1.797  10.597 -1.9859  0.0897 -0.6345
   69SLPC   O21 5854   4.001   1.999  10.655  0.2759 -0.2065  0.4698
   69SLPC   C21 5855   4.112   1.987  10.575 -0.8039 -0.1026  0.1995
   69SLPC   O22 5856   4.173   1.888  10.544 -0.6492 -0.3602 -0.3256
   69SLPC   C22 5857   4.133   2.137  10.527 -0.6491  0.7332  0.4039
   69SLPC   H2R 5858   4.033   2.178  10.503 -0.8039  0.0399 -0.1276
   69SLPC   H2S 5859   4.178   2.201  10.606  0.5670  0.1936  0.1719
   69SLPC    C3 5860   3.786   1.891  10.705  0.8049 -0.2187 -0.3973
   69SLPC    HX 5861   3.762   1.978  10.770  0.3290 -1.0255  0.5290
   69SLPC    HY 5862   3.754   1.793  10.747  0.4844 -1.2050 -2.7817
   69SLPC   O31 5863   3.714   1.910  10.581 -0.2753 -0.1510 -0.1968
   69SLPC   C31 5864   3.698   1.807  10.499  0.3026 -0.4906  0.3606
   69SLPC   O32 5865   3.732   1.691  10.519  0.4843 -0.3587 -0.5363
   69SLPC   C32 5866   3.635   1.862  10.373  0.3976 -0.3693  0.6438
   69SLPC   H2X 5867   3.716   1.904  10.310 -0.3689 -1.4887 -1.1965
   69SLPC   H2Y 5868   3.570   1.942  10.413  0.4925  0.0695 -0.0607
   69SLPC   C23 5869   4.235   2.149  10.412 -0.3632  0.3113  0.5736
   69SLPC   H3R 5870   4.308   2.065  10.420 -0.5320  0.3102  2.6234
   69SLPC   H3S 5871   4.273   2.252  10.432 -2.2788  1.1947 -0.1303
   69SLPC   C24 5872   4.172   2.131  10.268  0.7755 -0.0071 -0.6211
   69SLPC   H4R 5873   4.077   2.187  10.257  0.6459 -0.2733 -0.8843
   69SLPC   H4S 5874   4.132   2.028  10.257 -0.9337  0.6700 -1.0456
   69SLPC   C25 5875   4.265   2.153  10.153  0.0891  0.1631 -0.5320
   69SLPC   H5R 5876   4.345   2.076  10.162 -1.6701 -1.6936  0.0657
   69SLPC   H5S 5877   4.307   2.255  10.165 -2.3658  1.0863  0.7619
   69SLPC   C26 5878   4.209   2.122  10.012  0.1207 -0.3972  0.1326
   69SLPC   H6R 5879   4.144   2.032  10.009  0.1009 -0.5343  2.7935
   69SLPC   H6S 5880   4.290   2.110   9.937  0.1565 -0.2806  0.1517
   69SLPC   C27 5881   4.108   2.233   9.969  0.0570  0.7126  0.0741
   69SLPC   H7R 5882   4.154   2.331   9.948  0.4837  0.6553  0.7131
   69SLPC   H7S 5883   4.027   2.244  10.044 -0.8337 -0.6307 -0.6496
   69SLPC   C28 5884   4.038   2.187   9.836  1.0580  0.2658  0.3367
   69SLPC   H8R 5885   3.981   2.093   9.850  2.3994 -0.9183 -1.7002
   69SLPC   H8S 5886   4.123   2.154   9.772 -1.2746 -1.4708 -2.0735
   69SLPC   C29 5887   3.945   2.298   9.788 -0.3133  0.1475  0.1796
   69SLPC   H9R 5888   3.886   2.351   9.864 -1.8172  0.6371 -1.2663
   69SLPC  C210 5889   3.915   2.329   9.660 -0.3089 -0.1393 -0.1089
   69SLPC  H10R 5890   3.840   2.406   9.635  0.6539  0.2918 -1.8165
   69SLPC  C211 5891   3.966   2.259   9.536  0.1467 -0.0656 -0.6763
   69SLPC  H11R 5892   3.874   2.221   9.485 -1.4382  0.1547  1.8382
   69SLPC  H11S 5893   4.015   2.162   9.562 -2.7831 -1.6556 -0.5835
   69SLPC  C212 5894   4.043   2.351   9.442  0.0189  0.1360  0.6897
   69SLPC  H12R 5895   4.097   2.431   9.495 -2.0757  2.3619 -0.2830
   69SLPC  C213 5896   4.047   2.343   9.307  0.4890 -0.0593 -0.1939
   69SLPC  H13R 5897   4.105   2.423   9.257 -0.9353  0.5434 -0.9518
   69SLPC  C214 5898   3.978   2.245   9.218 -0.5751  0.0468  0.8772
   69SLPC  H14R 5899   3.882   2.287   9.182 -0.7716 -1.6149 -0.6749
   69SLPC  H14S 5900   3.957   2.148   9.266 -1.0462 -0.5839 -0.5509
   69SLPC  C215 5901   4.066   2.229   9.099 -0.2401 -0.1283 -0.1392
   69SLPC  H15R 5902   4.164   2.185   9.125 -1.4004 -2.5956  0.3556
   69SLPC  H15S 5903   4.074   2.327   9.046 -0.7096  0.2225  0.4167
   69SLPC  C216 5904   4.007   2.130   8.995 -0.2296 -0.8132 -0.2932
   69SLPC  H16R 5905   3.912   2.171   8.954 -0.8080 -1.3232  0.5064
   69SLPC  H16S 5906   3.971   2.034   9.038 -0.7028  0.0052  1.2330
   69SLPC  C217 5907   4.100   2.111   8.875 -0.0993  0.3915 -0.6505
   69SLPC  H17R 5908   4.189   2.048   8.897 -0.0279 -0.4936 -3.1444
   69SLPC  H17S 5909   4.147   2.209   8.850  0.1076  0.4836  0.0721
   69SLPC  C218 5910   4.038   2.057   8.745  0.1390 -0.7467 -0.7248
   69SLPC  H18R 5911   4.124   2.023   8.683 -0.2507  0.3854 -1.9214
   69SLPC  H18S 5912   3.984   2.137   8.691 -1.2811 -0.4163  1.0718
   69SLPC  H18T 5913   3.970   1.974   8.775 -1.8698  1.1466  0.2350
   69SLPC   C33 5914   3.558   1.751  10.309 -0.8022 -0.3517 -0.4427
   69SLPC   H3X 5915   3.466   1.741  10.371  0.4054 -1.6439  1.2241
   69SLPC   H3Y 5916   3.597   1.648  10.324 -1.7692 -0.3239  3.0520
   69SLPC   C34 5917   3.522   1.782  10.164  0.1477  0.1900 -1.0049
   69SLPC   H4X 5918   3.615   1.760  10.106  1.8700  0.6869  1.4093
   69SLPC   H4Y 5919   3.497   1.889  10.155  1.1901  0.5914  0.5015
   69SLPC   C35 5920   3.406   1.697  10.111  0.3133 -1.1587 -0.1068
   69SLPC   H5X 5921   3.316   1.723  10.170  0.8549  0.1894  0.1647
   69SLPC   H5Y 5922   3.441   1.592  10.119 -0.3417 -1.2876  1.2514
   69SLPC   C36 5923   3.388   1.733   9.962  0.1914  0.7156  0.6237
   69SLPC   H6X 5924   3.487   1.737   9.911 -0.5266  2.5325 -0.7284
   69SLPC   H6Y 5925   3.334   1.827   9.937 -3.1365 -1.4215 -1.0464
   69SLPC   C37 5926   3.322   1.616   9.886  0.6284  0.4090 -0.2851
   69SLPC   H7X 5927   3.215   1.619   9.916  0.1921 -1.5606 -1.4652
   69SLPC   H7Y 5928   3.367   1.518   9.915  0.9795  1.1159  1.7993
   69SLPC   C38 5929   3.315   1.624   9.733  0.3932  0.3748 -0.6285
   69SLPC   H8X 5930   3.420   1.642   9.701 -0.0002 -1.0047 -2.9354
   69SLPC   H8Y 5931   3.245   1.704   9.700 -0.9779 -0.2615  0.5850
   69SLPC   C39 5932   3.281   1.480   9.675  0.6309  0.9254 -0.2684
   69SLPC   H9X 5933   3.180   1.454   9.714 -0.6003  4.0984 -1.0162
   69SLPC   H9Y 5934   3.345   1.409   9.732 -1.6861 -0.6912  0.4664
   69SLPC  C310 5935   3.303   1.465   9.531  0.4088  0.5609  0.5180
   69SLPC  H10X 5936   3.251   1.547   9.477  1.1255 -1.0116 -2.8143
   69SLPC  H10Y 5937   3.257   1.367   9.506 -1.8402  1.4183  1.1016
   69SLPC  C311 5938   3.450   1.473   9.481  0.2661 -0.0059  0.4130
   69SLPC  H11X 5939   3.500   1.385   9.527 -1.0909 -2.0012 -1.6913
   69SLPC  H11Y 5940   3.497   1.567   9.518 -0.4472  0.4657  0.1495
   69SLPC  C312 5941   3.459   1.452   9.326  0.3498  0.4373 -0.2753
   69SLPC  H12X 5942   3.426   1.349   9.303  1.0822 -0.0393  0.7332
   69SLPC  H12Y 5943   3.568   1.460   9.305  0.8364 -0.8470  1.4533
   69SLPC  C313 5944   3.378   1.544   9.236  0.4735  0.2902  0.2392
   69SLPC  H13X 5945   3.412   1.649   9.235 -1.5817  0.9937  0.1361
   69SLPC  H13Y 5946   3.278   1.558   9.283 -0.0461  0.8499 -0.9995
   69SLPC  C314 5947   3.354   1.491   9.088  0.0471 -0.0338 -0.4824
   69SLPC  H14X 5948   3.290   1.576   9.056  0.6254  0.3877 -0.5467
   69SLPC  H14Y 5949   3.295   1.397   9.099  0.9951 -0.5250  0.5769
   69SLPC  C315 5950   3.483   1.463   9.006  0.3581  0.1705  0.1003
   69SLPC  H15X 5951   3.544   1.384   9.054 -0.5271 -0.9097 -0.5121
   69SLPC  H15Y 5952   3.536   1.559   8.989 -0.5341  0.4469 -1.2887
   69SLPC  C316 5953   3.452   1.405   8.866 -0.2995 -0.7572 -0.5826
   69SLPC  H16X 5954   3.385   1.323   8.899 -1.3410  1.5712  3.9954
   69SLPC  H16Y 5955   3.545   1.375   8.813 -0.2605  0.4062 -1.2168
   69SLPC  C317 5956   3.359   1.486   8.775 -0.5184 -0.7605  0.5612
   69SLPC  H17X 5957   3.270   1.521   8.831 -1.0179 -0.8030 -0.1898
   69SLPC  H17Y 5958   3.326   1.428   8.686  1.0169  0.6529 -1.0217
   69SLPC  C318 5959   3.426   1.620   8.722  0.3650  1.2060  1.0828
   69SLPC  H18X 5960   3.366   1.680   8.650 -0.1765 -1.8033 -1.1846
   69SLPC  H18Y 5961   3.517   1.597   8.663 -1.1243  0.0634 -0.9119
   69SLPC  H18Z 5962   3.452   1.690   8.804  2.4570  0.8315  0.7865
   70SLPC     N 5963   4.964   3.181  10.581 -0.5303 -0.3295 -0.0259
   70SLPC   C13 5964   4.836   3.111  10.573  0.3754 -0.0575  0.2056
   70SLPC  H13A 5965   4.856   3.008  10.547 -0.4947 -0.1152 -0.2536
   70SLPC  H13B 5966   4.782   3.112  10.667  1.2218 -2.5309  0.8062
   70SLPC  H13C 5967   4.778   3.152  10.492 -0.4153 -0.1788  0.7014
   70SLPC   C14 5968   5.042   3.177  10.456 -0.0423 -0.2216  0.1782
   70SLPC  H14A 5969   5.107   3.091  10.451  0.7459  0.3155  1.0435
   70SLPC  H14B 5970   4.988   3.197  10.364  3.7688  1.8934 -1.8803
   70SLPC  H14C 5971   5.109   3.262  10.464  0.8841 -1.0938  2.2655
   70SLPC   C15 5972   5.065   3.124  10.690  0.1040  0.4730  0.6158
   70SLPC  H15A 5973   5.149   3.191  10.703  1.8509 -1.9821  3.3262
   70SLPC  H15B 5974   5.017   3.121  10.786  0.6666  1.7185  0.9668
   70SLPC  H15C 5975   5.096   3.024  10.663  0.3317  0.7145 -0.0506
   70SLPC   C12 5976   4.946   3.325  10.617  0.8796 -0.0887  0.2776
   70SLPC  H12A 5977   4.880   3.370  10.544 -1.2256  0.6234  2.4712
   70SLPC  H12B 5978   5.039   3.377  10.603  0.9403 -0.6471 -1.6742
   70SLPC   C11 5979   4.871   3.356  10.758 -0.0024  0.2222  0.1993
   70SLPC  H11A 5980   4.878   3.464  10.782  0.4799  0.7545 -2.1078
   70SLPC  H11B 5981   4.925   3.299  10.837  0.8401  0.0952 -0.4501
   70SLPC     P 5982   4.621   3.392  10.673 -0.2367  0.1430  0.1590
   70SLPC   O13 5983   4.580   3.296  10.570 -0.8248 -0.3966 -0.4206
   70SLPC   O14 5984   4.514   3.439  10.764 -0.1933  0.2071  0.0765
   70SLPC   O12 5985   4.731   3.320  10.755 -0.2456 -0.1282 -0.3324
   70SLPC   O11 5986   4.704   3.513  10.605  0.1858  0.4512  0.1426
   70SLPC    C1 5987   4.686   3.639  10.669  0.5476 -0.5609  0.3437
   70SLPC    HA 5988   4.578   3.664  10.663 -0.0764 -2.3393  2.7025
   70SLPC    HB 5989   4.718   3.631  10.775 -0.3579 -0.1657  0.6523
   70SLPC    C2 5990   4.771   3.756  10.602 -0.1810  0.4143  0.2543
   70SLPC    HS 5991   4.731   3.857  10.624  1.0862  1.3513 -1.5136
   70SLPC   O21 5992   4.779   3.744  10.461  0.0832  1.0335 -0.3741
   70SLPC   C21 5993   4.666   3.754  10.390 -0.4777  0.2456 -0.5371
   70SLPC   O22 5994   4.558   3.779  10.438  0.6469  0.0360  0.1613
   70SLPC   C22 5995   4.708   3.718  10.248  0.2738 -0.6138 -0.2054
   70SLPC   H2R 5996   4.797   3.779  10.223  0.2515  0.1728  1.4955
   70SLPC   H2S 5997   4.744   3.613  10.258  0.6129 -0.3931  1.0677
   70SLPC    C3 5998   4.910   3.754  10.669 -0.3499  0.3070  0.2217
   70SLPC    HX 5999   4.946   3.649  10.668  0.7299  0.6605  0.5510
   70SLPC    HY 6000   4.900   3.793  10.773  2.3988  2.0313 -0.0631
   70SLPC   O31 6001   5.006   3.834  10.593  0.5749  0.2480  0.4383
   70SLPC   C31 6002   5.004   3.965  10.603 -0.1459 -0.1211  0.0468
   70SLPC   O32 6003   4.932   4.037  10.677  0.2231 -0.2551 -0.2240
   70SLPC   C32 6004   5.089   4.021  10.490 -0.1363  0.1689  0.0234
   70SLPC   H2X 6005   5.080   3.954  10.401  1.0031  1.3131 -0.9787
   70SLPC   H2Y 6006   5.193   4.017  10.527  0.2755  0.6582 -1.0512
   70SLPC   C23 6007   4.598   3.746  10.148 -0.4512  0.3968  0.4920
   70SLPC   H3R 6008   4.567   3.852  10.157 -1.8426  0.2647 -1.8051
   70SLPC   H3S 6009   4.504   3.687  10.158  0.8272 -1.8673 -0.1111
   70SLPC   C24 6010   4.641   3.726   9.993 -0.6529  0.5947 -0.4898
   70SLPC   H4R 6011   4.696   3.821   9.975 -0.6407  0.9728  1.3475
   70SLPC   H4S 6012   4.548   3.732   9.932  0.1259  1.0698 -1.6683
   70SLPC   C25 6013   4.718   3.603   9.967 -0.0272 -1.2165  0.1682
   70SLPC   H5R 6014   4.658   3.511   9.989 -0.5806 -1.2432 -1.3493
   70SLPC   H5S 6015   4.808   3.609  10.032  0.9902 -0.0349 -1.2830
   70SLPC   C26 6016   4.788   3.609   9.829  0.1520  0.0561 -0.0409
   70SLPC   H6R 6017   4.840   3.708   9.832 -0.0564  0.1499  1.6137
   70SLPC   H6S 6018   4.710   3.590   9.753  0.1570 -0.4227  0.0700
   70SLPC   C27 6019   4.887   3.493   9.813  0.3878  0.0368  0.3437
   70SLPC   H7R 6020   4.828   3.399   9.821  0.5522  0.1019  5.3958
   70SLPC   H7S 6021   4.954   3.481   9.901 -0.0114  2.1331  0.9854
   70SLPC   C28 6022   4.970   3.504   9.681  0.9275  0.2664  0.1609
   70SLPC   H8R 6023   5.048   3.426   9.667  1.5510  0.9643 -0.3738
   70SLPC   H8S 6024   5.030   3.597   9.685 -0.1073  0.9164  1.6911
   70SLPC   C29 6025   4.896   3.501   9.549  0.5796  0.0166  0.7026
   70SLPC   H9R 6026   4.788   3.523   9.550  0.4291 -0.2424 -1.9791
   70SLPC  C210 6027   4.949   3.486   9.425  0.1983  0.1499 -0.6863
   70SLPC  H10R 6028   4.878   3.495   9.342 -0.4331  0.3449 -0.1326
   70SLPC  C211 6029   5.097   3.467   9.394 -0.3936 -0.6097  0.0964
   70SLPC  H11R 6030   5.119   3.415   9.298 -0.2652  0.6295 -0.5760
   70SLPC  H11S 6031   5.140   3.392   9.463 -1.7757 -0.5706  1.0375
   70SLPC  C212 6032   5.176   3.600   9.388  0.2683  0.2972  0.1184
   70SLPC  H12R 6033   5.193   3.640   9.489 -1.1530 -0.3533  0.6470
   70SLPC  C213 6034   5.207   3.674   9.281 -0.3153 -0.4353  0.6683
   70SLPC  H13R 6035   5.262   3.767   9.302 -2.9912  1.3632  0.2480
   70SLPC  C214 6036   5.173   3.652   9.137 -0.1087 -0.0476 -0.2421
   70SLPC  H14R 6037   5.121   3.555   9.123 -1.3208  0.0856  2.6400
   70SLPC  H14S 6038   5.269   3.637   9.082 -0.2709 -2.6036  0.0379
   70SLPC  C215 6039   5.103   3.770   9.068  0.1623 -0.8331 -0.2037
   70SLPC  H15R 6040   5.077   3.735   8.966  2.6229 -1.7363 -0.5820
   70SLPC  H15S 6041   5.154   3.868   9.076 -2.1724  0.4888 -0.7222
   70SLPC  C216 6042   4.962   3.801   9.129  0.1135 -1.2827 -0.2987
   70SLPC  H16R 6043   4.974   3.810   9.239 -1.1626  1.8039 -0.3245
   70SLPC  H16S 6044   4.903   3.707   9.125 -2.2783  0.1414 -0.4698
   70SLPC  C217 6045   4.884   3.917   9.062  0.3845  0.1445 -0.1193
   70SLPC  H17R 6046   4.777   3.921   9.090  0.5630 -0.9341  0.7800
   70SLPC  H17S 6047   4.880   3.890   8.954 -0.5674  0.3162 -0.1297
   70SLPC  C218 6048   4.958   4.049   9.070 -0.2801  0.0146 -0.0002
   70SLPC  H18R 6049   5.068   4.047   9.055 -0.2792 -1.4053  0.0709
   70SLPC  H18S 6050   4.936   4.102   9.165 -0.5378 -0.6790  0.3328
   70SLPC  H18T 6051   4.916   4.115   8.991 -2.6641 -0.8046  0.5104
   70SLPC   C33 6052   5.054   4.164  10.463  0.3682 -0.0695 -0.1694
   70SLPC   H3X 6053   5.151   4.215  10.449  0.7936 -0.8599 -0.1414
   70SLPC   H3Y 6054   5.013   4.219  10.551  2.5969 -0.4185  1.1558
   70SLPC   C34 6055   4.957   4.187  10.340 -0.1183  0.1442 -0.4450
   70SLPC   H4X 6056   4.855   4.151  10.368 -0.5605  1.9547  0.4188
   70SLPC   H4Y 6057   4.984   4.121  10.256 -0.5891  0.5894 -0.9528
   70SLPC   C35 6058   4.964   4.331  10.288 -0.5412  0.3845  0.0796
   70SLPC   H5X 6059   5.064   4.353  10.244 -0.6960 -0.3907 -0.6801
   70SLPC   H5Y 6060   4.943   4.406  10.367  1.0433  0.4608  0.4539
   70SLPC   C36 6061   4.871   4.372  10.173 -0.2262 -0.2996 -0.3278
   70SLPC   H6X 6062   4.792   4.447  10.197  0.6873  0.9782 -1.1566
   70SLPC   H6Y 6063   4.822   4.280  10.138 -1.8225  0.7842 -1.0250
   70SLPC   C37 6064   4.940   4.416  10.048 -0.2654 -0.5874  0.0656
   70SLPC   H7X 6065   5.037   4.365  10.033 -0.3578 -0.5271 -0.8439
   70SLPC   H7Y 6066   4.969   4.523  10.049  0.1444 -0.5988 -2.5810
   70SLPC   C38 6067   4.856   4.394   9.925  0.0572 -0.3635 -0.1975
   70SLPC   H8X 6068   4.759   4.448   9.915  0.7793  0.6221 -2.3526
   70SLPC   H8Y 6069   4.826   4.287   9.917 -1.0452 -0.0252 -0.9775
   70SLPC   C39 6070   4.927   4.422   9.788  0.0394  0.1719 -0.2460
   70SLPC   H9X 6071   5.022   4.364   9.789  0.6348  0.9914  2.9900
   70SLPC   H9Y 6072   4.952   4.530   9.786 -1.2945  0.5903  1.7993
   70SLPC  C310 6073   4.837   4.386   9.658  0.3148  0.4641  0.2693
   70SLPC  H10X 6074   4.768   4.471   9.636 -0.2220 -0.2236 -0.8444
   70SLPC  H10Y 6075   4.783   4.297   9.697  0.7861  0.4320  0.8590
   70SLPC  C311 6076   4.921   4.352   9.531  0.5905 -0.3989  0.9837
   70SLPC  H11X 6077   4.856   4.291   9.465  1.7297 -0.2244 -0.3653
   70SLPC  H11Y 6078   5.001   4.282   9.565  1.5352 -1.5291 -3.0267
   70SLPC  C312 6079   4.969   4.470   9.442 -0.3667  0.3970  0.2057
   70SLPC  H12X 6080   5.047   4.533   9.490 -1.3395  0.9408  1.0853
   70SLPC  H12Y 6081   4.887   4.544   9.442 -0.1823  0.6356  1.8690
   70SLPC  C313 6082   5.016   4.400   9.315  0.6705  0.1544  0.2876
   70SLPC  H13X 6083   4.933   4.341   9.271 -0.1224 -0.6484  2.7009
   70SLPC  H13Y 6084   5.091   4.322   9.340 -0.5899 -0.9991  0.5846
   70SLPC  C314 6085   5.067   4.496   9.208  0.3639  0.0472 -0.0467
   70SLPC  H14X 6086   5.150   4.560   9.245  0.1457  0.2205  0.1496
   70SLPC  H14Y 6087   4.989   4.570   9.179  1.3753  1.0173 -0.3739
   70SLPC  C315 6088   5.123   4.413   9.085 -0.0328  0.5589 -0.1186
   70SLPC  H15X 6089   5.053   4.338   9.043 -0.4629  1.0765 -0.3475
   70SLPC  H15Y 6090   5.208   4.351   9.122 -0.3788  1.6374  2.7053
   70SLPC  C316 6091   5.167   4.514   8.974 -0.7724 -0.4289  0.1053
   70SLPC  H16X 6092   5.262   4.564   9.003 -0.9072 -0.2035  0.1563
   70SLPC  H16Y 6093   5.076   4.577   8.976  0.4008  1.3083  0.8988
   70SLPC  C317 6094   5.197   4.452   8.838  0.8013 -0.4413 -0.6045
   70SLPC  H17X 6095   5.260   4.363   8.855 -0.7147 -1.8275 -1.9214
   70SLPC  H17Y 6096   5.261   4.532   8.796 -0.2819  1.0457  0.4462
   70SLPC  C318 6097   5.069   4.425   8.760  0.3627 -0.6173  0.4251
   70SLPC  H18X 6098   5.002   4.510   8.736  1.3606  0.0412 -0.1187
   70SLPC  H18Y 6099   5.008   4.352   8.817  1.4550 -2.3833 -0.5896
   70SLPC  H18Z 6100   5.095   4.378   8.663  0.7921  4.1707 -2.0942
   71SLPC     N 6101   3.425   3.583  11.033 -0.0528  0.1964 -0.3213
   71SLPC   C13 6102   3.487   3.520  11.155 -0.0349  0.2008  0.6228
   71SLPC  H13A 6103   3.441   3.550  11.247  0.1947  1.8734  0.2149
   71SLPC  H13B 6104   3.494   3.412  11.151 -0.3637  0.1613  1.0316
   71SLPC  H13C 6105   3.589   3.551  11.166  0.8559 -2.2154 -0.1420
   71SLPC   C14 6106   3.452   3.730  11.037  0.5226 -0.2121 -0.9679
   71SLPC  H14A 6107   3.559   3.738  11.023  1.2179 -3.5330  1.3904
   71SLPC  H14B 6108   3.401   3.778  10.955 -1.9941 -0.4940  0.3246
   71SLPC  H14C 6109   3.423   3.773  11.132  1.3622 -0.6683 -0.4953
   71SLPC   C15 6110   3.277   3.556  11.041 -0.2512 -0.0091 -0.7820
   71SLPC  H15A 6111   3.216   3.596  10.962 -0.8043 -0.5355 -0.6272
   71SLPC  H15B 6112   3.254   3.451  11.047 -0.9076 -0.0020 -2.6573
   71SLPC  H15C 6113   3.235   3.607  11.127 -0.8023 -0.5863 -0.7037
   71SLPC   C12 6114   3.477   3.535  10.897  0.4047 -0.2433 -0.3248
   71SLPC  H12A 6115   3.453   3.608  10.821  1.6863  0.5363 -0.0090
   71SLPC  H12B 6116   3.429   3.440  10.880 -0.5303  0.2200 -0.3405
   71SLPC   C11 6117   3.633   3.504  10.876  0.1998 -0.5427  0.2928
   71SLPC  H11A 6118   3.645   3.465  10.773  0.9309 -2.2676  0.9985
   71SLPC  H11B 6119   3.668   3.417  10.935  0.8328 -0.4137  0.1188
   71SLPC     P 6120   3.762   3.723  10.801 -0.1367 -0.0182  0.3565
   71SLPC   O13 6121   3.726   3.853  10.855 -0.5114 -0.2755  0.1019
   71SLPC   O14 6122   3.905   3.696  10.770 -0.2401 -0.0177  0.3545
   71SLPC   O12 6123   3.710   3.616  10.898  0.4666 -0.3792 -0.0869
   71SLPC   O11 6124   3.677   3.708  10.668 -0.2500  0.3155  0.0830
   71SLPC    C1 6125   3.705   3.624  10.554 -0.3475  0.0294 -0.8679
   71SLPC    HA 6126   3.804   3.576  10.568 -0.9159 -0.7917  0.6165
   71SLPC    HB 6127   3.617   3.557  10.538 -1.0732  1.4559 -3.4540
   71SLPC    C2 6128   3.727   3.710  10.429  0.2537 -0.6492 -0.2323
   71SLPC    HS 6129   3.712   3.642  10.343 -2.5754 -0.3212 -0.1039
   71SLPC   O21 6130   3.863   3.765  10.432  0.2097  0.5226 -0.0709
   71SLPC   C21 6131   3.949   3.675  10.388 -0.8585 -0.6161  0.2366
   71SLPC   O22 6132   3.930   3.561  10.350  0.1661 -0.7423  0.1960
   71SLPC   C22 6133   4.093   3.744  10.385  0.5847 -0.0583 -0.1080
   71SLPC   H2R 6134   4.086   3.845  10.432  3.8691  0.8677 -1.3145
   71SLPC   H2S 6135   4.146   3.692  10.467  0.5490 -0.2104 -0.1804
   71SLPC    C3 6136   3.612   3.822  10.418 -0.5797  0.0030 -0.0152
   71SLPC    HX 6137   3.612   3.888  10.507 -1.3643 -0.1610  0.1099
   71SLPC    HY 6138   3.514   3.770  10.414 -1.0258  0.8085  0.2167
   71SLPC   O31 6139   3.622   3.881  10.292 -0.0577  0.0949 -0.0954
   71SLPC   C31 6140   3.705   3.982  10.273 -0.5469 -0.2299  0.3800
   71SLPC   O32 6141   3.773   4.033  10.358 -0.1057  0.3878 -0.2265
   71SLPC   C32 6142   3.725   3.996  10.124  0.0303  0.5310 -0.0161
   71SLPC   H2X 6143   3.634   4.025  10.067  1.4104  1.8514 -1.6710
   71SLPC   H2Y 6144   3.763   3.897  10.091 -0.8669 -0.2447  1.1915
   71SLPC   C23 6145   4.178   3.740  10.255  0.4579 -0.4684 -0.0778
   71SLPC   H3R 6146   4.176   3.635  10.217  0.7987 -0.8098  0.8259
   71SLPC   H3S 6147   4.284   3.762  10.280  0.6485 -1.6352  0.2013
   71SLPC   C24 6148   4.111   3.826  10.152 -0.1045 -0.1040 -0.7627
   71SLPC   H4R 6149   4.085   3.927  10.187  1.4421 -0.2479  0.9457
   71SLPC   H4S 6150   4.017   3.774  10.123 -0.3633 -0.9686  1.4502
   71SLPC   C25 6151   4.193   3.843  10.021 -0.7186  0.2680 -0.6197
   71SLPC   H5R 6152   4.203   3.746   9.967 -1.1310  1.0975 -2.2528
   71SLPC   H5S 6153   4.295   3.875  10.050 -0.9252 -0.9553  1.7075
   71SLPC   C26 6154   4.121   3.939   9.934  0.1768  0.1216  0.9099
   71SLPC   H6R 6155   4.126   4.035   9.991  0.3744  1.1574 -0.7823
   71SLPC   H6S 6156   4.013   3.913   9.933 -0.1103  1.2656  0.9597
   71SLPC   C27 6157   4.194   3.956   9.799  0.5259  0.7489  0.3076
   71SLPC   H7R 6158   4.303   3.947   9.818  0.5268  3.2530  1.9354
   71SLPC   H7S 6159   4.178   4.060   9.763  1.5806  1.3357  1.4641
   71SLPC   C28 6160   4.137   3.850   9.699  0.3591  0.3937  0.1321
   71SLPC   H8R 6161   4.028   3.865   9.688  0.1389 -1.1841 -0.0329
   71SLPC   H8S 6162   4.151   3.749   9.743  0.1653  0.3058 -0.0092
   71SLPC   C29 6163   4.206   3.849   9.572  0.2427  0.2270  0.5770
   71SLPC   H9R 6164   4.315   3.836   9.582 -0.0162 -3.7945  0.0241
   71SLPC  C210 6165   4.150   3.853   9.454  0.1965 -0.2682 -0.0026
   71SLPC  H10R 6166   4.216   3.845   9.366  1.3342  0.6079  0.7413
   71SLPC  C211 6167   4.011   3.872   9.415  0.8596 -0.2215  0.8259
   71SLPC  H11R 6168   3.998   3.935   9.324 -1.7907 -3.0667 -0.9733
   71SLPC  H11S 6169   3.962   3.931   9.495  0.5545  2.1709 -1.0255
   71SLPC  C212 6170   3.929   3.739   9.394 -0.5615 -0.4157  0.1086
   71SLPC  H12R 6171   3.879   3.701   9.485  0.9864  0.0882  1.2171
   71SLPC  C213 6172   3.924   3.668   9.279  0.2737  0.1255  0.2181
   71SLPC  H13R 6173   3.859   3.581   9.263  0.3122  0.7211 -5.0890
   71SLPC  C214 6174   3.995   3.704   9.142 -0.4814  0.8775 -0.2671
   71SLPC  H14R 6175   4.098   3.734   9.169 -1.0107  1.0656  1.6853
   71SLPC  H14S 6176   3.954   3.800   9.103  0.9962  2.2591  1.3961
   71SLPC  C215 6177   3.992   3.605   9.023 -0.5113  0.0274  0.6902
   71SLPC  H15R 6178   3.891   3.578   8.985  0.0776 -1.1264 -0.1145
   71SLPC  H15S 6179   4.039   3.507   9.048  2.1517  0.9819 -0.2656
   71SLPC  C216 6180   4.054   3.673   8.898  0.3977 -0.1491 -0.2212
   71SLPC  H16R 6181   4.159   3.705   8.913 -0.2337  3.1013 -1.6878
   71SLPC  H16S 6182   3.988   3.760   8.873  0.2808  0.0646  0.7855
   71SLPC  C217 6183   4.073   3.581   8.778 -0.0966  0.5949  0.0613
   71SLPC  H17R 6184   3.981   3.523   8.754 -1.5632  2.7112  0.2559
   71SLPC  H17S 6185   4.158   3.515   8.806 -0.0962 -0.2447 -1.7836
   71SLPC  C218 6186   4.117   3.645   8.642 -0.1724  0.4708 -0.2929
   71SLPC  H18R 6187   4.170   3.571   8.579  0.7174  1.1900 -0.3988
   71SLPC  H18S 6188   4.191   3.726   8.660 -0.8405  0.9586  0.3249
   71SLPC  H18T 6189   4.034   3.687   8.582  1.2343  1.3537 -1.6840
   71SLPC   C33 6190   3.826   4.113  10.093  0.2374 -0.4205  1.2675
   71SLPC   H3X 6191   3.926   4.075  10.121  0.0066 -0.5467  1.9512
   71SLPC   H3Y 6192   3.798   4.204  10.151  0.2281  2.5101 -2.9162
   71SLPC   C34 6193   3.833   4.161   9.942  1.2404 -0.5610  0.4040
   71SLPC   H4X 6194   3.730   4.196   9.920  1.0914  0.3245  2.3446
   71SLPC   H4Y 6195   3.855   4.071   9.881 -1.0651 -0.0333 -1.3599
   71SLPC   C35 6196   3.926   4.270   9.914  0.0302 -0.4527 -0.1386
   71SLPC   H5X 6197   4.027   4.247   9.954  0.3980  2.6414  0.9402
   71SLPC   H5Y 6198   3.896   4.363   9.968  0.7206  0.7613 -1.7791
   71SLPC   C36 6199   3.937   4.320   9.767 -0.2225 -0.2163  0.4827
   71SLPC   H6X 6200   3.838   4.324   9.717  1.1050 -1.2257 -2.4959
   71SLPC   H6Y 6201   4.004   4.260   9.700  1.2923  1.4126  0.4713
   71SLPC   C37 6202   3.997   4.464   9.763  0.0120 -0.2752  0.6153
   71SLPC   H7X 6203   4.080   4.475   9.835  0.3377 -1.9030  0.5155
   71SLPC   H7Y 6204   3.915   4.525   9.806 -0.0237 -0.1523  0.3732
   71SLPC   C38 6205   4.044   4.514   9.626 -0.5925 -0.2324  0.2556
   71SLPC   H8X 6206   4.132   4.457   9.590 -1.0845 -0.1727 -1.1022
   71SLPC   H8Y 6207   4.071   4.620   9.641  1.3794 -0.8642  1.5586
   71SLPC   C39 6208   3.933   4.519   9.515  0.8892  0.4465 -0.0118
   71SLPC   H9X 6209   3.857   4.595   9.544 -0.3849 -0.2149 -1.4455
   71SLPC   H9Y 6210   3.878   4.424   9.502  2.1021 -0.1556 -0.9971
   71SLPC  C310 6211   3.996   4.563   9.378 -0.1051  0.3647  1.1469
   71SLPC  H10X 6212   4.082   4.500   9.350  0.3930  2.1950 -1.8252
   71SLPC  H10Y 6213   4.044   4.660   9.403 -0.1152  0.3300  1.3020
   71SLPC  C311 6214   3.903   4.583   9.261  0.5369 -0.1073  0.9942
   71SLPC  H11X 6215   3.951   4.659   9.196  0.7530  0.4287  1.7688
   71SLPC  H11Y 6216   3.806   4.629   9.287  0.0673 -1.9141  2.7429
   71SLPC  C312 6217   3.869   4.460   9.179  0.2775 -0.5791  0.3380
   71SLPC  H12X 6218   3.803   4.394   9.240  0.1975 -0.1658  0.7068
   71SLPC  H12Y 6219   3.964   4.405   9.160  1.3209  1.4258 -0.5648
   71SLPC  C313 6220   3.807   4.499   9.044  0.2306  0.2625  0.5545
   71SLPC  H13X 6221   3.728   4.575   9.058 -0.4353 -0.3874  0.4062
   71SLPC  H13Y 6222   3.763   4.408   8.997 -0.7558  0.8661  0.2996
   71SLPC  C314 6223   3.901   4.557   8.938 -1.2489  0.1990 -0.4781
   71SLPC  H14X 6224   3.974   4.477   8.915 -1.5729 -0.4885  0.7369
   71SLPC  H14Y 6225   3.958   4.641   8.984  0.4693 -1.1536 -0.0670
   71SLPC  C315 6226   3.832   4.596   8.809  0.2981  0.1254 -0.2680
   71SLPC  H15X 6227   3.751   4.522   8.790 -0.2573  1.0982 -1.8062
   71SLPC  H15Y 6228   3.912   4.571   8.736  0.1215 -2.8083  0.4173
   71SLPC  C316 6229   3.780   4.737   8.798 -0.3252  0.1088  0.0807
   71SLPC  H16X 6230   3.853   4.806   8.847 -1.2995  1.5024 -0.3660
   71SLPC  H16Y 6231   3.691   4.746   8.863  0.8103 -1.2554  1.9295
   71SLPC  C317 6232   3.737   4.785   8.658 -0.6449 -0.2157 -0.1425
   71SLPC  H17X 6233   3.684   4.881   8.670 -0.9872 -0.4955  0.6884
   71SLPC  H17Y 6234   3.668   4.711   8.611 -0.3719  0.6846 -2.0591
   71SLPC  C318 6235   3.859   4.802   8.565 -0.3392 -0.7587  0.5176
   71SLPC  H18X 6236   3.831   4.841   8.465  1.4112 -1.7429 -0.4120
   71SLPC  H18Y 6237   3.906   4.704   8.543  0.8209  0.3179 -2.2452
   71SLPC  H18Z 6238   3.938   4.867   8.608  0.8886 -1.9331  0.1392
   72SLPC     N 6239   6.340   2.145  11.128  0.3063  0.3144 -0.3876
   72SLPC   C13 6240   6.242   2.147  11.237  0.3694 -0.0614  0.3289
   72SLPC  H13A 6241   6.231   2.245  11.283 -0.8636  0.3968 -0.8760
   72SLPC  H13B 6242   6.140   2.119  11.216  0.3545 -0.9559  1.4916
   72SLPC  H13C 6243   6.269   2.080  11.317  2.5664  0.4884  0.1083
   72SLPC   C14 6244   6.470   2.184  11.188 -0.4615  0.1491 -0.0805
   72SLPC  H14A 6245   6.493   2.125  11.276 -0.3289  0.5190  0.1312
   72SLPC  H14B 6246   6.547   2.182  11.113  0.4502 -2.5879  0.7966
   72SLPC  H14C 6247   6.465   2.286  11.223 -1.6838  0.4154 -0.9582
   72SLPC   C15 6248   6.305   2.253  11.028 -0.1835 -0.6475  0.9091
   72SLPC  H15A 6249   6.376   2.287  10.954 -0.2920 -2.1649  0.0571
   72SLPC  H15B 6250   6.222   2.207  10.978 -0.9805  0.3535  1.2922
   72SLPC  H15C 6251   6.269   2.339  11.083  1.6964  1.2359 -0.6338
   72SLPC   C12 6252   6.357   2.008  11.073  0.0163  1.1399  0.7991
   72SLPC  H12A 6253   6.263   1.956  11.058  1.1876 -1.0578  0.7086
   72SLPC  H12B 6254   6.399   1.946  11.151  0.0238 -0.0008 -0.0720
   72SLPC   C11 6255   6.438   1.977  10.946  0.1281 -0.2687  0.4388
   72SLPC  H11A 6256   6.379   2.019  10.861 -0.0591 -0.5577  0.4246
   72SLPC  H11B 6257   6.442   1.867  10.930 -0.8390 -0.2042 -0.3499
   72SLPC     P 6258   6.639   2.087  10.823 -0.1287  0.2978  0.1044
   72SLPC   O13 6259   6.683   2.221  10.867 -0.4984 -0.6589 -0.2513
   72SLPC   O14 6260   6.749   2.001  10.792  0.0803 -0.6265  0.8439
   72SLPC   O12 6261   6.562   2.037  10.954 -0.4226 -0.3895  0.1522
   72SLPC   O11 6262   6.545   2.088  10.698 -0.6849 -0.0868  0.2459
   72SLPC    C1 6263   6.513   1.971  10.618 -0.5400  0.3074 -0.0085
   72SLPC    HA 6264   6.537   1.878  10.674 -1.6022  1.2876  2.2241
   72SLPC    HB 6265   6.404   1.949  10.612 -0.1312 -1.5057 -2.1542
   72SLPC    C2 6266   6.591   1.976  10.485 -0.3448  0.7432 -0.0531
   72SLPC    HS 6267   6.697   2.003  10.507  0.8903 -1.5604 -2.4882
   72SLPC   O21 6268   6.537   2.074  10.401  0.5247 -0.7233 -0.4681
   72SLPC   C21 6269   6.618   2.134  10.311  0.5197 -0.7329 -0.8923
   72SLPC   O22 6270   6.739   2.117  10.305 -0.7121 -0.0849 -0.0913
   72SLPC   C22 6271   6.537   2.227  10.221  0.9071 -0.0673 -0.4652
   72SLPC   H2R 6272   6.427   2.211  10.228  0.8624  0.9559  2.2733
   72SLPC   H2S 6273   6.552   2.331  10.257  1.4131 -0.6241  1.0100
   72SLPC    C3 6274   6.581   1.831  10.416 -0.4427 -0.5794 -0.5295
   72SLPC    HX 6275   6.482   1.787  10.439 -0.0334 -0.5759  1.4114
   72SLPC    HY 6276   6.645   1.764  10.478  0.5305 -0.5455 -1.4626
   72SLPC   O31 6277   6.607   1.824  10.277 -0.3222 -0.2618  0.6742
   72SLPC   C31 6278   6.729   1.787  10.240 -1.0171  0.2666 -0.8390
   72SLPC   O32 6279   6.813   1.745  10.323 -0.6106  0.1908  0.2320
   72SLPC   C32 6280   6.748   1.794  10.093  0.3224  0.2707  0.6455
   72SLPC   H2X 6281   6.838   1.736  10.065  0.3397  0.9882 -0.9019
   72SLPC   H2Y 6282   6.770   1.900  10.067  0.8948  0.0069  0.0265
   72SLPC   C23 6283   6.582   2.215  10.077  0.1917  0.0342  0.0857
   72SLPC   H3R 6284   6.693   2.216  10.073  0.2127  2.8516 -0.2857
   72SLPC   H3S 6285   6.553   2.303  10.017 -0.2824 -1.6713 -2.3586
   72SLPC   C24 6286   6.537   2.092  10.000  0.0646  1.3094  0.2063
   72SLPC   H4R 6287   6.492   2.016  10.068 -0.5300  1.2314 -0.2652
   72SLPC   H4S 6288   6.631   2.046   9.961  0.8477  2.2454  0.9315
   72SLPC   C25 6289   6.425   2.121   9.896  0.1373  0.0013 -0.7105
   72SLPC   H5R 6290   6.339   2.167   9.950  0.9385  0.2750  0.3469
   72SLPC   H5S 6291   6.394   2.021   9.858 -0.0368 -0.4676  0.6046
   72SLPC   C26 6292   6.480   2.206   9.776  1.2516  0.1309 -0.0079
   72SLPC   H6R 6293   6.521   2.297   9.825  0.8291  0.2070  0.2082
   72SLPC   H6S 6294   6.402   2.250   9.710  1.9989  0.3969 -0.7314
   72SLPC   C27 6295   6.579   2.135   9.678  0.1661 -0.3225 -0.2438
   72SLPC   H7R 6296   6.536   2.034   9.658  1.2895 -0.9335  0.3115
   72SLPC   H7S 6297   6.673   2.126   9.737  0.1045  0.7526  0.0322
   72SLPC   C28 6298   6.602   2.219   9.551  0.4326 -0.6059 -0.0955
   72SLPC   H8R 6299   6.671   2.155   9.492  2.5661  0.8867  0.6367
   72SLPC   H8S 6300   6.657   2.309   9.585 -1.2264  1.3535 -2.2695
   72SLPC   C29 6301   6.482   2.265   9.465 -1.2198 -0.1378  0.3907
   72SLPC   H9R 6302   6.427   2.351   9.506  1.3269  1.3549  0.8712
   72SLPC  C210 6303   6.455   2.231   9.335 -0.6484  0.2666 -0.5066
   72SLPC  H10R 6304   6.368   2.269   9.279 -1.4507 -0.9900 -0.1678
   72SLPC  C211 6305   6.537   2.124   9.264 -1.0609 -0.7151  0.6982
   72SLPC  H11R 6306   6.519   2.021   9.300  0.4241 -0.3471  2.7303
   72SLPC  H11S 6307   6.645   2.133   9.292 -1.8895  0.5047  3.9444
   72SLPC  C212 6308   6.529   2.116   9.114 -0.3891  0.3972  0.0317
   72SLPC  H12R 6309   6.547   2.016   9.072 -0.4787  0.1672  0.5365
   72SLPC  C213 6310   6.522   2.218   9.024  0.0610 -0.1140  0.4691
   72SLPC  H13R 6311   6.535   2.190   8.918  1.0440 -2.3524  1.1138
   72SLPC  C214 6312   6.515   2.363   9.052  0.0457  0.1312 -0.1241
   72SLPC  H14R 6313   6.592   2.405   8.983  0.6335 -1.9619 -0.8229
   72SLPC  H14S 6314   6.543   2.405   9.151  1.3916  1.4617 -1.0293
   72SLPC  C215 6315   6.385   2.431   9.002 -0.4479 -0.2270  0.3875
   72SLPC  H15R 6316   6.385   2.537   9.036  1.3711  0.1356 -0.6160
   72SLPC  H15S 6317   6.309   2.375   9.060  1.2908 -0.1553  2.8790
   72SLPC  C216 6318   6.368   2.423   8.845  0.4368 -0.3487  0.3647
   72SLPC  H16R 6319   6.339   2.319   8.818 -2.4656  0.8610 -1.6749
   72SLPC  H16S 6320   6.469   2.442   8.803  0.1617  0.3013 -0.0149
   72SLPC  C217 6321   6.279   2.525   8.781 -0.0680 -0.0625  0.8090
   72SLPC  H17R 6322   6.290   2.521   8.670  1.9016  0.0839  0.9554
   72SLPC  H17S 6323   6.303   2.625   8.823 -1.6974 -0.9118  4.1056
   72SLPC  C218 6324   6.130   2.513   8.817 -0.5488  0.1656 -0.0470
   72SLPC  H18R 6325   6.086   2.422   8.770  1.0991  0.0319 -1.4008
   72SLPC  H18S 6326   6.070   2.601   8.786  1.0636  1.6222  0.7858
   72SLPC  H18T 6327   6.111   2.509   8.927 -0.7213  1.9318  0.0091
   72SLPC   C33 6328   6.624   1.741  10.006 -0.5314 -0.3033 -0.6501
   72SLPC   H3X 6329   6.526   1.779  10.044  0.1361  2.2044 -1.2392
   72SLPC   H3Y 6330   6.615   1.630  10.008 -0.1075 -0.3461 -1.0014
   72SLPC   C34 6331   6.635   1.790   9.861 -0.0558  0.7774 -0.4480
   72SLPC   H4X 6332   6.725   1.854   9.853  1.0536 -0.5445  0.9243
   72SLPC   H4Y 6333   6.546   1.850   9.831 -0.7290  1.5144  2.6913
   72SLPC   C35 6334   6.680   1.672   9.772  0.2586  0.5916  0.1693
   72SLPC   H5X 6335   6.600   1.594   9.769 -1.7545  2.5750 -0.1622
   72SLPC   H5Y 6336   6.769   1.634   9.827 -1.3156 -1.3139  1.5568
   72SLPC   C36 6337   6.730   1.701   9.626  0.3343  0.3770 -0.4637
   72SLPC   H6X 6338   6.774   1.607   9.586 -0.8031 -0.6459  0.6195
   72SLPC   H6Y 6339   6.824   1.760   9.636 -0.6251  1.5319  3.0696
   72SLPC   C37 6340   6.620   1.742   9.522  0.0453 -0.0101 -1.0091
   72SLPC   H7X 6341   6.570   1.826   9.575 -1.6953 -0.6347 -1.5574
   72SLPC   H7Y 6342   6.552   1.655   9.516  0.3566 -0.3214 -0.1219
   72SLPC   C38 6343   6.668   1.790   9.389 -0.1551  0.1446  0.6401
   72SLPC   H8X 6344   6.729   1.881   9.405 -0.4609  0.3806  0.4767
   72SLPC   H8Y 6345   6.580   1.817   9.326 -1.1187  0.0990  1.9177
   72SLPC   C39 6346   6.765   1.698   9.309  0.3198  0.5484 -0.2890
   72SLPC   H9X 6347   6.723   1.597   9.321 -2.0911  1.1858 -2.5692
   72SLPC   H9Y 6348   6.871   1.699   9.344  0.7683  1.9560 -1.5231
   72SLPC  C310 6349   6.745   1.739   9.168 -0.7734  0.7045 -0.0822
   72SLPC  H10X 6350   6.790   1.837   9.140 -1.8768  1.1582 -0.3362
   72SLPC  H10Y 6351   6.637   1.756   9.147 -0.8422 -0.5683 -0.8329
   72SLPC  C311 6352   6.794   1.632   9.070 -0.2955  0.5619 -0.6675
   72SLPC  H11X 6353   6.744   1.533   9.075 -0.7857  0.4936 -4.0855
   72SLPC  H11Y 6354   6.899   1.610   9.099 -0.9084  0.1254  1.3712
   72SLPC  C312 6355   6.787   1.675   8.918 -0.5060  0.3712 -1.6140
   72SLPC  H12X 6356   6.859   1.759   8.923  0.0741 -0.1899  0.2788
   72SLPC  H12Y 6357   6.691   1.730   8.907 -1.9318 -0.7577  2.8625
   72SLPC  C313 6358   6.823   1.571   8.819  0.0547 -0.0625  0.2894
   72SLPC  H13X 6359   6.918   1.517   8.836  0.0233 -1.0798 -2.3159
   72SLPC  H13Y 6360   6.838   1.609   8.716  2.5901  0.1804  0.6875
   72SLPC  C314 6361   6.718   1.461   8.805  0.6286  0.3386  0.2577
   72SLPC  H14X 6362   6.706   1.401   8.898  0.8800 -1.2425 -0.7098
   72SLPC  H14Y 6363   6.748   1.391   8.725  1.0465  1.3633 -0.5098
   72SLPC  C315 6364   6.580   1.515   8.755  0.3276  0.1273 -0.3629
   72SLPC  H15X 6365   6.587   1.572   8.660 -1.5552  1.0013 -0.0291
   72SLPC  H15Y 6366   6.536   1.590   8.824 -0.4672  1.9659 -2.7207
   72SLPC  C316 6367   6.488   1.387   8.733  0.7714 -0.2087  0.1658
   72SLPC  H16X 6368   6.462   1.352   8.835  0.1762 -0.1791  0.0233
   72SLPC  H16Y 6369   6.540   1.305   8.678  0.4279  0.3242 -0.9928
   72SLPC  C317 6370   6.359   1.417   8.651 -0.0150 -0.3592 -0.3397
   72SLPC  H17X 6371   6.387   1.474   8.560  3.4138 -1.8545 -0.3652
   72SLPC  H17Y 6372   6.304   1.498   8.704  0.7686  0.5630 -0.8958
   72SLPC  C318 6373   6.287   1.293   8.615  0.5145  0.1116 -0.5238
   72SLPC  H18X 6374   6.296   1.213   8.691  1.1346  0.3055 -0.3895
   72SLPC  H18Y 6375   6.326   1.257   8.518 -1.0213 -0.1595 -1.0725
   72SLPC  H18Z 6376   6.179   1.315   8.598  0.8157  3.4096  1.1434
   73SLPC     N 6377   4.922   6.665  10.950 -0.1134 -0.0326 -0.7490
   73SLPC   C13 6378   4.982   6.582  10.846 -0.7292  0.5603 -0.1680
   73SLPC  H13A 6379   4.991   6.635  10.752 -1.6029  3.3589  1.2190
   73SLPC  H13B 6380   5.081   6.548  10.875 -1.5649  0.2320  2.5436
   73SLPC  H13C 6381   4.923   6.494  10.825 -1.8320  0.9659  1.0888
   73SLPC   C14 6382   4.959   6.601  11.079  0.0960  0.0151  0.7409
   73SLPC  H14A 6383   4.930   6.663  11.163 -2.5933 -0.8994  0.5839
   73SLPC  H14B 6384   4.909   6.507  11.094  2.5179 -1.3863  0.4979
   73SLPC  H14C 6385   5.066   6.589  11.082  0.3985  2.4026  2.7644
   73SLPC   C15 6386   4.780   6.672  10.927 -0.2244  0.5392 -0.0798
   73SLPC  H15A 6387   4.740   6.721  11.015 -2.1782  1.1662 -1.2690
   73SLPC  H15B 6388   4.745   6.731  10.844  2.7597 -2.5860 -4.0086
   73SLPC  H15C 6389   4.735   6.574  10.937  0.3085  0.0791 -1.8609
   73SLPC   C12 6390   4.984   6.802  10.954 -0.1387 -0.0493 -0.0324
   73SLPC  H12A 6391   4.970   6.855  10.861  1.9605  1.6620  0.5632
   73SLPC  H12B 6392   5.091   6.790  10.965 -0.0197  1.5843  0.8586
   73SLPC   C11 6393   4.947   6.900  11.068  0.4157 -0.7095 -0.1708
   73SLPC  H11A 6394   5.001   6.996  11.051  0.0647 -0.7981 -1.9937
   73SLPC  H11B 6395   4.978   6.861  11.168 -0.4308 -0.4755  0.1850
   73SLPC     P 6396   4.739   7.031  10.977 -0.2219  0.1726  0.2451
   73SLPC   O13 6397   4.593   7.027  10.994  0.3248 -0.8068  0.3169
   73SLPC   O14 6398   4.808   7.158  11.014 -0.5486 -0.4882 -0.1027
   73SLPC   O12 6399   4.801   6.927  11.072  0.0131  0.0001  0.1348
   73SLPC   O11 6400   4.784   6.983  10.831 -0.2167 -0.1751  0.6829
   73SLPC    C1 6401   4.875   7.046  10.746 -0.0845 -0.2583  0.9655
   73SLPC    HA 6402   4.952   7.103  10.802 -1.3112  1.5293  0.9214
   73SLPC    HB 6403   4.937   6.970  10.694 -0.4628  1.0627 -1.5789
   73SLPC    C2 6404   4.818   7.149  10.638 -0.2635  0.7500  0.3997
   73SLPC    HS 6405   4.766   7.233  10.688 -0.8221  1.3144 -1.0743
   73SLPC   O21 6406   4.725   7.072  10.568  0.0328  0.2212  0.3908
   73SLPC   C21 6407   4.617   7.135  10.535  0.9339 -1.1349  0.1118
   73SLPC   O22 6408   4.586   7.253  10.566  0.0307 -0.2240  0.1539
   73SLPC   C22 6409   4.545   7.048  10.437  0.1793  0.3776 -0.5592
   73SLPC   H2R 6410   4.563   6.939  10.452 -0.6483  0.2705 -0.2795
   73SLPC   H2S 6411   4.436   7.069  10.437 -0.0576 -0.7387 -1.6441
   73SLPC    C3 6412   4.940   7.196  10.540 -0.2238  0.6266 -0.4455
   73SLPC    HX 6413   5.004   7.109  10.515  0.5077  1.6736 -2.4045
   73SLPC    HY 6414   5.004   7.253  10.610 -1.1129 -0.2743  1.1675
   73SLPC   O31 6415   4.908   7.268  10.428  0.1170  0.3143  0.7346
   73SLPC   C31 6416   4.947   7.225  10.303  0.4003 -0.2298  0.6936
   73SLPC   O32 6417   4.996   7.116  10.285  0.5895 -0.3018 -0.6568
   73SLPC   C32 6418   4.907   7.330  10.191  0.5884 -0.4130  0.0449
   73SLPC   H2X 6419   4.977   7.416  10.194  1.0430 -0.7892  0.3831
   73SLPC   H2Y 6420   4.806   7.364  10.222 -0.0242  1.1101 -3.2462
   73SLPC   C23 6421   4.600   7.070  10.290 -0.0204  0.3846  0.2053
   73SLPC   H3R 6422   4.553   6.989  10.231 -3.0554  1.9575  0.2482
   73SLPC   H3S 6423   4.711   7.076  10.284 -0.0794  1.5146 -0.0044
   73SLPC   C24 6424   4.529   7.191  10.225  0.7875 -0.3190  0.8834
   73SLPC   H4R 6425   4.578   7.288  10.247  1.1471 -0.5443  1.0810
   73SLPC   H4S 6426   4.423   7.197  10.259 -0.2459 -1.5704 -1.8310
   73SLPC   C25 6427   4.518   7.189  10.069 -0.2472  0.5629  1.4556
   73SLPC   H5R 6428   4.453   7.105  10.035  0.8012 -0.1844  1.2422
   73SLPC   H5S 6429   4.621   7.170  10.030  0.7995 -1.4028  4.7809
   73SLPC   C26 6430   4.471   7.316  10.013 -0.0143 -0.2051 -0.1824
   73SLPC   H6R 6431   4.539   7.398  10.043  0.2624 -0.7641  0.7840
   73SLPC   H6S 6432   4.380   7.335  10.075 -1.1542 -0.5177 -1.6945
   73SLPC   C27 6433   4.442   7.304   9.859 -0.0275 -0.6884 -0.5005
   73SLPC   H7R 6434   4.372   7.219   9.839 -0.4645 -0.6457  0.7954
   73SLPC   H7S 6435   4.541   7.287   9.812  1.4013  0.5353  1.8916
   73SLPC   C28 6436   4.383   7.431   9.786  0.2430  0.3909 -0.0844
   73SLPC   H8R 6437   4.452   7.518   9.793 -0.2578  0.7102  1.0284
   73SLPC   H8S 6438   4.297   7.450   9.853 -1.3347 -3.4232 -0.7580
   73SLPC   C29 6439   4.349   7.401   9.642 -0.0433 -0.0370 -0.0293
   73SLPC   H9R 6440   4.245   7.368   9.644 -0.6582  1.6870 -1.1506
   73SLPC  C210 6441   4.417   7.434   9.530  0.4671 -0.0605 -0.7775
   73SLPC  H10R 6442   4.363   7.411   9.437  1.2896  0.3742 -1.3604
   73SLPC  C211 6443   4.542   7.520   9.525  0.1460 -0.7149 -0.0559
   73SLPC  H11R 6444   4.597   7.532   9.621 -0.7923  1.1549  0.2878
   73SLPC  H11S 6445   4.511   7.623   9.497  4.3318  0.7240 -0.1074
   73SLPC  C212 6446   4.636   7.462   9.412  0.0146  0.1188 -0.3109
   73SLPC  H12R 6447   4.702   7.379   9.442  0.6962  0.7343 -0.0769
   73SLPC  C213 6448   4.651   7.513   9.291 -0.7841  0.1902  0.7065
   73SLPC  H13R 6449   4.708   7.448   9.223  1.7894  0.9341  1.9815
   73SLPC  C214 6450   4.582   7.627   9.233 -0.2987 -0.0065 -0.1287
   73SLPC  H14R 6451   4.659   7.678   9.171 -0.7756  1.2610  0.2808
   73SLPC  H14S 6452   4.553   7.696   9.316 -0.2467 -0.3731  0.1982
   73SLPC  C215 6453   4.457   7.592   9.145 -0.4803  0.3097  0.8666
   73SLPC  H15R 6454   4.380   7.539   9.205  0.0814 -0.0262  1.3073
   73SLPC  H15S 6455   4.499   7.528   9.065 -0.6132 -0.1944  1.1965
   73SLPC  C216 6456   4.393   7.715   9.077  0.3251 -0.4611 -0.3646
   73SLPC  H16R 6457   4.433   7.757   8.983  0.1420 -0.3111 -0.3776
   73SLPC  H16S 6458   4.403   7.795   9.153  0.6484  1.4400 -2.3162
   73SLPC  C217 6459   4.243   7.711   9.061  0.4326  0.1875  0.4944
   73SLPC  H17R 6460   4.191   7.694   9.158 -0.8016  0.4905 -0.1055
   73SLPC  H17S 6461   4.215   7.623   9.000 -0.9935 -1.9119  3.8583
   73SLPC  C218 6462   4.190   7.842   9.006  0.9338  0.2441  0.1224
   73SLPC  H18R 6463   4.192   7.911   9.093 -0.4105  0.9991 -0.4080
   73SLPC  H18S 6464   4.086   7.831   8.967  1.3477  2.4570 -1.7834
   73SLPC  H18T 6465   4.242   7.881   8.916 -1.0190  2.9575  0.0286
   73SLPC   C33 6466   4.897   7.276  10.052  0.0869  0.0463  0.1347
   73SLPC   H3X 6467   4.835   7.185  10.038  1.1378 -0.7245  0.3902
   73SLPC   H3Y 6468   4.997   7.239  10.022  0.1605  0.2870  0.0807
   73SLPC   C34 6469   4.850   7.379   9.953  0.4399 -0.0598 -0.1504
   73SLPC   H4X 6470   4.915   7.469   9.966  1.6765 -0.8556 -0.7239
   73SLPC   H4Y 6471   4.744   7.411   9.967  0.3681  1.4167 -3.3104
   73SLPC   C35 6472   4.858   7.337   9.804 -0.4721  0.2958 -0.0147
   73SLPC   H5X 6473   4.831   7.426   9.743  2.3932  0.7302 -0.7783
   73SLPC   H5Y 6474   4.776   7.267   9.775 -1.0078 -0.1937  2.3972
   73SLPC   C36 6475   5.001   7.287   9.765 -1.0091 -0.0269 -0.2726
   73SLPC   H6X 6476   5.041   7.209   9.833 -2.6526  0.4755  1.3458
   73SLPC   H6Y 6477   5.069   7.375   9.777 -1.4511  0.2164  0.5813
   73SLPC   C37 6478   5.006   7.240   9.624 -0.1936 -0.4134  0.5989
   73SLPC   H7X 6479   4.987   7.324   9.554  0.0242  0.1327  1.1907
   73SLPC   H7Y 6480   4.930   7.162   9.601  0.5618 -1.2662  0.9019
   73SLPC   C38 6481   5.147   7.176   9.593  0.2368 -0.4143  0.7033
   73SLPC   H8X 6482   5.156   7.085   9.655  0.5441 -1.3316 -0.6348
   73SLPC   H8Y 6483   5.231   7.244   9.616  0.5253 -0.7427  0.6233
   73SLPC   C39 6484   5.154   7.112   9.454 -0.5944 -0.4905 -0.0127
   73SLPC   H9X 6485   5.086   7.027   9.435 -2.8427  1.4147 -0.9527
   73SLPC   H9Y 6486   5.254   7.065   9.441 -0.1990 -0.9458  3.5058
   73SLPC  C310 6487   5.143   7.212   9.339  0.0737  0.3468 -0.7577
   73SLPC  H10X 6488   5.233   7.278   9.339  2.0930 -2.1982 -1.9950
   73SLPC  H10Y 6489   5.052   7.271   9.361 -1.6117 -2.8285  1.6296
   73SLPC  C311 6490   5.111   7.142   9.210  0.1595  0.2702  0.6219
   73SLPC  H11X 6491   5.021   7.079   9.195  2.0598 -2.0492 -2.3760
   73SLPC  H11Y 6492   5.189   7.065   9.189  1.3500  1.6484 -0.2298
   73SLPC  C312 6493   5.113   7.244   9.088 -0.1212 -0.4998  0.4020
   73SLPC  H12X 6494   5.191   7.320   9.109  0.8520 -0.3323 -3.0968
   73SLPC  H12Y 6495   5.014   7.292   9.102 -1.0009 -2.3719  0.9855
   73SLPC  C313 6496   5.110   7.182   8.950 -0.0167 -0.1511  0.1659
   73SLPC  H13X 6497   5.070   7.255   8.877 -1.1377 -2.2534 -1.4421
   73SLPC  H13Y 6498   5.038   7.098   8.950  0.3609 -0.4928 -0.9458
   73SLPC  C314 6499   5.257   7.142   8.906 -0.1386 -0.2393  0.1998
   73SLPC  H14X 6500   5.316   7.097   8.989  1.3524  1.4608  0.1307
   73SLPC  H14Y 6501   5.313   7.233   8.873 -3.4273  2.7997  2.1914
   73SLPC  C315 6502   5.255   7.040   8.792  0.3139  0.0505 -0.5344
   73SLPC  H15X 6503   5.183   6.961   8.824 -0.2305  0.2152 -1.3213
   73SLPC  H15Y 6504   5.360   7.006   8.782  0.8280  1.2803  0.4283
   73SLPC  C316 6505   5.200   7.094   8.655  0.2063 -0.0972  0.3656
   73SLPC  H16X 6506   5.250   7.191   8.635 -2.8694  1.2056 -1.7522
   73SLPC  H16Y 6507   5.093   7.115   8.676 -0.1299 -0.4964 -0.8548
   73SLPC  C317 6508   5.236   7.027   8.527  0.5294  0.9197  0.2260
   73SLPC  H17X 6509   5.181   6.932   8.508  1.8974  0.1295  0.1068
   73SLPC  H17Y 6510   5.341   6.991   8.529  0.1563 -0.6446 -2.7319
   73SLPC  C318 6511   5.228   7.111   8.400  0.2310 -0.5319 -0.3324
   73SLPC  H18X 6512   5.262   7.051   8.313 -0.4563  0.6753 -1.4649
   73SLPC  H18Y 6513   5.285   7.207   8.401 -0.8196  0.1830  2.6396
   73SLPC  H18Z 6514   5.123   7.142   8.379  0.5767  0.3547 -0.8125
   74SLPC     N 6515   0.948   1.775  10.944 -0.8180  0.1339 -0.2754
   74SLPC   C13 6516   0.874   1.911  10.936  0.3458  0.2275  0.0063
   74SLPC  H13A 6517   0.909   1.954  10.843  1.6445 -2.0066 -0.6149
   74SLPC  H13B 6518   0.767   1.896  10.945  0.6830 -2.9734  0.0531
   74SLPC  H13C 6519   0.904   1.969  11.021 -0.7996  0.7691  0.0576
   74SLPC   C14 6520   0.900   1.697  10.824  0.0320  0.2973  0.3847
   74SLPC  H14A 6521   0.945   1.600  10.817  1.7409  1.0216  0.8785
   74SLPC  H14B 6522   0.792   1.690  10.822 -0.0069  0.8588  0.3791
   74SLPC  H14C 6523   0.932   1.738  10.729  0.1239 -1.2737 -0.2837
   74SLPC   C15 6524   0.905   1.704  11.068  0.1045  0.1485 -0.4572
   74SLPC  H15A 6525   0.956   1.613  11.095 -2.4353 -1.0383  0.7529
   74SLPC  H15B 6526   0.912   1.769  11.154  2.2958 -0.0285 -0.4526
   74SLPC  H15C 6527   0.805   1.671  11.044  0.4172 -0.5495 -0.8077
   74SLPC   C12 6528   1.091   1.792  10.937  0.1076  0.7222 -0.1695
   74SLPC  H12A 6529   1.123   1.868  11.007  0.0338  0.1103  0.5385
   74SLPC  H12B 6530   1.106   1.827  10.836 -1.9033  0.0991 -0.7389
   74SLPC   C11 6531   1.186   1.671  10.958  0.0731  0.1077  0.2299
   74SLPC  H11A 6532   1.168   1.629  11.059 -0.2299  1.0321  0.5694
   74SLPC  H11B 6533   1.293   1.701  10.958  0.3255 -0.7139  1.3278
   74SLPC     P 6534   1.280   1.496  10.784  0.1872  0.1559 -0.3163
   74SLPC   O13 6535   1.396   1.475  10.874 -0.4387 -0.1042 -0.2377
   74SLPC   O14 6536   1.240   1.381  10.708  0.0021  0.1250 -0.4631
   74SLPC   O12 6537   1.162   1.552  10.875 -0.2078 -0.1451 -0.6178
   74SLPC   O11 6538   1.315   1.612  10.686  0.0758 -0.2909  0.5049
   74SLPC    C1 6539   1.229   1.679  10.598 -0.3053 -0.6488 -0.2397
   74SLPC    HA 6540   1.128   1.683  10.644  0.9247 -1.1949  2.7388
   74SLPC    HB 6541   1.261   1.786  10.601 -0.9578 -0.4675  0.9887
   74SLPC    C2 6542   1.222   1.629  10.448 -0.5017  0.4281  0.1731
   74SLPC    HS 6543   1.238   1.520  10.459 -0.3862  0.3379 -0.7474
   74SLPC   O21 6544   1.317   1.687  10.359 -0.2333  0.3560  0.1166
   74SLPC   C21 6545   1.366   1.603  10.267  0.4004  0.3814  0.1913
   74SLPC   O22 6546   1.353   1.481  10.271 -0.3860 -0.3122 -0.1718
   74SLPC   C22 6547   1.449   1.678  10.166 -0.1120 -0.0530  0.3151
   74SLPC   H2R 6548   1.479   1.777  10.208 -0.9603 -0.1194  1.1016
   74SLPC   H2S 6549   1.547   1.626  10.164 -1.4586 -2.7771 -1.4538
   74SLPC    C3 6550   1.072   1.648  10.392  0.0946 -0.9906 -0.9188
   74SLPC    HX 6551   1.060   1.758  10.382  1.3577 -0.7989 -0.4732
   74SLPC    HY 6552   0.996   1.614  10.465  0.1675 -1.0014 -0.8480
   74SLPC   O31 6553   1.047   1.590  10.264  0.5098  0.1404 -0.1502
   74SLPC   C31 6554   0.998   1.469  10.258 -0.2755  0.5107  0.1952
   74SLPC   O32 6555   0.992   1.391  10.356  0.3699  0.2739  0.8814
   74SLPC   C32 6556   0.962   1.441  10.116 -0.5635 -0.4774  0.2775
   74SLPC   H2X 6557   1.046   1.374  10.088  0.5067  1.0090 -0.1933
   74SLPC   H2Y 6558   0.958   1.535  10.057  0.6918  0.2210  1.2626
   74SLPC   C23 6559   1.384   1.667  10.019  0.2364 -0.8956 -0.0102
   74SLPC   H3R 6560   1.339   1.566  10.008  0.3643 -0.9065 -0.4225
   74SLPC   H3S 6561   1.462   1.681   9.942  0.5104 -1.4953  0.1503
   74SLPC   C24 6562   1.278   1.769  10.012 -0.3293 -0.2966 -0.0201
   74SLPC   H4R 6563   1.329   1.868  10.016 -0.9687  0.0104  1.5367
   74SLPC   H4S 6564   1.213   1.748  10.100 -0.3341  0.0111  0.0550
   74SLPC   C25 6565   1.193   1.775   9.883 -0.2136  0.6311 -0.0407
   74SLPC   H5R 6566   1.124   1.862   9.873 -0.5991  0.2942 -0.3349
   74SLPC   H5S 6567   1.124   1.689   9.896 -2.0262  1.8203 -1.2904
   74SLPC   C26 6568   1.277   1.757   9.751 -0.9523  0.4414  0.4220
   74SLPC   H6R 6569   1.320   1.655   9.737  0.3667  1.3217 -2.7507
   74SLPC   H6S 6570   1.365   1.825   9.750 -0.6880  0.1919 -2.6518
   74SLPC   C27 6571   1.189   1.791   9.631 -0.5645  0.2942 -0.4944
   74SLPC   H7R 6572   1.193   1.900   9.613  2.1227  0.6792  1.7447
   74SLPC   H7S 6573   1.086   1.753   9.645 -0.0754 -0.6393  0.7319
   74SLPC   C28 6574   1.247   1.738   9.495 -0.4359 -0.4277 -0.1487
   74SLPC   H8R 6575   1.169   1.754   9.418  1.4868  2.4743 -1.7014
   74SLPC   H8S 6576   1.261   1.631   9.520  1.7541 -0.2123 -0.2826
   74SLPC   C29 6577   1.371   1.805   9.438  0.0803  0.6450 -0.0235
   74SLPC   H9R 6578   1.453   1.809   9.511 -0.6976  0.5800  0.8881
   74SLPC  C210 6579   1.400   1.844   9.311 -0.1580 -0.2502  0.0021
   74SLPC  H10R 6580   1.493   1.896   9.282  0.6139 -2.5907 -2.1081
   74SLPC  C211 6581   1.307   1.823   9.201 -0.5398 -0.1486  0.7157
   74SLPC  H11R 6582   1.203   1.804   9.236 -0.7732 -2.1058 -0.8729
   74SLPC  H11S 6583   1.347   1.732   9.153  0.7334  1.0676 -0.6145
   74SLPC  C212 6584   1.290   1.929   9.092 -0.0747  0.3472  0.2412
   74SLPC  H12R 6585   1.249   2.020   9.140  0.1112 -0.1421  1.3539
   74SLPC  C213 6586   1.316   1.927   8.966 -0.7122 -0.1369  0.0921
   74SLPC  H13R 6587   1.310   2.024   8.915  1.3806 -0.9131 -1.7971
   74SLPC  C214 6588   1.383   1.814   8.895  0.4434 -0.1700 -0.4094
   74SLPC  H14R 6589   1.440   1.748   8.963  2.1129  0.3186 -1.2672
   74SLPC  H14S 6590   1.460   1.856   8.826  1.4709 -1.4225 -0.0628
   74SLPC  C215 6591   1.302   1.711   8.814  0.0586  0.2763  0.0975
   74SLPC  H15R 6592   1.234   1.761   8.742 -0.8664 -0.0432  0.7403
   74SLPC  H15S 6593   1.220   1.678   8.882  0.4367  0.8604  0.8554
   74SLPC  C216 6594   1.381   1.591   8.764  0.0949 -0.0550  0.3794
   74SLPC  H16R 6595   1.434   1.540   8.848 -1.9376 -1.2265  1.0344
   74SLPC  H16S 6596   1.438   1.623   8.675 -0.6214  2.4458  0.7362
   74SLPC  C217 6597   1.282   1.473   8.716  0.0975 -0.0779  0.3846
   74SLPC  H17R 6598   1.247   1.412   8.802 -0.2666 -0.4880 -0.0474
   74SLPC  H17S 6599   1.339   1.403   8.651  0.7099  0.3062  0.4937
   74SLPC  C218 6600   1.156   1.515   8.628 -0.1690 -0.9830 -0.5439
   74SLPC  H18R 6601   1.104   1.431   8.576 -2.8597 -0.9682  1.8836
   74SLPC  H18S 6602   1.190   1.595   8.558 -0.0377 -0.7493 -0.2149
   74SLPC  H18T 6603   1.077   1.558   8.693 -1.2877 -2.7905 -0.6319
   74SLPC   C33 6604   0.826   1.365  10.101  0.3541 -0.2682  0.1509
   74SLPC   H3X 6605   0.747   1.408  10.167 -0.9057  0.0751 -1.5210
   74SLPC   H3Y 6606   0.833   1.258  10.127  1.1373  0.0621  1.3837
   74SLPC   C34 6607   0.781   1.375   9.952  0.8561 -0.1053  0.0147
   74SLPC   H4X 6608   0.776   1.484   9.928  1.5310 -0.3222 -1.2021
   74SLPC   H4Y 6609   0.684   1.330   9.925  0.2919  0.2117  1.4322
   74SLPC   C35 6610   0.875   1.308   9.851 -0.2185  0.8305 -0.1826
   74SLPC   H5X 6611   0.874   1.201   9.883 -1.7159  1.3237  1.5986
   74SLPC   H5Y 6612   0.974   1.356   9.857 -0.8892  2.3980 -1.0906
   74SLPC   C36 6613   0.828   1.315   9.704 -0.1856  0.2376  0.2343
   74SLPC   H6X 6614   0.720   1.289   9.701 -1.0348  3.4168 -2.3650
   74SLPC   H6Y 6615   0.888   1.242   9.647  1.3524 -0.6244  2.7743
   74SLPC   C37 6616   0.844   1.452   9.643 -0.1287 -0.7022 -0.0579
   74SLPC   H7X 6617   0.946   1.492   9.661 -0.3676 -0.2059  0.1957
   74SLPC   H7Y 6618   0.781   1.529   9.693 -0.5605  0.6887 -2.6085
   74SLPC   C38 6619   0.820   1.452   9.491  0.8310 -0.1201  0.1584
   74SLPC   H8X 6620   0.719   1.407   9.480  1.6802 -2.1526  0.3439
   74SLPC   H8Y 6621   0.894   1.380   9.450  2.7317  1.7288  0.1201
   74SLPC   C39 6622   0.837   1.588   9.426  0.3348 -0.7886 -0.3884
   74SLPC   H9X 6623   0.948   1.601   9.422  0.4016 -1.5109 -1.1752
   74SLPC   H9Y 6624   0.780   1.670   9.474 -0.6359 -1.6601 -0.0392
   74SLPC  C310 6625   0.798   1.594   9.279 -0.0021 -0.1788  0.2799
   74SLPC  H10X 6626   0.713   1.524   9.263  0.9333 -1.3644  0.4263
   74SLPC  H10Y 6627   0.880   1.550   9.219  1.0695  0.9401  0.8881
   74SLPC  C311 6628   0.783   1.731   9.216  0.3150 -0.0745  0.4479
   74SLPC  H11X 6629   0.709   1.784   9.279 -0.8803  1.0088 -1.7548
   74SLPC  H11Y 6630   0.743   1.722   9.113 -3.2784  0.3124  1.6680
   74SLPC  C312 6631   0.915   1.813   9.206  0.5307 -0.1187  0.4525
   74SLPC  H12X 6632   1.003   1.751   9.179  0.6753  0.3427 -0.1723
   74SLPC  H12Y 6633   0.941   1.846   9.309  0.2914 -2.4315  1.2944
   74SLPC  C313 6634   0.898   1.937   9.120 -0.2150 -0.3290  0.2678
   74SLPC  H13X 6635   0.989   2.000   9.132  1.0438 -1.9423 -0.5196
   74SLPC  H13Y 6636   0.798   1.979   9.147  0.0040  1.0753 -0.9517
   74SLPC  C314 6637   0.926   1.903   8.973  0.3667  0.1439  0.4676
   74SLPC  H14X 6638   0.877   1.810   8.937 -3.1735  1.8423  0.5031
   74SLPC  H14Y 6639   1.033   1.880   8.950  0.1187  0.6409 -1.2512
   74SLPC  C315 6640   0.887   2.017   8.870  0.1551 -0.5070  1.1340
   74SLPC  H15X 6641   0.968   2.093   8.874  0.3416 -0.4939 -1.4085
   74SLPC  H15Y 6642   0.791   2.066   8.899  0.0699  0.0168  0.0285
   74SLPC  C316 6643   0.890   1.963   8.724  0.2293  0.7141 -0.7494
   74SLPC  H16X 6644   0.794   1.908   8.713  1.4936 -1.9393  0.5668
   74SLPC  H16Y 6645   0.958   1.875   8.717 -0.1962  0.4994 -2.5975
   74SLPC  C317 6646   0.927   2.053   8.617  0.1775  0.1327  0.8395
   74SLPC  H17X 6647   1.034   2.084   8.618  0.3852 -0.5571  0.5656
   74SLPC  H17Y 6648   0.873   2.150   8.621 -0.4224 -0.0769 -1.0852
   74SLPC  C318 6649   0.894   1.977   8.476 -0.0330 -0.2407 -0.0005
   74SLPC  H18X 6650   0.959   1.888   8.464 -0.8004 -0.7761 -0.3071
   74SLPC  H18Y 6651   0.906   2.048   8.391 -0.3797 -0.7009 -0.4367
   74SLPC  H18Z 6652   0.792   1.932   8.479 -0.0453 -0.2261 -0.2450
   75SLPC     N 6653   5.147   4.007   6.317 -0.5694 -0.1583  0.2062
   75SLPC   C13 6654   5.171   3.969   6.172 -0.2191 -0.4588  0.0798
   75SLPC  H13A 6655   5.216   3.871   6.166  2.1253  0.4524  1.3456
   75SLPC  H13B 6656   5.074   3.957   6.127  0.4913 -0.5537 -1.5136
   75SLPC  H13C 6657   5.226   4.046   6.120 -0.7705  0.8906  1.4463
   75SLPC   C14 6658   5.076   4.136   6.315  0.1816  0.6009  0.2202
   75SLPC  H14A 6659   5.052   4.173   6.414 -0.2853 -1.3337  0.8672
   75SLPC  H14B 6660   5.126   4.219   6.266 -2.0720  1.2450 -1.0960
   75SLPC  H14C 6661   4.975   4.119   6.281 -0.0559  1.1906  0.6055
   75SLPC   C15 6662   5.275   4.024   6.383 -0.5905 -0.5859  0.2274
   75SLPC  H15A 6663   5.348   4.095   6.348  1.3001 -2.5519 -0.0777
   75SLPC  H15B 6664   5.267   4.046   6.488  0.2721  0.8601  0.0216
   75SLPC  H15C 6665   5.334   3.934   6.390  1.9734  1.0835  1.7497
   75SLPC   C12 6666   5.064   3.909   6.399  0.0011  0.2772  0.3620
   75SLPC  H12A 6667   5.125   3.821   6.414 -2.0024 -1.7250 -2.1815
   75SLPC  H12B 6668   4.984   3.877   6.333  0.3968 -0.3243  0.1611
   75SLPC   C11 6669   5.001   3.970   6.518 -0.3058 -0.5486 -0.2375
   75SLPC  H11A 6670   5.072   4.032   6.577 -1.0938  2.3443 -2.0924
   75SLPC  H11B 6671   4.976   3.889   6.590  0.1023  0.3150  0.9099
   75SLPC     P 6672   4.746   3.964   6.462 -0.1990 -0.4527  0.2821
   75SLPC   O13 6673   4.649   4.061   6.403 -0.3281 -0.2971  0.0106
   75SLPC   O14 6674   4.779   3.845   6.379  0.1747 -0.3661 -0.2959
   75SLPC   O12 6675   4.883   4.047   6.481 -0.7212 -0.0021 -1.2901
   75SLPC   O11 6676   4.707   3.922   6.607  0.5276 -0.4541 -0.0804
   75SLPC    C1 6677   4.669   3.790   6.649  0.1817  0.2476 -0.4184
   75SLPC    HA 6678   4.566   3.769   6.613  0.8814 -2.3667 -1.0816
   75SLPC    HB 6679   4.736   3.711   6.609  1.3071 -0.3125  2.3110
   75SLPC    C2 6680   4.689   3.787   6.805 -0.1821 -0.2640  0.1828
   75SLPC    HS 6681   4.667   3.691   6.857  1.1658  0.6534  2.6096
   75SLPC   O21 6682   4.606   3.893   6.863 -0.0888 -0.1618 -0.5103
   75SLPC   C21 6683   4.476   3.868   6.860  0.5415 -0.0635 -0.1911
   75SLPC   O22 6684   4.414   3.771   6.813 -0.5578 -0.6276 -0.0615
   75SLPC   C22 6685   4.394   3.976   6.929 -0.4602 -0.4138  0.0768
   75SLPC   H2R 6686   4.462   4.044   6.984  0.3600 -1.6518  0.6231
   75SLPC   H2S 6687   4.341   4.033   6.849 -0.2225  1.4172  1.1691
   75SLPC    C3 6688   4.835   3.815   6.842  0.2311  0.2132  0.7229
   75SLPC    HX 6689   4.862   3.922   6.823 -1.6412  0.4680 -0.9048
   75SLPC    HY 6690   4.897   3.758   6.769 -2.0940 -1.3097 -0.1812
   75SLPC   O31 6691   4.851   3.775   6.972 -0.1054  0.6226  0.3098
   75SLPC   C31 6692   4.864   3.874   7.057 -0.1279 -0.2404 -0.5341
   75SLPC   O32 6693   4.840   3.991   7.045  0.0601 -0.7623  0.2488
   75SLPC   C32 6694   4.908   3.807   7.190 -0.4775  0.4711  0.4274
   75SLPC   H2X 6695   5.014   3.773   7.189 -0.9061 -0.9587 -1.2263
   75SLPC   H2Y 6696   4.851   3.712   7.185 -2.2388  1.4948  0.5501
   75SLPC   C23 6697   4.290   3.914   7.033  0.3521 -0.0768 -0.6173
   75SLPC   H3R 6698   4.241   3.828   6.983 -0.8309  0.8368 -1.0799
   75SLPC   H3S 6699   4.228   4.004   7.053  0.3346 -0.0725 -0.6889
   75SLPC   C24 6700   4.362   3.859   7.161  0.0195 -0.3114 -0.5234
   75SLPC   H4R 6701   4.411   3.950   7.203 -1.1714 -0.4083  1.1605
   75SLPC   H4S 6702   4.442   3.787   7.133  0.7400  0.4829 -0.5493
   75SLPC   C25 6703   4.261   3.790   7.261  0.3675 -0.5416  0.5338
   75SLPC   H5R 6704   4.226   3.690   7.227 -0.5261 -0.4788  1.2118
   75SLPC   H5S 6705   4.165   3.846   7.252  0.5203 -0.5764 -1.9586
   75SLPC   C26 6706   4.300   3.795   7.408 -0.9969  0.5661 -0.2884
   75SLPC   H6R 6707   4.336   3.892   7.448  1.1402 -1.5227  3.3717
   75SLPC   H6S 6708   4.381   3.722   7.427 -0.0418  1.0883 -2.1269
   75SLPC   C27 6709   4.188   3.753   7.499  0.6081 -0.7849  0.3077
   75SLPC   H7R 6710   4.144   3.654   7.475 -1.1087 -0.3844  1.6647
   75SLPC   H7S 6711   4.102   3.819   7.477 -1.6411 -3.4368  0.5817
   75SLPC   C28 6712   4.220   3.767   7.650 -0.1631  0.3150  0.3605
   75SLPC   H8R 6713   4.319   3.717   7.660 -0.7085 -0.6694  0.9667
   75SLPC   H8S 6714   4.150   3.699   7.702  0.2337  0.3067  0.8928
   75SLPC   C29 6715   4.223   3.909   7.699  0.2254  0.5203 -1.1857
   75SLPC   H9R 6716   4.277   3.985   7.641  1.1914  1.0305  0.3094
   75SLPC  C210 6717   4.188   3.942   7.823 -0.3444  0.1550  0.4723
   75SLPC  H10R 6718   4.193   4.046   7.858 -1.6365 -0.2259  1.9084
   75SLPC  C211 6719   4.124   3.846   7.925  0.2147  0.3004  0.0908
   75SLPC  H11R 6720   4.186   3.754   7.931  0.4902  0.3943 -1.1676
   75SLPC  H11S 6721   4.027   3.809   7.886 -0.1392  0.3108  0.9248
   75SLPC  C212 6722   4.101   3.900   8.062  0.3142 -0.4981 -0.2141
   75SLPC  H12R 6723   4.156   3.992   8.085 -2.1559  1.0490 -0.0532
   75SLPC  C213 6724   4.035   3.834   8.155 -0.4919 -0.0975 -0.2706
   75SLPC  H13R 6725   4.024   3.876   8.257  0.1765 -2.6549  0.9394
   75SLPC  C214 6726   3.965   3.703   8.135  0.3517 -0.3060 -0.4209
   75SLPC  H14R 6727   4.030   3.636   8.075  1.4380 -0.8073  1.2618
   75SLPC  H14S 6728   3.876   3.706   8.068  0.1670 -0.9254 -0.2100
   75SLPC  C215 6729   3.934   3.633   8.264 -0.0616  0.5601 -0.1933
   75SLPC  H15R 6730   3.868   3.695   8.328 -0.3625 -0.4376  0.5006
   75SLPC  H15S 6731   4.025   3.602   8.321  0.0878  0.8186 -0.2945
   75SLPC  C216 6732   3.847   3.510   8.254  0.1225  0.4145  0.1252
   75SLPC  H16R 6733   3.887   3.440   8.177  0.0178 -2.3866  2.4469
   75SLPC  H16S 6734   3.740   3.529   8.230  0.1547  1.1440  0.5384
   75SLPC  C217 6735   3.838   3.419   8.380  0.0682 -0.4496 -0.4316
   75SLPC  H17R 6736   3.806   3.485   8.464  0.1042  0.3263 -1.0154
   75SLPC  H17S 6737   3.945   3.394   8.394  0.0812 -2.2449 -3.1144
   75SLPC  C218 6738   3.765   3.284   8.376 -0.5239 -0.2245 -0.6718
   75SLPC  H18R 6739   3.674   3.293   8.439  0.6411  1.4764  0.8735
   75SLPC  H18S 6740   3.828   3.205   8.424  0.8106  2.1367  1.7345
   75SLPC  H18T 6741   3.736   3.260   8.272 -1.0389  1.5842 -0.9758
   75SLPC   C33 6742   4.873   3.880   7.318 -0.2002  0.0350 -0.4043
   75SLPC   H3X 6743   4.928   3.835   7.404 -0.5916 -3.0309 -1.6262
   75SLPC   H3Y 6744   4.902   3.987   7.312 -0.4520  0.0631 -1.2951
   75SLPC   C34 6745   4.727   3.861   7.348 -0.1388 -0.5315  0.5329
   75SLPC   H4X 6746   4.694   3.755   7.342  1.0481 -0.8878  0.0882
   75SLPC   H4Y 6747   4.673   3.915   7.267  1.1399  0.9912  0.6521
   75SLPC   C35 6748   4.697   3.914   7.487  0.3594 -0.3377 -0.6022
   75SLPC   H5X 6749   4.587   3.928   7.495  0.5256  0.5552  0.4318
   75SLPC   H5Y 6750   4.755   4.009   7.496 -2.3383  1.3062  0.4198
   75SLPC   C36 6751   4.727   3.823   7.606  0.6128  0.4705  0.7358
   75SLPC   H6X 6752   4.832   3.830   7.640  0.0832 -1.1045  2.9242
   75SLPC   H6Y 6753   4.707   3.721   7.566  1.7993  0.3736  0.3695
   75SLPC   C37 6754   4.643   3.861   7.721  0.6674 -0.4868  0.2700
   75SLPC   H7X 6755   4.539   3.870   7.683  0.3944  2.0020  1.4115
   75SLPC   H7Y 6756   4.671   3.957   7.769  1.9498 -0.8239  0.2344
   75SLPC   C38 6757   4.638   3.761   7.830 -0.1105  0.0809  0.0701
   75SLPC   H8X 6758   4.741   3.754   7.870 -1.0298 -1.7685  2.3342
   75SLPC   H8Y 6759   4.610   3.661   7.790  0.5120 -0.8341  1.8148
   75SLPC   C39 6760   4.541   3.808   7.939  0.3019 -0.3823 -0.1091
   75SLPC   H9X 6761   4.437   3.795   7.904  0.2991  1.2917 -0.8111
   75SLPC   H9Y 6762   4.567   3.913   7.966  3.0327 -1.3224  1.3857
   75SLPC  C310 6763   4.562   3.738   8.070  0.1929  0.1518  0.8765
   75SLPC  H10X 6764   4.666   3.756   8.105  0.7641 -2.0313  0.4721
   75SLPC  H10Y 6765   4.552   3.627   8.063  0.7902  0.0533  1.4585
   75SLPC  C311 6766   4.482   3.784   8.195 -0.1935  0.2593  0.2000
   75SLPC  H11X 6767   4.382   3.737   8.180 -0.6748  0.9217  1.2613
   75SLPC  H11Y 6768   4.467   3.894   8.196  1.8901  0.5879  0.2105
   75SLPC  C312 6769   4.529   3.743   8.334  0.9870  0.0877 -0.0286
   75SLPC  H12X 6770   4.448   3.776   8.402 -0.0440  3.3569 -2.5802
   75SLPC  H12Y 6771   4.630   3.788   8.352  1.5180 -0.4629 -1.4868
   75SLPC  C313 6772   4.528   3.591   8.347 -0.2846  0.4715 -0.4703
   75SLPC  H13X 6773   4.595   3.565   8.432 -1.9712 -1.5503  0.3193
   75SLPC  H13Y 6774   4.583   3.552   8.259 -1.4306  2.9274 -2.3908
   75SLPC  C314 6775   4.394   3.515   8.367 -0.3983 -0.1146 -0.5245
   75SLPC  H14X 6776   4.334   3.522   8.274  0.0539 -0.9394 -0.8986
   75SLPC  H14Y 6777   4.353   3.559   8.460  2.0404 -0.9748  1.0727
   75SLPC  C315 6778   4.410   3.363   8.398  0.4973 -0.2194 -0.3351
   75SLPC  H15X 6779   4.484   3.358   8.482  1.0261  0.4437 -0.7437
   75SLPC  H15Y 6780   4.453   3.305   8.314 -0.9975 -3.2380  0.8643
   75SLPC  C316 6781   4.273   3.304   8.431  0.1660 -0.0165  0.3266
   75SLPC  H16X 6782   4.214   3.285   8.338  0.8357 -2.4838  0.3292
   75SLPC  H16Y 6783   4.211   3.373   8.491  1.6902  1.2394  0.5091
   75SLPC  C317 6784   4.262   3.167   8.500  0.1105  0.7248 -0.0974
   75SLPC  H17X 6785   4.312   3.168   8.599 -1.3718 -1.2244  0.7313
   75SLPC  H17Y 6786   4.320   3.093   8.440 -0.6029 -0.4196  0.5795
   75SLPC  C318 6787   4.117   3.120   8.509 -0.7345 -0.0394 -0.4532
   75SLPC  H18X 6788   4.043   3.148   8.431 -0.7026 -0.7389 -0.7456
   75SLPC  H18Y 6789   4.081   3.163   8.604 -1.5934  0.0801 -0.8199
   75SLPC  H18Z 6790   4.107   3.009   8.517 -1.5382  0.0895  0.5584
   76SLPC     N 6791   0.619   1.109   5.844 -0.0027 -0.0420 -0.0168
   76SLPC   C13 6792   0.534   1.199   5.765  0.3374  0.7264  0.3470
   76SLPC  H13A 6793   0.429   1.177   5.779  0.5565  0.2409  1.3153
   76SLPC  H13B 6794   0.545   1.303   5.792  0.4803  1.0761 -0.9833
   76SLPC  H13C 6795   0.573   1.193   5.664 -0.0451  0.0915  0.2239
   76SLPC   C14 6796   0.751   1.173   5.851  0.1640 -0.3034 -0.2103
   76SLPC  H14A 6797   0.784   1.195   5.750  2.5154  1.0470  0.7827
   76SLPC  H14B 6798   0.738   1.270   5.895 -1.2315 -0.4528 -0.2617
   76SLPC  H14C 6799   0.827   1.110   5.895  0.2176  0.2463  0.4976
   76SLPC   C15 6800   0.631   0.982   5.772 -0.0798  0.1180  0.1962
   76SLPC  H15A 6801   0.668   1.002   5.673 -0.8491 -0.5873 -0.2418
   76SLPC  H15B 6802   0.697   0.915   5.826  0.5902  0.4229 -0.2306
   76SLPC  H15C 6803   0.533   0.941   5.752 -0.2586  0.8120 -0.3831
   76SLPC   C12 6804   0.554   1.090   5.981  0.2059  0.6687  0.6524
   76SLPC  H12A 6805   0.622   1.029   6.040 -0.5958 -0.8747  0.0335
   76SLPC  H12B 6806   0.474   1.020   5.963  2.0610 -1.3999  0.0284
   76SLPC   C11 6807   0.499   1.208   6.059 -0.2142 -0.4377  0.0303
   76SLPC  H11A 6808   0.462   1.166   6.155  0.3566 -0.3919  0.2753
   76SLPC  H11B 6809   0.409   1.251   6.009  0.4582  1.7135  0.5306
   76SLPC     P 6810   0.722   1.307   6.170 -0.2224 -0.4198  0.4288
   76SLPC   O13 6811   0.716   1.196   6.269 -0.0365 -0.2394  0.2454
   76SLPC   O14 6812   0.849   1.326   6.096 -0.1690  0.1526 -1.2534
   76SLPC   O12 6813   0.591   1.318   6.078  0.0449  0.0198 -0.4157
   76SLPC   O11 6814   0.716   1.440   6.250  0.6787 -0.4055 -0.1243
   76SLPC    C1 6815   0.628   1.438   6.365  0.7365  0.3640 -1.1519
   76SLPC    HA 6816   0.576   1.536   6.372  2.7326  1.3623  1.6282
   76SLPC    HB 6817   0.561   1.350   6.370  0.8434  0.3193 -0.4244
   76SLPC    C2 6818   0.698   1.437   6.509 -0.2317 -0.5795  0.5894
   76SLPC    HS 6819   0.798   1.486   6.498 -0.8362  0.0953 -3.3298
   76SLPC   O21 6820   0.711   1.299   6.555  0.0679  0.6385  0.6357
   76SLPC   C21 6821   0.816   1.266   6.634  0.9098 -0.0585  0.7331
   76SLPC   O22 6822   0.908   1.340   6.655  0.0547  0.1544 -0.1689
   76SLPC   C22 6823   0.803   1.121   6.698 -0.3850 -0.3643  0.0527
   76SLPC   H2R 6824   0.704   1.081   6.667 -0.6727 -2.3332  3.0907
   76SLPC   H2S 6825   0.879   1.062   6.642 -1.1430  0.0760 -1.4993
   76SLPC    C3 6826   0.615   1.518   6.610  0.2845 -0.1032 -0.6216
   76SLPC    HX 6827   0.513   1.474   6.603  0.0686  0.3122 -0.1518
   76SLPC    HY 6828   0.613   1.624   6.578 -2.8337 -0.4043 -1.8076
   76SLPC   O31 6829   0.667   1.495   6.744 -0.0591  0.2069  0.2959
   76SLPC   C31 6830   0.756   1.576   6.791 -0.5534  0.5686 -0.5810
   76SLPC   O32 6831   0.799   1.678   6.738 -0.2622 -0.3172 -0.7014
   76SLPC   C32 6832   0.797   1.538   6.934  0.6229  0.0016  0.2806
   76SLPC   H2X 6833   0.903   1.569   6.942  0.9889 -0.9217 -0.6975
   76SLPC   H2Y 6834   0.805   1.427   6.943  0.5771  0.0895  1.6351
   76SLPC   C23 6835   0.827   1.105   6.853 -0.7157 -0.8924  0.1380
   76SLPC   H3R 6836   0.787   1.011   6.897  1.4173 -1.7261  0.4058
   76SLPC   H3S 6837   0.777   1.190   6.904  2.3647  0.4284  1.1742
   76SLPC   C24 6838   0.977   1.111   6.889  0.9513  0.3764 -0.3499
   76SLPC   H4R 6839   1.030   1.185   6.825  0.0630 -0.8855 -2.6849
   76SLPC   H4S 6840   1.015   1.009   6.864  3.2121  0.9037  0.6899
   76SLPC   C25 6841   0.992   1.135   7.041 -0.0757 -0.7945 -0.1202
   76SLPC   H5R 6842   0.925   1.221   7.065  1.4312  0.4166 -0.0867
   76SLPC   H5S 6843   1.094   1.174   7.060 -0.3615 -0.6510  1.2451
   76SLPC   C26 6844   0.971   1.017   7.130  0.0559 -0.3076  0.2373
   76SLPC   H6R 6845   1.045   0.940   7.102 -1.2660 -1.6339  0.2447
   76SLPC   H6S 6846   0.877   0.963   7.105  0.0072  1.3808 -4.0827
   76SLPC   C27 6847   0.964   1.053   7.283  0.5539  0.1529  0.2039
   76SLPC   H7R 6848   0.883   1.127   7.298  2.1185  1.5313  2.4538
   76SLPC   H7S 6849   1.070   1.082   7.299  0.7908 -1.0048  0.8017
   76SLPC   C28 6850   0.938   0.930   7.371  0.5574  0.0974 -0.0510
   76SLPC   H8R 6851   0.842   0.887   7.336 -0.7079  3.1637 -0.6375
   76SLPC   H8S 6852   1.013   0.849   7.355  1.1081  0.3840  1.0202
   76SLPC   C29 6853   0.925   0.972   7.514  0.1126 -0.5730 -0.0760
   76SLPC   H9R 6854   0.826   1.013   7.540  0.1891 -0.2106 -0.3414
   76SLPC  C210 6855   1.024   0.990   7.601 -0.5851 -0.0531  0.3770
   76SLPC  H10R 6856   0.991   1.028   7.699 -1.5631  1.6132 -0.5491
   76SLPC  C211 6857   1.169   0.964   7.584  0.2242 -0.6025  0.3933
   76SLPC  H11R 6858   1.222   1.055   7.619  0.0927 -0.9161  1.4531
   76SLPC  H11S 6859   1.192   0.940   7.478  0.4559 -0.9484  0.5197
   76SLPC  C212 6860   1.209   0.846   7.671  0.1384  0.2782  0.3266
   76SLPC  H12R 6861   1.132   0.771   7.696  2.2229 -1.6421  1.3916
   76SLPC  C213 6862   1.326   0.817   7.720 -1.1526 -0.5926  0.0789
   76SLPC  H13R 6863   1.338   0.729   7.786  1.8355 -1.2065 -1.1477
   76SLPC  C214 6864   1.459   0.891   7.704 -0.0223  0.6688 -0.1228
   76SLPC  H14R 6865   1.452   0.967   7.623  1.1068 -0.2440 -1.1291
   76SLPC  H14S 6866   1.531   0.815   7.668 -0.0856  0.2419  0.6286
   76SLPC  C215 6867   1.507   0.961   7.833  0.2156  0.4662  0.5863
   76SLPC  H15R 6868   1.419   1.027   7.851  1.2409  2.4256 -1.2035
   76SLPC  H15S 6869   1.587   1.034   7.808  0.1516 -0.0240 -1.1531
   76SLPC  C216 6870   1.552   0.873   7.947 -0.0959  0.2003 -0.0772
   76SLPC  H16R 6871   1.642   0.814   7.921 -0.5906  0.1171 -1.7042
   76SLPC  H16S 6872   1.470   0.805   7.980 -1.5686  1.8593 -0.1424
   76SLPC  C217 6873   1.581   0.956   8.070  0.2042 -0.4039 -0.2866
   76SLPC  H17R 6874   1.578   0.897   8.164 -2.8520  0.2473  0.1324
   76SLPC  H17S 6875   1.491   1.021   8.073  0.3522 -0.2047 -0.0834
   76SLPC  C218 6876   1.712   1.038   8.057 -0.1620  0.2418  0.1964
   76SLPC  H18R 6877   1.704   1.126   7.990 -1.1522  0.8217  1.0471
   76SLPC  H18S 6878   1.785   0.960   8.027 -0.5269  0.8161 -2.4025
   76SLPC  H18T 6879   1.753   1.078   8.152 -0.2402  2.2132 -0.5490
   76SLPC   C33 6880   0.712   1.607   7.037  0.7120 -0.8568  0.7350
   76SLPC   H3X 6881   0.604   1.607   7.009  1.0867 -0.0103 -0.7918
   76SLPC   H3Y 6882   0.744   1.714   7.036  0.6915 -0.8361  1.5547
   76SLPC   C34 6883   0.733   1.553   7.179  0.3203 -0.4837  0.0030
   76SLPC   H4X 6884   0.673   1.463   7.202  0.1007 -0.5001 -0.6242
   76SLPC   H4Y 6885   0.695   1.628   7.252 -2.3927  0.2313 -2.0135
   76SLPC   C35 6886   0.881   1.520   7.210  0.4481 -0.3057  0.8010
   76SLPC   H5X 6887   0.955   1.601   7.191  1.5026 -1.8166 -2.1713
   76SLPC   H5Y 6888   0.911   1.437   7.143  1.1110 -1.5099  2.5273
   76SLPC   C36 6889   0.908   1.467   7.350 -0.1212  0.0633 -0.3960
   76SLPC   H6X 6890   1.017   1.464   7.367 -0.4986 -0.8002  2.3257
   76SLPC   H6Y 6891   0.869   1.364   7.365  1.6136 -0.5084  0.4138
   76SLPC   C37 6892   0.840   1.539   7.466 -0.2377 -0.2199 -0.7717
   76SLPC   H7X 6893   0.730   1.523   7.475 -0.1533 -1.6817 -2.0745
   76SLPC   H7Y 6894   0.842   1.650   7.465 -0.3907  0.1672  4.9254
   76SLPC   C38 6895   0.891   1.494   7.603 -0.6972  0.5057 -0.3439
   76SLPC   H8X 6896   1.002   1.493   7.600 -0.6294  0.8309  1.2034
   76SLPC   H8Y 6897   0.857   1.390   7.621 -0.1280  0.6199  1.6122
   76SLPC   C39 6898   0.838   1.589   7.713  0.1204 -0.3006  0.0809
   76SLPC   H9X 6899   0.728   1.596   7.719  0.1816  0.9706 -0.0877
   76SLPC   H9Y 6900   0.893   1.682   7.688  1.2552 -1.0627 -0.3779
   76SLPC  C310 6901   0.882   1.552   7.858  0.2461  0.0710  0.3504
   76SLPC  H10X 6902   0.861   1.631   7.934  0.7267 -0.3708  0.9559
   76SLPC  H10Y 6903   0.993   1.551   7.853  0.2697  0.5560  0.6692
   76SLPC  C311 6904   0.838   1.413   7.914 -0.9222 -0.1829 -0.0992
   76SLPC  H11X 6905   0.744   1.379   7.866 -0.7243 -0.1637 -0.5082
   76SLPC  H11Y 6906   0.817   1.436   8.020  1.3774  2.1241 -0.0299
   76SLPC  C312 6907   0.956   1.307   7.920  0.4466  0.0871 -0.0805
   76SLPC  H12X 6908   1.055   1.345   7.952  0.3367  0.9722 -0.7353
   76SLPC  H12Y 6909   0.970   1.281   7.813 -0.1554 -0.6506  0.0140
   76SLPC  C313 6910   0.913   1.173   7.989 -0.0319  0.7487 -0.3672
   76SLPC  H13X 6911   0.831   1.135   7.925  2.2245 -0.8261 -2.5089
   76SLPC  H13Y 6912   0.863   1.196   8.086  0.2514 -1.3112  0.3042
   76SLPC  C314 6913   1.021   1.062   7.997 -0.1560  0.4151  0.1741
   76SLPC  H14X 6914   1.051   1.035   7.893 -1.1612  0.5873 -0.1723
   76SLPC  H14Y 6915   0.974   0.972   8.042 -2.1923  0.1234 -2.2691
   76SLPC  C315 6916   1.142   1.094   8.091 -0.4640  0.1923  0.0455
   76SLPC  H15X 6917   1.209   1.167   8.041  0.9102 -1.6683 -0.9560
   76SLPC  H15Y 6918   1.189   0.996   8.112  0.7178  1.0216  1.5241
   76SLPC  C316 6919   1.098   1.164   8.223  0.1017  0.7881 -0.2945
   76SLPC  H16X 6920   1.071   1.267   8.195 -1.8932  0.0296 -1.3273
   76SLPC  H16Y 6921   1.192   1.182   8.281 -0.8044  2.3902  0.7249
   76SLPC  C317 6922   0.998   1.087   8.308  0.2701  0.2036 -0.2568
   76SLPC  H17X 6923   1.038   0.990   8.342  1.9037  0.9618  0.0466
   76SLPC  H17Y 6924   0.907   1.066   8.248 -0.3578 -2.6791  1.5143
   76SLPC  C318 6925   0.956   1.165   8.434  0.2848 -0.0857  1.0044
   76SLPC  H18X 6926   0.846   1.167   8.453  0.4137 -2.0225  2.2537
   76SLPC  H18Y 6927   0.989   1.269   8.414 -1.7383  0.5175  0.5221
   76SLPC  H18Z 6928   1.001   1.123   8.526  0.4207 -0.0042  0.9735
   77SLPC     N 6929   3.826   0.767   6.679 -0.3385 -0.2902  0.0849
   77SLPC   C13 6930   3.847   0.663   6.782  0.8004 -0.4907 -0.0362
   77SLPC  H13A 6931   3.882   0.715   6.870  1.0314 -0.7723  0.0420
   77SLPC  H13B 6932   3.752   0.618   6.805 -0.8656  2.8696  0.2746
   77SLPC  H13C 6933   3.920   0.589   6.751  0.2630 -0.7811 -0.6233
   77SLPC   C14 6934   3.717   0.851   6.727  0.9635 -0.4966 -0.2644
   77SLPC  H14A 6935   3.739   0.881   6.828  0.9707 -2.0780  0.2242
   77SLPC  H14B 6936   3.697   0.939   6.667  1.0294 -0.4757 -0.2554
   77SLPC  H14C 6937   3.624   0.796   6.724 -0.2946  1.4488  0.9620
   77SLPC   C15 6938   3.794   0.705   6.551 -1.0038  0.3825 -0.5422
   77SLPC  H15A 6939   3.708   0.648   6.583  0.4601 -2.3351 -1.0517
   77SLPC  H15B 6940   3.772   0.777   6.474  0.1594  0.9585 -0.3556
   77SLPC  H15C 6941   3.872   0.635   6.525 -1.3118 -0.2795  0.2762
   77SLPC   C12 6942   3.960   0.847   6.675 -0.0559 -0.1492 -0.4411
   77SLPC  H12A 6943   4.046   0.784   6.664  0.6382  0.5738  0.7099
   77SLPC  H12B 6944   3.975   0.893   6.771 -4.1530 -1.1582  0.9023
   77SLPC   C11 6945   3.965   0.959   6.568 -0.5602 -0.4583 -0.5387
   77SLPC  H11A 6946   3.974   1.050   6.631 -0.4661 -1.8244  1.5288
   77SLPC  H11B 6947   3.875   0.965   6.503 -0.4715  1.1923 -0.5620
   77SLPC     P 6948   4.222   0.995   6.548 -0.0806  0.1015 -0.7557
   77SLPC   O13 6949   4.334   0.925   6.488  0.1528 -0.5321 -0.0721
   77SLPC   O14 6950   4.213   1.141   6.524 -0.1360  0.3827  0.5180
   77SLPC   O12 6951   4.083   0.930   6.501  0.2440 -0.0510 -0.0161
   77SLPC   O11 6952   4.223   0.964   6.705  0.2655 -0.2443  0.1133
   77SLPC    C1 6953   4.313   0.865   6.754  0.1327  0.4051  0.5441
   77SLPC    HA 6954   4.302   0.767   6.702 -1.7670  1.5656 -1.4067
   77SLPC    HB 6955   4.417   0.898   6.732  0.7992 -1.0750  1.3393
   77SLPC    C2 6956   4.291   0.844   6.904 -0.3291 -0.2081  0.6533
   77SLPC    HS 6957   4.196   0.787   6.911 -0.1627 -0.7011 -0.7510
   77SLPC   O21 6958   4.279   0.963   6.978 -0.2551  0.0485  0.1552
   77SLPC   C21 6959   4.169   1.037   6.973 -1.2461  0.2355  0.1210
   77SLPC   O22 6960   4.057   1.000   6.941  0.4222  0.2639  0.0253
   77SLPC   C22 6961   4.190   1.173   7.049 -0.4326  0.5621 -0.9361
   77SLPC   H2R 6962   4.244   1.228   6.969  0.7080 -0.7338 -1.0828
   77SLPC   H2S 6963   4.094   1.228   7.058 -0.2137  0.7825  0.2030
   77SLPC    C3 6964   4.397   0.746   6.969  0.4233  0.4534 -1.1597
   77SLPC    HX 6965   4.497   0.793   6.957  1.3939 -1.5129 -1.1066
   77SLPC    HY 6966   4.381   0.652   6.912  1.0518  0.6117 -1.6082
   77SLPC   O31 6967   4.362   0.740   7.112 -0.4825 -0.0516 -0.1271
   77SLPC   C31 6968   4.262   0.663   7.145 -0.0998  0.1799 -0.1163
   77SLPC   O32 6969   4.213   0.577   7.074 -0.1619  0.2667  0.1619
   77SLPC   C32 6970   4.211   0.693   7.284 -0.2782  0.0410 -0.1874
   77SLPC   H2X 6971   4.272   0.639   7.360 -0.2719 -1.9610 -1.5369
   77SLPC   H2Y 6972   4.108   0.651   7.288 -0.9204  1.5507 -0.1877
   77SLPC   C23 6973   4.243   1.152   7.194  0.1424 -0.5409  0.2006
   77SLPC   H3R 6974   4.339   1.097   7.202  0.0850 -0.4919  1.3113
   77SLPC   H3S 6975   4.163   1.104   7.254 -1.3578  1.9399  0.3455
   77SLPC   C24 6976   4.250   1.291   7.266 -0.3363  0.2603  0.0446
   77SLPC   H4R 6977   4.161   1.354   7.241 -0.7017  0.5550  1.9727
   77SLPC   H4S 6978   4.342   1.344   7.234  0.6892 -1.1888  0.4903
   77SLPC   C25 6979   4.254   1.271   7.421 -0.3000  0.3431  0.4514
   77SLPC   H5R 6980   4.325   1.192   7.454  1.0597  1.3377 -0.0042
   77SLPC   H5S 6981   4.160   1.232   7.465 -0.0508 -1.7798 -0.7465
   77SLPC   C26 6982   4.283   1.398   7.499 -0.5623 -0.1989  0.0983
   77SLPC   H6R 6983   4.202   1.473   7.503 -0.5797  0.0683 -3.1622
   77SLPC   H6S 6984   4.356   1.453   7.436 -0.0824  1.0964  1.7092
   77SLPC   C27 6985   4.349   1.378   7.640 -0.0094 -0.1144  0.0158
   77SLPC   H7R 6986   4.411   1.466   7.665 -1.3681  0.6074  0.9566
   77SLPC   H7S 6987   4.411   1.287   7.626  0.9854  0.3933  1.0260
   77SLPC   C28 6988   4.253   1.358   7.755 -0.2807  0.0110 -0.5560
   77SLPC   H8R 6989   4.311   1.328   7.845  1.1609  1.3180 -1.0111
   77SLPC   H8S 6990   4.194   1.266   7.732 -1.0501 -0.0875  1.5705
   77SLPC   C29 6991   4.160   1.469   7.783 -0.5694 -0.0805  0.5366
   77SLPC   H9R 6992   4.077   1.474   7.711 -0.6672 -0.2486  0.6353
   77SLPC  C210 6993   4.167   1.576   7.870 -0.3524 -0.3565  0.6211
   77SLPC  H10R 6994   4.084   1.647   7.855 -1.3166 -1.6197 -0.2328
   77SLPC  C211 6995   4.277   1.602   7.968  0.0386 -0.1612 -0.5713
   77SLPC  H11R 6996   4.360   1.649   7.911 -0.6330 -0.3902 -1.7515
   77SLPC  H11S 6997   4.310   1.500   7.995  0.2897  0.5946  2.3834
   77SLPC  C212 6998   4.233   1.678   8.093 -0.2780 -0.2832  0.7454
   77SLPC  H12R 6999   4.197   1.779   8.070  0.0058 -0.6860 -1.8341
   77SLPC  C213 7000   4.243   1.646   8.222  0.4958  0.4890 -0.2338
   77SLPC  H13R 7001   4.208   1.726   8.289 -2.1004  1.1210 -2.1735
   77SLPC  C214 7002   4.294   1.520   8.283  0.4068 -0.3434  0.6601
   77SLPC  H14R 7003   4.304   1.436   8.210  0.3268  0.9336 -0.8820
   77SLPC  H14S 7004   4.221   1.496   8.362 -0.1247 -1.1808 -0.0624
   77SLPC  C215 7005   4.434   1.534   8.350  0.2204  0.1204  0.6564
   77SLPC  H15R 7006   4.430   1.477   8.445 -0.2084 -0.7997  0.0989
   77SLPC  H15S 7007   4.461   1.636   8.384  0.9283 -0.4733  1.9805
   77SLPC  C216 7008   4.559   1.476   8.289  0.2608  0.6154  0.0344
   77SLPC  H16R 7009   4.566   1.501   8.181 -1.5476  1.1230 -0.0086
   77SLPC  H16S 7010   4.544   1.367   8.308 -0.1127  1.1953  3.6666
   77SLPC  C217 7011   4.686   1.509   8.359  0.4832  0.2030 -0.0183
   77SLPC  H17R 7012   4.658   1.542   8.461  2.1730  2.5364 -0.2345
   77SLPC  H17S 7013   4.721   1.604   8.313  2.3083  0.0067  0.8807
   77SLPC  C218 7014   4.788   1.401   8.348 -0.2012 -0.6312  0.3084
   77SLPC  H18R 7015   4.872   1.431   8.414  0.6805 -0.2764 -0.9494
   77SLPC  H18S 7016   4.813   1.388   8.241  0.9452  0.8125  0.3651
   77SLPC  H18T 7017   4.771   1.301   8.394  3.0976 -1.1910  0.6008
   77SLPC   C33 7018   4.213   0.843   7.311  0.6532 -0.0806  0.6343
   77SLPC   H3X 7019   4.151   0.884   7.229 -0.3997 -0.4048  1.2484
   77SLPC   H3Y 7020   4.322   0.866   7.304  0.5999 -0.3012 -1.4713
   77SLPC   C34 7021   4.145   0.888   7.439  0.2563 -0.2927 -0.5185
   77SLPC   H4X 7022   4.038   0.858   7.448 -0.0786  1.1627  0.6006
   77SLPC   H4Y 7023   4.145   0.999   7.438  0.8773 -0.2884 -0.4808
   77SLPC   C35 7024   4.214   0.857   7.568 -0.3186 -0.0837 -0.8079
   77SLPC   H5X 7025   4.315   0.905   7.568 -1.7578  3.2404 -0.7829
   77SLPC   H5Y 7026   4.213   0.751   7.601 -1.6487  0.4275  0.9397
   77SLPC   C36 7027   4.153   0.924   7.688 -0.3674  0.7699  0.1755
   77SLPC   H6X 7028   4.052   0.885   7.711  0.7248 -0.8815  2.5943
   77SLPC   H6Y 7029   4.143   1.031   7.657 -0.8789  0.5864 -0.3004
   77SLPC   C37 7030   4.241   0.919   7.810  0.4436 -0.3848 -0.0893
   77SLPC   H7X 7031   4.338   0.968   7.789  0.0687  1.1749  1.5912
   77SLPC   H7Y 7032   4.268   0.817   7.845 -0.6588 -1.1681 -1.4274
   77SLPC   C38 7033   4.193   0.998   7.924  0.2878 -0.4131  0.0122
   77SLPC   H8X 7034   4.097   0.955   7.958  1.6416 -2.8404  0.9894
   77SLPC   H8Y 7035   4.169   1.105   7.904 -1.0162 -0.0373  3.0477
   77SLPC   C39 7036   4.297   1.002   8.036 -0.2596  0.6518 -0.3212
   77SLPC   H9X 7037   4.390   1.033   7.985  0.1644  0.0661  0.0862
   77SLPC   H9Y 7038   4.308   0.900   8.079  0.4960  0.2982 -1.3179
   77SLPC  C310 7039   4.265   1.085   8.160 -0.9131 -1.1785  0.2804
   77SLPC  H10X 7040   4.157   1.110   8.150 -0.3874  0.9344 -0.7583
   77SLPC  H10Y 7041   4.336   1.167   8.136 -0.2459 -2.1291 -1.1302
   77SLPC  C311 7042   4.304   1.021   8.289 -0.3207 -1.1128  0.2091
   77SLPC  H11X 7043   4.413   1.001   8.280 -0.1878 -0.7838  1.0086
   77SLPC  H11Y 7044   4.245   0.927   8.290 -2.5592  0.2162 -0.1886
   77SLPC  C312 7045   4.286   1.123   8.402  0.2661 -0.4086  0.3900
   77SLPC  H12X 7046   4.364   1.199   8.417 -0.2425  0.2481 -0.2284
   77SLPC  H12Y 7047   4.287   1.060   8.494  0.6687  0.0031  0.6666
   77SLPC  C313 7048   4.160   1.209   8.414  0.1316  0.7406  0.2471
   77SLPC  H13X 7049   4.070   1.148   8.391  0.8754  0.1572 -1.2336
   77SLPC  H13Y 7050   4.161   1.283   8.332 -0.9149 -0.1837 -0.6216
   77SLPC  C314 7051   4.134   1.288   8.545  0.3946  0.7511  0.0520
   77SLPC  H14X 7052   4.213   1.366   8.550  0.6097  0.7140 -1.9160
   77SLPC  H14Y 7053   4.148   1.217   8.629  0.4229 -0.2885 -0.8126
   77SLPC  C315 7054   3.987   1.333   8.538  0.0937 -0.8705 -0.6857
   77SLPC  H15X 7055   3.917   1.268   8.596 -1.7211 -0.5202 -2.3667
   77SLPC  H15Y 7056   3.950   1.349   8.434 -1.3298  0.7259  0.0078
   77SLPC  C316 7057   3.983   1.476   8.603  0.2416  0.1452  0.5946
   77SLPC  H16X 7058   4.035   1.552   8.541 -0.8706  1.0390  0.7450
   77SLPC  H16Y 7059   4.039   1.463   8.699 -1.9065 -0.3055  1.8484
   77SLPC  C317 7060   3.842   1.521   8.631  0.1150  0.3532  0.6194
   77SLPC  H17X 7061   3.797   1.457   8.710  1.2144  0.5030  1.3885
   77SLPC  H17Y 7062   3.776   1.502   8.543  1.1512  0.7431 -0.2567
   77SLPC  C318 7063   3.829   1.670   8.672  0.9197  0.1540 -0.4942
   77SLPC  H18X 7064   3.869   1.700   8.771 -0.0541 -0.1802  0.0163
   77SLPC  H18Y 7065   3.722   1.698   8.681  0.6187 -1.4840  1.8696
   77SLPC  H18Z 7066   3.868   1.733   8.589  2.0705 -0.0322 -0.1122
   78SLPC     N 7067   4.885   2.698   6.386 -0.3449 -0.1455 -0.5535
   78SLPC   C13 7068   4.865   2.814   6.491 -0.3803  0.7599 -0.5265
   78SLPC  H13A 7069   4.847   2.771   6.588 -1.3280 -0.1970 -1.1034
   78SLPC  H13B 7070   4.953   2.877   6.498  0.3693 -0.3850  0.7944
   78SLPC  H13C 7071   4.778   2.871   6.464 -0.4000  0.4306 -1.1778
   78SLPC   C14 7072   4.748   2.629   6.372  0.2691 -0.1848  0.0639
   78SLPC  H14A 7073   4.715   2.607   6.473  1.1769  1.7552  0.8309
   78SLPC  H14B 7074   4.681   2.692   6.317  0.7267 -1.3461 -1.9014
   78SLPC  H14C 7075   4.763   2.533   6.324  0.7123  0.0855 -0.3403
   78SLPC   C15 7076   4.984   2.597   6.440 -0.1166  0.1861  0.1020
   78SLPC  H15A 7077   4.970   2.562   6.541  1.8554 -0.7479  0.0845
   78SLPC  H15B 7078   4.990   2.509   6.379  1.7155  0.1676  0.2524
   78SLPC  H15C 7079   5.087   2.627   6.453  0.7505 -2.0040 -1.1158
   78SLPC   C12 7080   4.919   2.759   6.253  0.3126  0.5697  0.1613
   78SLPC  H12A 7081   4.837   2.819   6.217  0.4222  0.0565 -0.9837
   78SLPC  H12B 7082   4.928   2.686   6.175  2.5146  3.7016 -2.8378
   78SLPC   C11 7083   5.041   2.854   6.256  0.1330  0.6222 -0.2509
   78SLPC  H11A 7084   5.003   2.941   6.312 -3.0044  0.6408 -2.1641
   78SLPC  H11B 7085   5.052   2.890   6.152  0.6054  0.9533 -0.0903
   78SLPC     P 7086   5.264   2.714   6.219  0.1634 -0.0081 -0.2109
   78SLPC   O13 7087   5.231   2.567   6.209 -0.6090 -0.1007  0.3006
   78SLPC   O14 7088   5.269   2.786   6.090  0.0084 -0.4430  0.0328
   78SLPC   O12 7089   5.160   2.790   6.312  0.3738  0.1557 -0.6116
   78SLPC   O11 7090   5.403   2.732   6.296 -0.1433 -0.0746 -0.6618
   78SLPC    C1 7091   5.426   2.766   6.431 -0.2691  0.5221  0.4504
   78SLPC    HA 7092   5.532   2.800   6.439  0.6252 -1.6722 -0.9772
   78SLPC    HB 7093   5.359   2.845   6.472  0.4480  0.9056  0.9001
   78SLPC    C2 7094   5.413   2.638   6.520 -0.9158  0.1310  0.0216
   78SLPC    HS 7095   5.308   2.605   6.538 -0.2447 -1.4527  1.2745
   78SLPC   O21 7096   5.472   2.668   6.650  0.9915  0.3071  0.9560
   78SLPC   C21 7097   5.449   2.590   6.748  0.5802  0.5380  0.0391
   78SLPC   O22 7098   5.363   2.504   6.757  0.1598 -0.6394  0.1199
   78SLPC   C22 7099   5.550   2.616   6.851 -0.1106  0.0528 -0.0781
   78SLPC   H2R 7100   5.595   2.517   6.873  1.7240  1.4027  2.7853
   78SLPC   H2S 7101   5.621   2.694   6.813  0.3645  0.2509  1.1535
   78SLPC    C3 7102   5.491   2.517   6.463  0.5059  0.1320 -0.4928
   78SLPC    HX 7103   5.598   2.545   6.468  1.2525 -2.6729  2.0296
   78SLPC    HY 7104   5.460   2.505   6.357 -1.6971 -2.1488  0.2879
   78SLPC   O31 7105   5.470   2.391   6.534 -0.4932 -0.7266  0.1495
   78SLPC   C31 7106   5.524   2.285   6.474 -0.1403  0.2873  0.2770
   78SLPC   O32 7107   5.580   2.275   6.366 -0.3623 -0.2624 -0.0827
   78SLPC   C32 7108   5.491   2.165   6.555  0.0092 -0.2246  0.1930
   78SLPC   H2X 7109   5.478   2.079   6.486 -0.8987  1.3060 -1.6550
   78SLPC   H2Y 7110   5.386   2.183   6.587  0.1696 -0.3941  0.8269
   78SLPC   C23 7111   5.481   2.674   6.980 -0.0102  0.0626 -0.2122
   78SLPC   H3R 7112   5.403   2.612   7.029  1.1082 -0.2322  1.2543
   78SLPC   H3S 7113   5.443   2.776   6.956  0.4094  0.5220  0.9867
   78SLPC   C24 7114   5.585   2.690   7.092 -0.7161  0.1172 -0.0827
   78SLPC   H4R 7115   5.675   2.741   7.053 -1.2357  1.8738  0.8754
   78SLPC   H4S 7116   5.610   2.585   7.116 -1.3933  0.0291  0.2697
   78SLPC   C25 7117   5.538   2.755   7.221  0.1424 -0.2362  1.0211
   78SLPC   H5R 7118   5.430   2.738   7.242  0.5972 -3.5197  1.2098
   78SLPC   H5S 7119   5.553   2.863   7.197  0.6622  0.1013  2.6900
   78SLPC   C26 7120   5.610   2.711   7.346 -0.1721  0.2099  0.3433
   78SLPC   H6R 7121   5.719   2.700   7.328 -0.5464 -0.6788 -1.5986
   78SLPC   H6S 7122   5.557   2.617   7.373  0.8878 -0.9471 -1.4145
   78SLPC   C27 7123   5.586   2.810   7.461 -0.5070  0.3970 -0.4319
   78SLPC   H7R 7124   5.482   2.812   7.499 -0.0758  1.7346  0.7903
   78SLPC   H7S 7125   5.612   2.915   7.432 -0.1232  0.4889  0.2364
   78SLPC   C28 7126   5.670   2.773   7.588  0.4445  0.1200  0.3967
   78SLPC   H8R 7127   5.771   2.755   7.544  1.3617  2.8572  1.1791
   78SLPC   H8S 7128   5.641   2.675   7.632  2.7018 -0.6073  0.4379
   78SLPC   C29 7129   5.694   2.887   7.687 -0.3910  0.1352 -0.1063
   78SLPC   H9R 7130   5.749   2.977   7.659 -0.1952  0.5878  1.6236
   78SLPC  C210 7131   5.619   2.898   7.799 -0.3359 -0.4555  0.1579
   78SLPC  H10R 7132   5.624   2.986   7.864  1.5912 -0.4808  0.1087
   78SLPC  C211 7133   5.516   2.798   7.843  0.2564  0.0765  0.2853
   78SLPC  H11R 7134   5.451   2.758   7.763  0.3619  0.3398  0.0670
   78SLPC  H11S 7135   5.446   2.865   7.898 -0.2708 -0.7528  0.6330
   78SLPC  C212 7136   5.572   2.691   7.930 -0.4325 -0.3224 -0.4505
   78SLPC  H12R 7137   5.616   2.605   7.878  0.5335  0.7732 -1.5195
   78SLPC  C213 7138   5.574   2.694   8.070  0.2953 -0.4006  0.2741
   78SLPC  H13R 7139   5.608   2.603   8.121 -0.2591 -0.5751  0.3401
   78SLPC  C214 7140   5.538   2.809   8.156  0.3078 -0.5544 -0.9497
   78SLPC  H14R 7141   5.496   2.772   8.252  0.7027  0.4141 -0.3930
   78SLPC  H14S 7142   5.480   2.893   8.111  1.3415  0.8201  0.1839
   78SLPC  C215 7143   5.667   2.884   8.204 -0.1501 -0.3119 -1.2222
   78SLPC  H15R 7144   5.693   2.944   8.114 -1.8874  1.1410 -0.8208
   78SLPC  H15S 7145   5.743   2.808   8.228 -0.4199  0.0537  0.9831
   78SLPC  C216 7146   5.654   2.970   8.333  0.2305 -0.0446 -0.1684
   78SLPC  H16R 7147   5.634   2.907   8.422 -0.0642  0.0347 -0.1775
   78SLPC  H16S 7148   5.569   3.037   8.311 -0.5164 -0.7188  0.5909
   78SLPC  C217 7149   5.777   3.068   8.362  0.4354  0.6959 -0.1281
   78SLPC  H17R 7150   5.794   3.123   8.267  0.5667 -0.0356 -0.5317
   78SLPC  H17S 7151   5.859   3.000   8.393  0.7191  0.0987 -2.0621
   78SLPC  C218 7152   5.750   3.172   8.468  0.1246 -0.0847 -0.4915
   78SLPC  H18R 7153   5.732   3.122   8.566  0.4164 -0.1573 -0.4743
   78SLPC  H18S 7154   5.655   3.220   8.436  1.1742  1.1364 -1.8979
   78SLPC  H18T 7155   5.828   3.250   8.471  0.5749 -0.5354 -0.2070
   78SLPC   C33 7156   5.587   2.128   6.661 -0.3148  0.4252  0.4431
   78SLPC   H3X 7157   5.685   2.114   6.611 -0.0108 -0.9055  1.3647
   78SLPC   H3Y 7158   5.556   2.026   6.694  1.6650 -1.1233 -2.0374
   78SLPC   C34 7159   5.596   2.230   6.773 -0.4098 -0.1911 -0.0004
   78SLPC   H4X 7160   5.496   2.252   6.816  0.5702  3.5989  0.7133
   78SLPC   H4Y 7161   5.637   2.320   6.723  1.2519 -2.3220 -2.8410
   78SLPC   C35 7162   5.702   2.176   6.871  0.2461  0.3529  0.1994
   78SLPC   H5X 7163   5.793   2.133   6.824 -0.3708 -1.7357  0.8075
   78SLPC   H5Y 7164   5.650   2.092   6.922 -0.2796  1.1683  1.0173
   78SLPC   C36 7165   5.750   2.273   6.978  0.1352 -0.2480 -0.2837
   78SLPC   H6X 7166   5.664   2.306   7.041 -0.4697  2.2193 -2.2228
   78SLPC   H6Y 7167   5.804   2.362   6.940 -1.4612  0.6174 -0.6160
   78SLPC   C37 7168   5.845   2.208   7.080  0.2343 -0.3190 -0.2078
   78SLPC   H7X 7169   5.929   2.153   7.033  1.0839 -0.1999  1.1147
   78SLPC   H7Y 7170   5.781   2.133   7.133 -0.4555 -0.1037 -0.7321
   78SLPC   C38 7171   5.907   2.292   7.184 -0.1284 -0.2453  0.3997
   78SLPC   H8X 7172   5.826   2.366   7.205 -1.1353 -0.4889 -2.2081
   78SLPC   H8Y 7173   5.994   2.345   7.141 -1.6407  0.8746 -1.4604
   78SLPC   C39 7174   5.921   2.225   7.322  0.5002 -0.4114 -0.1836
   78SLPC   H9X 7175   6.012   2.162   7.327  2.8525  2.5840 -1.7503
   78SLPC   H9Y 7176   5.830   2.163   7.334 -0.8139  1.7699  2.2785
   78SLPC  C310 7177   5.920   2.328   7.430  0.5920 -0.2895 -0.0621
   78SLPC  H10X 7178   5.823   2.382   7.426  1.0799  0.5424 -1.5320
   78SLPC  H10Y 7179   5.997   2.404   7.402 -0.4164  0.1125 -1.9413
   78SLPC  C311 7180   5.926   2.265   7.568 -0.4127  0.2865  0.6894
   78SLPC  H11X 7181   5.992   2.176   7.568 -0.1369  0.4672 -0.9980
   78SLPC  H11Y 7182   5.827   2.217   7.586 -2.1233  3.1669 -0.2269
   78SLPC  C312 7183   5.943   2.367   7.682  0.1086  1.2930 -0.1010
   78SLPC  H12X 7184   5.871   2.451   7.674 -0.1821  1.1815  1.0644
   78SLPC  H12Y 7185   6.049   2.393   7.666  0.6672  1.7651  3.4633
   78SLPC  C313 7186   5.925   2.306   7.820 -0.2400  0.2023  0.4643
   78SLPC  H13X 7187   5.989   2.218   7.843  0.7577  0.6352 -0.5649
   78SLPC  H13Y 7188   5.819   2.273   7.818  0.0166 -0.6422 -0.0447
   78SLPC  C314 7189   5.948   2.397   7.938  0.7228 -0.3417 -0.1363
   78SLPC  H14X 7190   5.923   2.502   7.912  2.0884  0.0018 -0.0905
   78SLPC  H14Y 7191   6.058   2.402   7.943  0.8255  1.1422 -2.4842
   78SLPC  C315 7192   5.868   2.359   8.062 -0.0269  0.3486  0.5619
   78SLPC  H15X 7193   5.868   2.248   8.066 -2.4156  0.2955  0.6932
   78SLPC  H15Y 7194   5.762   2.392   8.050 -1.0338 -2.9152 -0.5578
   78SLPC  C316 7195   5.932   2.437   8.184  0.3209  0.1601 -0.1521
   78SLPC  H16X 7196   5.911   2.547   8.187  0.3722  0.1560  0.6973
   78SLPC  H16Y 7197   6.040   2.412   8.182 -0.1102 -1.9506  0.3383
   78SLPC  C317 7198   5.858   2.388   8.313  0.3595  0.3453  0.6673
   78SLPC  H17X 7199   5.852   2.277   8.323 -0.6031  0.1701 -1.3683
   78SLPC  H17Y 7200   5.757   2.431   8.297 -0.0286 -0.1890  1.6212
   78SLPC  C318 7201   5.926   2.438   8.445 -0.2201 -0.0379  0.6396
   78SLPC  H18X 7202   6.031   2.403   8.449 -0.2810 -0.1795  1.0673
   78SLPC  H18Y 7203   5.866   2.399   8.529 -1.6973 -0.9560 -0.7815
   78SLPC  H18Z 7204   5.926   2.549   8.449  1.1188  0.0536 -0.9655
   79SLPC     N 7205   1.049   5.012   5.987  0.0522  0.1842  0.1089
   79SLPC   C13 7206   1.172   4.947   6.039 -0.0895 -0.0115  0.0757
   79SLPC  H13A 7207   1.203   4.990   6.133  0.4860 -1.2038  0.4596
   79SLPC  H13B 7208   1.154   4.841   6.050 -2.1565  0.3128  0.2732
   79SLPC  H13C 7209   1.258   4.959   5.975 -0.5807  0.2240 -0.5400
   79SLPC   C14 7210   1.045   4.968   5.847  0.0863  0.4377  0.6011
   79SLPC  H14A 7211   1.021   4.863   5.839  0.3170  0.2333  2.1771
   79SLPC  H14B 7212   0.980   5.028   5.786  0.0815 -1.7131 -1.6361
   79SLPC  H14C 7213   1.140   4.991   5.801 -0.0975 -0.4064 -0.2219
   79SLPC   C15 7214   1.075   5.158   5.988 -0.2009  0.2816  0.4447
   79SLPC  H15A 7215   1.161   5.192   5.932 -0.0644 -1.6564 -0.5923
   79SLPC  H15B 7216   1.002   5.208   5.925  0.4636 -4.0852 -4.4154
   79SLPC  H15C 7217   1.068   5.196   6.089 -0.7082 -1.7235  1.2081
   79SLPC   C12 7218   0.930   4.972   6.074 -0.1813  0.1395 -0.0593
   79SLPC  H12A 7219   0.920   4.865   6.079  1.4692  0.0078  1.2233
   79SLPC  H12B 7220   0.838   5.015   6.036 -0.3994 -0.3403 -0.0766
   79SLPC   C11 7221   0.933   5.022   6.219  0.3435  0.1512 -0.5365
   79SLPC  H11A 7222   1.020   4.993   6.282  0.2785 -1.9001 -1.3112
   79SLPC  H11B 7223   0.846   4.975   6.269 -0.5566 -0.3155 -2.4865
   79SLPC     P 7224   0.778   5.246   6.232  0.4574 -0.0516  0.2793
   79SLPC   O13 7225   0.802   5.389   6.262 -0.4639 -0.4374 -0.7866
   79SLPC   O14 7226   0.711   5.212   6.100 -0.3836 -0.1819 -0.3961
   79SLPC   O12 7227   0.919   5.168   6.231 -0.0432  0.5804  0.5470
   79SLPC   O11 7228   0.701   5.183   6.352 -0.6288  0.1522  0.4323
   79SLPC    C1 7229   0.783   5.158   6.472  0.3210  0.0517 -0.5190
   79SLPC    HA 7230   0.824   5.054   6.474  0.2938  0.0470  0.1330
   79SLPC    HB 7231   0.875   5.220   6.481 -0.3392  1.0201 -0.4015
   79SLPC    C2 7232   0.698   5.180   6.598  0.6459  0.4615 -0.3122
   79SLPC    HS 7233   0.615   5.244   6.562  0.4511  0.2207 -0.2882
   79SLPC   O21 7234   0.785   5.237   6.699 -0.5487 -0.4347  0.0615
   79SLPC   C21 7235   0.753   5.344   6.755 -0.3185 -0.4254  0.7637
   79SLPC   O22 7236   0.671   5.422   6.716  0.1069  0.2329  0.3808
   79SLPC   C22 7237   0.828   5.360   6.884  0.0462  0.2963  0.5708
   79SLPC   H2R 7238   0.836   5.262   6.936 -1.9323  1.3722  3.2015
   79SLPC   H2S 7239   0.926   5.408   6.863 -0.4569  0.4233 -1.6414
   79SLPC    C3 7240   0.630   5.056   6.652  1.2271 -0.0355  0.1157
   79SLPC    HX 7241   0.709   5.002   6.710  1.4369  1.4032  1.2190
   79SLPC    HY 7242   0.596   4.989   6.570 -3.0034 -0.3355  1.8437
   79SLPC   O31 7243   0.532   5.103   6.741  0.1373  0.1988 -0.1708
   79SLPC   C31 7244   0.448   5.008   6.782  0.0580 -0.8974  0.6669
   79SLPC   O32 7245   0.456   4.890   6.748  0.3429  0.0542  0.2686
   79SLPC   C32 7246   0.349   5.073   6.876  0.4578 -0.9486  0.4143
   79SLPC   H2X 7247   0.267   5.000   6.895  0.1742 -0.1168  2.6933
   79SLPC   H2Y 7248   0.320   5.167   6.824  1.6844 -0.9806 -0.3575
   79SLPC   C23 7249   0.739   5.441   6.984  0.1749 -0.6642  0.4541
   79SLPC   H3R 7250   0.637   5.398   6.997  0.3015 -0.8420  0.8868
   79SLPC   H3S 7251   0.731   5.544   6.944 -3.7380 -1.4936 -1.4165
   79SLPC   C24 7252   0.785   5.449   7.125 -0.2120  0.0414 -0.3950
   79SLPC   H4R 7253   0.731   5.538   7.165 -1.2977 -0.4495 -0.7407
   79SLPC   H4S 7254   0.895   5.464   7.125 -0.0171 -0.7930 -3.3576
   79SLPC   C25 7255   0.741   5.332   7.211 -0.4246  0.1464  0.8225
   79SLPC   H5R 7256   0.806   5.243   7.198 -0.6967 -0.0479  0.7907
   79SLPC   H5S 7257   0.636   5.303   7.191  0.5615 -3.6587  0.3712
   79SLPC   C26 7258   0.728   5.374   7.353  0.3730  0.0827 -0.2700
   79SLPC   H6R 7259   0.656   5.458   7.365 -0.6351 -0.9406  1.2685
   79SLPC   H6S 7260   0.825   5.420   7.381 -0.5335  2.6934 -1.0634
   79SLPC   C27 7261   0.696   5.266   7.454 -0.3913 -0.5649  0.3466
   79SLPC   H7R 7262   0.779   5.193   7.460  1.3454  1.2827  0.1478
   79SLPC   H7S 7263   0.603   5.212   7.425 -1.0550  1.6477 -2.0473
   79SLPC   C28 7264   0.651   5.322   7.590 -0.2522 -0.6885  0.7124
   79SLPC   H8R 7265   0.610   5.239   7.651 -0.6016 -0.7496  0.3998
   79SLPC   H8S 7266   0.567   5.394   7.579  1.3126  1.1716  0.2021
   79SLPC   C29 7267   0.762   5.396   7.669  0.6330 -0.3351 -0.0500
   79SLPC   H9R 7268   0.833   5.448   7.604  0.4963 -1.7458 -1.3890
   79SLPC  C210 7269   0.755   5.428   7.796  0.4000  0.2497 -0.5357
   79SLPC  H10R 7270   0.842   5.470   7.848  1.0025 -0.1855 -1.1737
   79SLPC  C211 7271   0.632   5.407   7.881 -0.3692  0.2683 -0.3529
   79SLPC  H11R 7272   0.544   5.448   7.826 -1.6361  1.7120  2.5207
   79SLPC  H11S 7273   0.649   5.478   7.965  2.1624  1.4239 -1.7278
   79SLPC  C212 7274   0.599   5.273   7.942 -0.4604 -0.0314  0.0778
   79SLPC  H12R 7275   0.650   5.189   7.893 -2.2095 -2.1676  1.6730
   79SLPC  C213 7276   0.506   5.253   8.041 -0.0851 -0.0599 -0.3850
   79SLPC  H13R 7277   0.505   5.154   8.089  0.1894 -0.8683 -1.9634
   79SLPC  C214 7278   0.431   5.356   8.110 -0.1395 -0.5677  0.4388
   79SLPC  H14R 7279   0.324   5.328   8.117 -0.3361 -0.1449 -0.6781
   79SLPC  H14S 7280   0.436   5.448   8.048 -0.7902 -1.9736 -1.8249
   79SLPC  C215 7281   0.492   5.394   8.244  0.7692 -0.0137  0.6856
   79SLPC  H15R 7282   0.595   5.435   8.237  0.1762  1.5008  0.4195
   79SLPC  H15S 7283   0.486   5.302   8.306  2.2427 -1.3747 -1.0580
   79SLPC  C216 7284   0.410   5.515   8.313 -0.2521 -0.2875 -0.6395
   79SLPC  H16R 7285   0.476   5.547   8.396 -1.2848 -1.2793  0.6182
   79SLPC  H16S 7286   0.313   5.482   8.356 -1.2364  1.1513 -1.6532
   79SLPC  C217 7287   0.380   5.634   8.223  0.8445  0.4164 -0.7514
   79SLPC  H17R 7288   0.325   5.595   8.134  2.4703 -0.4001 -1.4321
   79SLPC  H17S 7289   0.484   5.660   8.195  1.0569 -1.1475 -1.5521
   79SLPC  C218 7290   0.301   5.746   8.286  0.2400 -0.3136  0.0080
   79SLPC  H18R 7291   0.365   5.794   8.362  4.7757 -1.3378 -2.8075
   79SLPC  H18S 7292   0.210   5.696   8.325 -1.0398  2.0063  0.1806
   79SLPC  H18T 7293   0.267   5.829   8.219 -0.1909  0.1783  0.8181
   79SLPC   C33 7294   0.410   5.114   7.011  0.4197 -0.0247  0.8430
   79SLPC   H3X 7295   0.322   5.156   7.065 -1.7350  0.9731 -3.0381
   79SLPC   H3Y 7296   0.489   5.192   7.002  0.0959  0.3855  1.4885
   79SLPC   C34 7297   0.447   4.981   7.083 -0.2768 -0.7272 -0.1877
   79SLPC   H4X 7298   0.536   4.937   7.034  0.3014 -1.0589  1.1169
   79SLPC   H4Y 7299   0.358   4.915   7.077 -1.2188  0.6270 -1.8727
   79SLPC   C35 7300   0.484   5.008   7.228 -1.3020  0.1051 -0.1780
   79SLPC   H5X 7301   0.412   5.083   7.268 -1.0555  0.6214 -0.6839
   79SLPC   H5Y 7302   0.580   5.064   7.220 -2.1146  1.5692 -0.0553
   79SLPC   C36 7303   0.505   4.887   7.324  0.5481 -0.6842 -0.0397
   79SLPC   H6X 7304   0.575   4.820   7.269  0.9524 -0.8282  0.6427
   79SLPC   H6Y 7305   0.407   4.836   7.338 -0.1491  0.1530 -1.5705
   79SLPC   C37 7306   0.573   4.907   7.453 -0.2662 -0.7172  0.5349
   79SLPC   H7X 7307   0.662   4.973   7.448 -0.6662 -0.0683  1.5189
   79SLPC   H7Y 7308   0.613   4.807   7.479  1.3038  0.1793  1.7334
   79SLPC   C38 7309   0.487   4.973   7.557  0.2701  0.0039 -0.3938
   79SLPC   H8X 7310   0.390   4.920   7.546 -0.8385  2.2114 -2.0860
   79SLPC   H8Y 7311   0.468   5.078   7.526 -1.3055 -0.5288 -1.3303
   79SLPC   C39 7312   0.541   4.965   7.705  0.9870 -0.0007  1.0617
   79SLPC   H9X 7313   0.467   5.023   7.764  0.3735  0.1712  0.1401
   79SLPC   H9Y 7314   0.640   5.016   7.704  0.6243  0.7086  0.4822
   79SLPC  C310 7315   0.543   4.819   7.756  0.3726 -0.2865 -0.4004
   79SLPC  H10X 7316   0.640   4.770   7.734  0.4757 -1.6473  2.6226
   79SLPC  H10Y 7317   0.463   4.769   7.697  0.1495  1.9192 -2.0822
   79SLPC  C311 7318   0.524   4.805   7.904  0.4407  0.2283 -0.8658
   79SLPC  H11X 7319   0.519   4.698   7.935  0.4689 -0.2398 -2.3997
   79SLPC  H11Y 7320   0.429   4.848   7.943  1.3525  0.8015  0.8172
   79SLPC  C312 7321   0.648   4.869   7.981 -0.0374  0.3579 -0.1295
   79SLPC  H12X 7322   0.674   4.963   7.927  2.2879 -0.7683 -1.1504
   79SLPC  H12Y 7323   0.743   4.813   7.966  0.6766  1.6417 -0.5981
   79SLPC  C313 7324   0.628   4.869   8.131 -0.3744  0.5710  0.2951
   79SLPC  H13X 7325   0.643   4.764   8.166 -3.0543 -0.7579 -2.1516
   79SLPC  H13Y 7326   0.520   4.888   8.145 -0.1941  1.4861  0.5175
   79SLPC  C314 7327   0.697   4.978   8.208 -0.6790  0.4609  0.4014
   79SLPC  H14X 7328   0.696   5.078   8.159 -0.0599 -0.4512 -1.6054
   79SLPC  H14Y 7329   0.806   4.969   8.225 -0.1762  2.4536 -1.3438
   79SLPC  C315 7330   0.653   4.996   8.352  0.3350 -0.4984 -0.1303
   79SLPC  H15X 7331   0.542   5.008   8.357  0.4971  1.5051 -0.7555
   79SLPC  H15Y 7332   0.690   5.095   8.384 -0.1779  0.2577 -1.7666
   79SLPC  C316 7333   0.694   4.886   8.453  0.5990  0.3607 -0.5556
   79SLPC  H16X 7334   0.803   4.865   8.462  0.3807 -1.3651 -1.5911
   79SLPC  H16Y 7335   0.640   4.799   8.410 -0.6609  1.3596 -1.0667
   79SLPC  C317 7336   0.635   4.903   8.595  0.2305 -0.3321  0.5106
   79SLPC  H17X 7337   0.525   4.913   8.602  0.0501 -1.1854 -0.7581
   79SLPC  H17Y 7338   0.677   4.994   8.643 -0.8385 -0.1186  1.0732
   79SLPC  C318 7339   0.666   4.786   8.688 -0.0697  0.6496  0.4171
   79SLPC  H18X 7340   0.777   4.781   8.699 -0.1487  0.7789  1.4002
   79SLPC  H18Y 7341   0.627   4.697   8.635 -0.9161  1.6985 -0.7994
   79SLPC  H18Z 7342   0.620   4.804   8.787  0.7734  1.8776  0.6206
   80SLPC     N 7343   3.600   1.664   6.306 -0.1243  0.3122 -0.2782
   80SLPC   C13 7344   3.609   1.765   6.420  0.1552 -0.2695  0.8380
   80SLPC  H13A 7345   3.658   1.857   6.392  0.2327 -0.6725 -0.4025
   80SLPC  H13B 7346   3.509   1.797   6.442  0.2278 -0.9072  2.2047
   80SLPC  H13C 7347   3.658   1.717   6.504 -0.6505 -1.7386  0.5021
   80SLPC   C14 7348   3.736   1.626   6.268  0.6357 -0.0138 -0.3799
   80SLPC  H14A 7349   3.797   1.716   6.267 -0.9190  1.0788 -0.6447
   80SLPC  H14B 7350   3.781   1.565   6.345 -1.9237  1.0783  2.1909
   80SLPC  H14C 7351   3.737   1.581   6.170 -1.5980  0.4018 -0.6462
   80SLPC   C15 7352   3.537   1.713   6.184 -0.3365 -0.0993 -0.6417
   80SLPC  H15A 7353   3.520   1.639   6.107  0.5041 -1.6107  0.5772
   80SLPC  H15B 7354   3.444   1.765   6.200 -0.4015 -0.4533  0.1555
   80SLPC  H15C 7355   3.602   1.785   6.136 -1.4929 -0.8465 -3.5419
   80SLPC   C12 7356   3.534   1.535   6.343 -0.9931  0.4290  0.2889
   80SLPC  H12A 7357   3.553   1.462   6.267 -1.0985 -0.1181  0.7784
   80SLPC  H12B 7358   3.426   1.544   6.342 -1.0291  0.0086 -1.2980
   80SLPC   C11 7359   3.583   1.458   6.469  0.2333  0.3451 -0.2016
   80SLPC  H11A 7360   3.514   1.373   6.487 -0.8481  1.4271  0.8882
   80SLPC  H11B 7361   3.568   1.521   6.559 -2.4494 -0.0113 -0.3225
   80SLPC     P 7362   3.737   1.254   6.445 -0.0040 -0.0992  0.3553
   80SLPC   O13 7363   3.654   1.192   6.341  0.4535  0.3469  0.4686
   80SLPC   O14 7364   3.886   1.237   6.437  0.5358  0.3714  0.1374
   80SLPC   O12 7365   3.717   1.405   6.453  0.9042 -0.2580  0.4544
   80SLPC   O11 7366   3.685   1.198   6.588  0.0367 -0.0199  0.1344
   80SLPC    C1 7367   3.722   1.277   6.707  0.4399  0.5350  0.4968
   80SLPC    HA 7368   3.823   1.323   6.703  1.0639 -0.7879  0.4327
   80SLPC    HB 7369   3.651   1.360   6.725  1.7602  2.3574 -2.0705
   80SLPC    C2 7370   3.725   1.191   6.839 -0.4691  0.1180 -0.1162
   80SLPC    HS 7371   3.812   1.123   6.830 -3.0178 -3.0848 -3.7228
   80SLPC   O21 7372   3.605   1.118   6.845 -0.3971  0.2061  0.3318
   80SLPC   C21 7373   3.575   1.036   6.944  0.3260  0.1602  0.3353
   80SLPC   O22 7374   3.656   0.990   7.022  0.6969  0.2916 -0.4791
   80SLPC   C22 7375   3.422   1.012   6.955  0.2476  0.3452 -0.3614
   80SLPC   H2R 7376   3.381   0.998   6.853 -0.7849  0.0635  0.0828
   80SLPC   H2S 7377   3.402   0.917   7.008 -1.0510 -0.2047 -1.7808
   80SLPC    C3 7378   3.732   1.275   6.974  0.2413  0.3200  0.2952
   80SLPC    HX 7379   3.733   1.197   7.053 -4.4767 -1.1272 -0.7482
   80SLPC    HY 7380   3.636   1.330   6.976  1.5912  2.9298  3.5194
   80SLPC   O31 7381   3.846   1.365   6.981 -0.9487  0.0675  0.0297
   80SLPC   C31 7382   3.826   1.502   6.975 -0.5343  0.2200 -0.1520
   80SLPC   O32 7383   3.724   1.549   6.939 -0.8850  0.0592  0.1768
   80SLPC   C32 7384   3.970   1.571   6.995  0.3513  0.5940  0.1995
   80SLPC   H2X 7385   4.012   1.550   6.895 -2.0452 -3.3997 -0.1812
   80SLPC   H2Y 7386   4.014   1.504   7.072  0.1613 -1.7547 -1.6141
   80SLPC   C23 7387   3.352   1.140   7.010 -0.5201  0.4848  0.0716
   80SLPC   H3R 7388   3.245   1.131   6.981 -0.6529  1.3811  0.2363
   80SLPC   H3S 7389   3.394   1.236   6.973  0.6585  0.3006  0.8889
   80SLPC   C24 7390   3.344   1.144   7.162 -0.2303 -0.2345  0.2041
   80SLPC   H4R 7391   3.331   1.045   7.211  0.9827  0.2760  1.6362
   80SLPC   H4S 7392   3.257   1.209   7.184 -0.0765 -0.9539  3.4527
   80SLPC   C25 7393   3.472   1.206   7.220 -0.3530  0.6372 -0.1306
   80SLPC   H5R 7394   3.481   1.307   7.176  1.3002  1.4508  1.9369
   80SLPC   H5S 7395   3.555   1.142   7.183 -1.4821 -0.5669 -0.6863
   80SLPC   C26 7396   3.483   1.224   7.375  0.8122  0.4636  0.1687
   80SLPC   H6R 7397   3.489   1.121   7.416  0.0183 -1.1628 -3.3979
   80SLPC   H6S 7398   3.395   1.267   7.426  0.8437 -1.1041  1.6314
   80SLPC   C27 7399   3.607   1.310   7.418  0.8045 -0.3070  0.2446
   80SLPC   H7R 7400   3.605   1.310   7.529  0.6745  3.2924  0.3535
   80SLPC   H7S 7401   3.575   1.414   7.398 -0.5608 -0.9249 -0.8964
   80SLPC   C28 7402   3.738   1.283   7.344 -0.2091  0.1350 -0.2482
   80SLPC   H8R 7403   3.799   1.374   7.361 -2.0471  1.9663 -2.7090
   80SLPC   H8S 7404   3.714   1.286   7.236 -0.9686 -0.2168 -0.0961
   80SLPC   C29 7405   3.793   1.156   7.408  0.3805 -0.1750  0.4705
   80SLPC   H9R 7406   3.775   1.061   7.356 -1.3988 -0.0166  0.7349
   80SLPC  C210 7407   3.862   1.154   7.523  0.0677 -0.1145 -0.3896
   80SLPC  H10R 7408   3.886   1.057   7.568  0.3125  0.7286  1.3701
   80SLPC  C211 7409   3.900   1.273   7.613  0.3318  0.8206 -0.7257
   80SLPC  H11R 7410   3.830   1.355   7.588 -0.9814 -0.2856 -0.7563
   80SLPC  H11S 7411   4.007   1.293   7.587  0.6953 -2.4020 -2.2357
   80SLPC  C212 7412   3.893   1.228   7.752 -0.1281 -0.6941  0.5190
   80SLPC  H12R 7413   3.981   1.169   7.782  0.5109  0.3566  0.7682
   80SLPC  C213 7414   3.800   1.263   7.849 -0.5691 -0.4140  0.2797
   80SLPC  H13R 7415   3.804   1.218   7.949 -0.5544 -0.8964  0.0613
   80SLPC  C214 7416   3.690   1.367   7.844 -0.1746 -0.3337 -0.4618
   80SLPC  H14R 7417   3.598   1.325   7.891 -2.5500  0.6901 -3.7978
   80SLPC  H14S 7418   3.659   1.371   7.738 -3.5199 -0.6900  0.3591
   80SLPC  C215 7419   3.737   1.502   7.895  0.1104 -0.2367 -0.6635
   80SLPC  H15R 7420   3.670   1.587   7.872 -0.4496 -0.5789 -0.3211
   80SLPC  H15S 7421   3.838   1.535   7.863  0.5937 -0.0153  0.9991
   80SLPC  C216 7422   3.732   1.499   8.052 -0.0065 -0.3573  0.0073
   80SLPC  H16R 7423   3.823   1.450   8.091  0.2526 -0.2607 -0.4648
   80SLPC  H16S 7424   3.654   1.425   8.081  1.3870 -1.0449  2.2609
   80SLPC  C217 7425   3.701   1.630   8.130 -0.1804 -0.1219 -0.2243
   80SLPC  H17R 7426   3.603   1.669   8.094  0.1887 -0.1557 -1.3165
   80SLPC  H17S 7427   3.776   1.703   8.094 -0.1803 -0.4729 -0.9531
   80SLPC  C218 7428   3.709   1.620   8.280 -0.5855 -0.3766  0.0610
   80SLPC  H18R 7429   3.812   1.635   8.317 -0.0518 -0.4967 -1.3088
   80SLPC  H18S 7430   3.668   1.522   8.311 -3.2119  0.5116 -0.2904
   80SLPC  H18T 7431   3.637   1.696   8.320 -1.2171  0.1313 -1.9059
   80SLPC   C33 7432   3.948   1.711   7.036  0.3640 -0.7461 -0.5559
   80SLPC   H3X 7433   3.891   1.766   6.958  0.5742  0.5581  0.1832
   80SLPC   H3Y 7434   4.049   1.754   7.046  0.7970 -1.2617 -2.4485
   80SLPC   C34 7435   3.876   1.722   7.175  0.0493  0.8387 -0.1693
   80SLPC   H4X 7436   3.767   1.698   7.173  0.4011 -1.9884  3.7857
   80SLPC   H4Y 7437   3.893   1.819   7.226  0.2561  0.4012  0.6058
   80SLPC   C35 7438   3.919   1.611   7.278 -0.0757  0.6939  0.1454
   80SLPC   H5X 7439   4.029   1.599   7.290 -0.0634 -0.9676 -1.1469
   80SLPC   H5Y 7440   3.884   1.509   7.250 -0.2752  0.9821 -0.6904
   80SLPC   C36 7441   3.858   1.640   7.415 -0.2909  0.3217  0.9292
   80SLPC   H6X 7442   3.833   1.552   7.477 -1.3296  0.4348  0.6926
   80SLPC   H6Y 7443   3.774   1.711   7.395  1.1468  1.9337  0.3814
   80SLPC   C37 7444   3.947   1.722   7.508 -0.1965  0.6557 -0.8239
   80SLPC   H7X 7445   3.954   1.826   7.470  2.7801  1.6719  2.0362
   80SLPC   H7Y 7446   4.046   1.673   7.516 -0.4482 -0.7809 -4.4589
   80SLPC   C38 7447   3.882   1.736   7.645 -0.7756  0.3596  0.3540
   80SLPC   H8X 7448   3.882   1.634   7.690  0.6509 -0.4382 -1.3445
   80SLPC   H8Y 7449   3.777   1.771   7.631 -0.9415 -0.7059 -1.2908
   80SLPC   C39 7450   3.960   1.844   7.728  0.8680 -0.3134 -0.4135
   80SLPC   H9X 7451   3.957   1.941   7.675  0.1269 -0.8263 -1.3438
   80SLPC   H9Y 7452   4.062   1.806   7.751  0.4112  0.1758  2.9801
   80SLPC  C310 7453   3.901   1.862   7.867 -0.0607 -0.8493  0.0647
   80SLPC  H10X 7454   3.898   1.765   7.921 -1.3438 -0.0554  1.4788
   80SLPC  H10Y 7455   3.799   1.905   7.867  0.5533  0.6915 -0.6122
   80SLPC  C311 7456   3.981   1.965   7.955 -0.1638  0.0617  0.3602
   80SLPC  H11X 7457   3.982   2.058   7.895  1.2100 -0.6423 -0.7787
   80SLPC  H11Y 7458   4.088   1.935   7.961 -0.4659 -1.0641  0.4500
   80SLPC  C312 7459   3.926   1.985   8.099  0.4521  0.6595  0.3689
   80SLPC  H12X 7460   3.994   2.060   8.145  0.3904  1.0625 -0.1899
   80SLPC  H12Y 7461   3.912   1.890   8.154  1.7257  1.2558  1.7980
   80SLPC  C313 7462   3.784   2.048   8.098 -0.1981 -0.8496  0.5058
   80SLPC  H13X 7463   3.707   1.982   8.055 -1.3586  1.2281 -0.7653
   80SLPC  H13Y 7464   3.799   2.127   8.021 -0.1520 -1.5354 -0.2025
   80SLPC  C314 7465   3.743   2.116   8.234 -0.2782  0.7315 -0.3493
   80SLPC  H14X 7466   3.650   2.172   8.211 -3.0436 -4.1270 -2.3216
   80SLPC  H14Y 7467   3.818   2.194   8.260 -1.3902  1.9886 -0.7843
   80SLPC  C315 7468   3.722   2.026   8.361 -0.0369  0.3368 -0.4365
   80SLPC  H15X 7469   3.824   1.984   8.370  0.4468  1.6425  0.4434
   80SLPC  H15Y 7470   3.654   1.941   8.336  0.4044 -0.0101 -0.4564
   80SLPC  C316 7471   3.664   2.101   8.477  0.2548 -0.0740  0.3832
   80SLPC  H16X 7472   3.561   2.132   8.450  0.3753  0.1282  0.1509
   80SLPC  H16Y 7473   3.724   2.193   8.494  0.3916 -0.3938  1.7195
   80SLPC  C317 7474   3.656   2.019   8.600  0.7634  0.7745  0.5702
   80SLPC  H17X 7475   3.752   2.028   8.655  1.2484 -1.3279  0.1384
   80SLPC  H17Y 7476   3.637   1.911   8.584 -1.0618  0.9775  1.1286
   80SLPC  C318 7477   3.556   2.061   8.699 -0.0460  0.4118 -0.4037
   80SLPC  H18X 7478   3.578   2.168   8.716  2.0475  0.1306 -1.1526
   80SLPC  H18Y 7479   3.555   2.005   8.795  0.6715 -0.8923 -1.1228
   80SLPC  H18Z 7480   3.453   2.045   8.659  0.0740  0.6496 -0.8058
   81SAPS     N 7481   2.364   6.476  10.801 -0.3306  0.8113 -0.0799
   81SAPS   HN1 7482   2.330   6.455  10.705  0.5753 -1.4447  0.0538
   81SAPS   HN2 7483   2.362   6.580  10.803  1.0393  0.9325 -1.9889
   81SAPS   HN3 7484   2.463   6.450  10.819 -0.4152  0.3099 -0.3212
   81SAPS   C12 7485   2.280   6.400  10.902  0.0351  0.0833 -0.2472
   81SAPS  H12A 7486   2.309   6.297  10.890  1.3372 -0.0295  2.8509
   81SAPS   C13 7487   2.320   6.429  11.057 -0.1854 -0.3408 -0.0618
   81SAPS  O13A 7488   2.396   6.525  11.087  0.7105 -0.5449  0.2567
   81SAPS  O13B 7489   2.265   6.354  11.140  0.5987  0.1132 -0.2139
   81SAPS   C11 7490   2.134   6.430  10.888  0.6790  0.0910  0.2276
   81SAPS  H11A 7491   2.109   6.538  10.898  0.0081  0.0609 -0.8876
   81SAPS  H11B 7492   2.071   6.370  10.957  1.5036  2.1279  2.9326
   81SAPS     P 7493   2.012   6.281  10.702 -0.0220  0.1766 -0.2724
   81SAPS   O13 7494   2.070   6.148  10.729  0.2431 -0.0708  0.2736
   81SAPS   O14 7495   1.874   6.303  10.749 -0.1407  0.6050 -0.4613
   81SAPS   O12 7496   2.099   6.392  10.759 -0.3285  0.1084  0.4842
   81SAPS   O11 7497   2.023   6.317  10.553  0.3299  0.4456  0.0196
   81SAPS    C1 7498   2.054   6.223  10.451 -0.5569  0.1199 -0.7870
   81SAPS    HA 7499   2.001   6.126  10.465 -0.5088  0.1897 -0.0356
   81SAPS    HB 7500   2.025   6.264  10.352 -3.0263 -1.2157 -0.6999
   81SAPS    C2 7501   2.207   6.199  10.451  0.6082  0.8524 -0.0218
   81SAPS    HS 7502   2.253   6.198  10.552 -0.2392  2.0508  0.3898
   81SAPS   O21 7503   2.266   6.289  10.362  0.0690 -0.6372 -0.0725
   81SAPS   C21 7504   2.332   6.394  10.420  0.2003  0.8272 -0.1480
   81SAPS   O22 7505   2.331   6.419  10.538  0.5080 -0.6261 -0.1862
   81SAPS   C22 7506   2.408   6.474  10.308  0.5016 -0.4727  0.0432
   81SAPS   H2R 7507   2.504   6.511  10.351  0.6255  1.2451 -1.5970
   81SAPS   H2S 7508   2.428   6.401  10.226  0.4744 -1.2158  0.6849
   81SAPS    C3 7509   2.237   6.052  10.392  0.4313  0.5015  0.1068
   81SAPS    HX 7510   2.201   5.967  10.454  1.0633  0.0055 -0.1939
   81SAPS    HY 7511   2.348   6.046  10.392  0.4870 -0.0282  3.4619
   81SAPS   O31 7512   2.175   6.031  10.266  0.0306 -0.4540  0.3307
   81SAPS   C31 7513   2.240   6.082  10.163  0.3780 -0.0985  0.3613
   81SAPS   O32 7514   2.359   6.106  10.166  0.1374  0.2139  0.2327
   81SAPS   C32 7515   2.154   6.096  10.036 -0.0528  0.0341 -0.2722
   81SAPS   H2X 7516   2.060   6.145  10.070 -0.0798 -0.1793 -0.0350
   81SAPS   H2Y 7517   2.142   5.990  10.006  0.7922 -0.1514  0.0208
   81SAPS   C23 7518   2.332   6.593  10.243  0.2488 -0.1136 -0.3184
   81SAPS   H3R 7519   2.271   6.631  10.328 -0.4338 -0.4893 -0.6338
   81SAPS   H3S 7520   2.258   6.553  10.171  1.2728 -3.3567  0.2858
   81SAPS   C24 7521   2.433   6.688  10.175 -0.0207 -0.2610 -0.5182
   81SAPS   H4R 7522   2.486   6.647  10.087  1.3236 -0.8157  0.5070
   81SAPS   H4S 7523   2.514   6.698  10.250 -0.0553 -2.1305 -0.1858
   81SAPS   C25 7524   2.388   6.823  10.147 -0.3183  0.1507  0.1061
   81SAPS   H5R 7525   2.334   6.878  10.225 -1.1097  0.8150 -0.8749
   81SAPS   C26 7526   2.397   6.881  10.027 -0.6598  0.0908 -0.2856
   81SAPS   H6R 7527   2.358   6.984  10.023 -2.1432 -0.4780 -2.1944
   81SAPS   C27 7528   2.447   6.821   9.897 -0.1337 -0.0518  0.0755
   81SAPS   H7R 7529   2.548   6.776   9.908  0.5818  1.3000 -0.7450
   81SAPS   H7S 7530   2.474   6.903   9.828 -0.7102 -2.1379 -2.8000
   81SAPS   C28 7531   2.352   6.718   9.833  0.3397  0.3189  0.1202
   81SAPS   H8R 7532   2.267   6.688   9.895  2.2326 -2.0934  1.7114
   81SAPS   C29 7533   2.348   6.688   9.701  0.0462 -0.5876 -0.5406
   81SAPS   H9R 7534   2.294   6.598   9.671 -0.3122 -0.2983 -0.7745
   81SAPS  C210 7535   2.437   6.746   9.596  0.0337 -0.1114 -0.0270
   81SAPS  H10R 7536   2.544   6.723   9.614  0.7093  2.8470  0.1998
   81SAPS  H10S 7537   2.442   6.855   9.611  1.9282 -0.4250  2.1387
   81SAPS  C211 7538   2.399   6.711   9.453  0.1175 -1.0301  0.3934
   81SAPS  H11R 7539   2.379   6.603   9.445  1.1129 -1.3093  1.3066
   81SAPS  C212 7540   2.392   6.796   9.347 -0.1058  0.7231  0.0832
   81SAPS  H12R 7541   2.368   6.766   9.243 -0.4045  2.3903 -0.3609
   81SAPS  C213 7542   2.422   6.944   9.346  0.0418  0.1684 -1.1477
   81SAPS  H13R 7543   2.357   6.987   9.425  1.0710 -0.6036  0.1553
   81SAPS  H13S 7544   2.373   6.992   9.259  0.3356  1.7384 -0.4855
   81SAPS  C214 7545   2.575   6.985   9.362  0.7623  0.6329 -0.2206
   81SAPS  H14R 7546   2.624   6.987   9.461 -1.1472  1.2999  0.7608
   81SAPS  C215 7547   2.650   7.042   9.264 -0.3544  0.7928 -0.3565
   81SAPS  H15R 7548   2.746   7.080   9.301 -0.0800  1.0245 -1.2764
   81SAPS  C216 7549   2.624   7.073   9.127  0.6933  0.0649 -0.2086
   81SAPS  H16R 7550   2.628   7.183   9.111 -1.8575  0.4428  1.1666
   81SAPS  H16S 7551   2.519   7.047   9.101  0.4470  1.8072 -1.1680
   81SAPS  C217 7552   2.714   7.018   9.013  0.1355 -0.4089  0.7026
   81SAPS  H17R 7553   2.705   6.908   9.001  2.9327 -0.4364 -2.2296
   81SAPS  H17S 7554   2.823   7.041   9.014  0.4625 -1.7429 -0.8169
   81SAPS  C218 7555   2.679   7.086   8.877  0.2618 -0.6129 -0.0707
   81SAPS  H18R 7556   2.668   7.196   8.883 -2.2994 -0.7643 -0.8846
   81SAPS  H18S 7557   2.572   7.079   8.849  0.4639  1.9353 -1.8196
   81SAPS  C219 7558   2.776   7.042   8.770  0.9653  0.2443  0.0919
   81SAPS  H19R 7559   2.771   6.936   8.737  1.5025  0.4556 -0.7045
   81SAPS  H19S 7560   2.878   7.057   8.810  0.1341  1.9906  1.6663
   81SAPS  C220 7561   2.749   7.125   8.643 -0.3485  0.0818  0.6891
   81SAPS  H20R 7562   2.813   7.112   8.553  1.3953  2.2306  1.5354
   81SAPS  H20S 7563   2.743   7.234   8.663 -0.4414  0.0339  0.9259
   81SAPS  H20T 7564   2.647   7.096   8.610  0.9671 -1.1874 -2.7680
   81SAPS   C33 7565   2.216   6.176   9.916  0.1177  0.0344  0.3241
   81SAPS   H3X 7566   2.322   6.144   9.914  0.0251 -0.3668  1.1253
   81SAPS   H3Y 7567   2.215   6.286   9.931 -1.0005  0.4570 -2.3709
   81SAPS   C34 7568   2.141   6.144   9.789  0.1259  0.1473 -0.0982
   81SAPS   H4X 7569   2.043   6.194   9.801  0.7191  1.9161 -1.9722
   81SAPS   H4Y 7570   2.126   6.034   9.779  1.3194 -0.1583  1.1572
   81SAPS   C35 7571   2.224   6.202   9.663  0.4541  0.6033 -0.0699
   81SAPS   H5X 7572   2.326   6.158   9.656  0.1009  0.0162 -2.4953
   81SAPS   H5Y 7573   2.230   6.312   9.679  2.7175  0.3964  0.9324
   81SAPS   C36 7574   2.151   6.172   9.530 -0.2505 -0.8193  0.5029
   81SAPS   H6X 7575   2.052   6.221   9.519  0.4820  0.4298 -1.0229
   81SAPS   H6Y 7576   2.138   6.061   9.531  4.4986 -1.5911 -0.1216
   81SAPS   C37 7577   2.235   6.203   9.402  0.0191 -0.5302  0.3263
   81SAPS   H7X 7578   2.205   6.134   9.320 -0.8985  1.9241 -1.5173
   81SAPS   H7Y 7579   2.341   6.183   9.430  0.1166  1.0832  1.2398
   81SAPS   C38 7580   2.227   6.345   9.344 -0.0997 -0.3756  0.1522
   81SAPS   H8X 7581   2.253   6.409   9.431  0.3062 -2.1825  1.4198
   81SAPS   H8Y 7582   2.127   6.372   9.305  0.9449  1.5871 -1.3139
   81SAPS   C39 7583   2.331   6.367   9.223  0.6222  0.1918 -0.3151
   81SAPS   H9X 7584   2.326   6.278   9.157 -0.9565  0.5184 -0.6942
   81SAPS   H9Y 7585   2.428   6.372   9.277  0.3120 -1.5855  0.5147
   81SAPS  C310 7586   2.307   6.497   9.149  0.8594 -0.1261  0.2061
   81SAPS  H10X 7587   2.311   6.577   9.226  0.2111 -2.0572  2.3847
   81SAPS  H10Y 7588   2.204   6.486   9.110  1.0264  2.0509 -0.9945
   81SAPS  C311 7589   2.419   6.513   9.040  0.1089 -0.7315 -0.4476
   81SAPS  H11X 7590   2.429   6.424   8.975 -0.1179 -0.6241 -0.6337
   81SAPS  H11Y 7591   2.514   6.538   9.092 -1.1533  0.1962  1.5377
   81SAPS  C312 7592   2.385   6.634   8.953  0.3547  0.6138  0.4849
   81SAPS  H12X 7593   2.364   6.726   9.011  0.3819  0.4694  0.7234
   81SAPS  H12Y 7594   2.300   6.600   8.889  2.1783  1.4669 -2.6168
   81SAPS  C313 7595   2.503   6.675   8.862 -0.1635 -0.3877 -0.8913
   81SAPS  H13X 7596   2.521   6.584   8.800  0.0091 -0.3394 -0.9142
   81SAPS  H13Y 7597   2.592   6.700   8.924 -2.3293  2.3525  1.3628
   81SAPS  C314 7598   2.471   6.804   8.777 -0.7385 -0.3887  0.6325
   81SAPS  H14X 7599   2.568   6.839   8.736 -0.2613 -1.2249  1.0198
   81SAPS  H14Y 7600   2.451   6.882   8.853  3.4039  0.1640  1.3950
   81SAPS  C315 7601   2.365   6.771   8.669 -0.6269  0.2048 -0.2299
   81SAPS  H15X 7602   2.271   6.737   8.717  0.9388 -1.1881  2.0415
   81SAPS  H15Y 7603   2.402   6.681   8.615  1.8652 -0.3484  2.1284
   81SAPS  C316 7604   2.339   6.884   8.567  0.2157  0.1288  0.2131
   81SAPS  H16X 7605   2.441   6.913   8.534  0.7688 -0.8330  1.0334
   81SAPS  H16Y 7606   2.284   6.967   8.615  1.0365  1.2967 -0.8173
   81SAPS  C317 7607   2.248   6.825   8.455 -0.1774  0.0011  0.5744
   81SAPS  H17X 7608   2.147   6.798   8.491 -0.0438  0.1287  1.0517
   81SAPS  H17Y 7609   2.304   6.736   8.417  1.0575  1.3767 -1.0115
   81SAPS  C318 7610   2.232   6.930   8.349  0.2244  0.1394 -0.1316
   81SAPS  H18X 7611   2.153   6.900   8.277 -2.1860  0.9126  2.0519
   81SAPS  H18Y 7612   2.332   6.944   8.302  0.3692 -0.3633  0.0238
   81SAPS  H18Z 7613   2.200   7.024   8.398  1.5437 -0.0281  1.1006
   82SAPS     N 7614   1.476   5.669  10.805  0.2593  0.0974 -0.5628
   82SAPS   HN1 7615   1.381   5.705  10.786  0.7679  0.7436 -1.9826
   82SAPS   HN2 7616   1.554   5.731  10.773 -0.3979 -0.1053 -2.7245
   82SAPS   HN3 7617   1.472   5.590  10.737  0.7439  1.1890 -1.9190
   82SAPS   C12 7618   1.486   5.632  10.952 -0.3730  0.4654 -0.4802
   82SAPS  H12A 7619   1.585   5.597  10.976 -0.9878 -1.1242 -0.1775
   82SAPS   C13 7620   1.461   5.739  11.055 -0.0864 -0.8930  0.2837
   82SAPS  O13A 7621   1.445   5.858  11.019 -0.3295 -0.4231  0.1048
   82SAPS  O13B 7622   1.462   5.705  11.178 -0.2788  0.0509  1.0900
   82SAPS   C11 7623   1.378   5.526  10.980 -0.7804  0.2279 -0.2021
   82SAPS  H11A 7624   1.275   5.566  10.967 -1.7709 -1.5539  1.5411
   82SAPS  H11B 7625   1.380   5.499  11.088  2.0097  1.2665  0.1127
   82SAPS     P 7626   1.495   5.302  10.939 -0.4671 -0.6103  0.3265
   82SAPS   O13 7627   1.626   5.319  10.876  0.8091 -0.3271  0.0305
   82SAPS   O14 7628   1.487   5.288  11.087  0.4788 -0.2374 -0.2036
   82SAPS   O12 7629   1.400   5.416  10.896  0.3668  0.7948 -0.0673
   82SAPS   O11 7630   1.423   5.173  10.876  0.5052 -0.1048  0.4730
   82SAPS    C1 7631   1.282   5.151  10.867 -0.3306  0.4485  0.6625
   82SAPS    HA 7632   1.238   5.071  10.929 -1.4930 -0.0114 -0.6989
   82SAPS    HB 7633   1.234   5.246  10.899  1.6463  1.7426 -0.0324
   82SAPS    C2 7634   1.246   5.119  10.722 -0.0339  0.7762  0.0848
   82SAPS    HS 7635   1.140   5.088  10.713  0.3484 -0.5706 -0.0312
   82SAPS   O21 7636   1.330   5.017  10.670 -0.3621  0.0586 -0.4822
   82SAPS   C21 7637   1.321   4.906  10.737 -0.2046  0.7982 -0.0592
   82SAPS   O22 7638   1.243   4.871  10.824  0.5204  0.2204 -0.1667
   82SAPS   C22 7639   1.445   4.817  10.691  0.1525  0.7941  0.3810
   82SAPS   H2R 7640   1.469   4.810  10.583  0.8885  0.7486  0.5427
   82SAPS   H2S 7641   1.538   4.856  10.737  0.6340 -1.2107  1.2192
   82SAPS    C3 7642   1.258   5.245  10.638 -0.6939  0.0506 -0.2205
   82SAPS    HX 7643   1.365   5.273  10.633 -0.6828 -0.0301 -0.4666
   82SAPS    HY 7644   1.207   5.333  10.683  1.2930  2.5429 -2.4831
   82SAPS   O31 7645   1.191   5.224  10.507  0.1008 -0.9210  0.4512
   82SAPS   C31 7646   1.230   5.300  10.411 -1.6814  0.0888 -0.0303
   82SAPS   O32 7647   1.323   5.380  10.399  0.6803 -0.2884 -0.3914
   82SAPS   C32 7648   1.146   5.262  10.291 -0.6099 -0.1986 -0.1983
   82SAPS   H2X 7649   1.054   5.324  10.288 -0.0515  0.6299 -0.4603
   82SAPS   H2Y 7650   1.116   5.155  10.300  2.7740 -1.1654  1.0564
   82SAPS   C23 7651   1.449   4.664  10.724 -0.6529  0.3329  0.3115
   82SAPS   H3R 7652   1.406   4.635  10.822 -2.9035 -2.3877 -1.3280
   82SAPS   H3S 7653   1.557   4.640  10.719 -0.8196 -0.1811 -1.5338
   82SAPS   C24 7654   1.377   4.569  10.628 -0.0931 -0.7865 -0.1508
   82SAPS   H4R 7655   1.268   4.589  10.620 -0.8672 -4.5819 -0.9077
   82SAPS   H4S 7656   1.382   4.469  10.677  1.6293 -1.5097 -1.6898
   82SAPS   C25 7657   1.437   4.567  10.494  0.5111  0.2129  0.5753
   82SAPS   H5R 7658   1.519   4.496  10.478 -0.0247 -0.6692  1.5896
   82SAPS   C26 7659   1.396   4.628  10.382 -0.7162  0.3517  0.0324
   82SAPS   H6R 7660   1.447   4.609  10.287 -0.1776  1.9188 -0.0247
   82SAPS   C27 7661   1.286   4.726  10.356  0.2185  0.1252 -0.1350
   82SAPS   H7R 7662   1.321   4.824  10.317  0.4897  0.3627  0.6904
   82SAPS   H7S 7663   1.252   4.749  10.459  1.3505 -0.7660  0.4612
   82SAPS   C28 7664   1.174   4.674  10.280 -0.6095  0.4343  0.3898
   82SAPS   H8R 7665   1.164   4.565  10.293  0.4064  0.2636 -0.0976
   82SAPS   C29 7666   1.095   4.735  10.191  0.4146  0.0973  0.7179
   82SAPS   H9R 7667   1.021   4.681  10.131  0.2942 -1.1174  1.9201
   82SAPS  C210 7668   1.101   4.882  10.149 -0.6579 -1.0178  0.1813
   82SAPS  H10R 7669   1.168   4.932  10.223  1.0910 -2.2442 -0.4942
   82SAPS  H10S 7670   0.998   4.922  10.154 -1.2060 -2.4768  1.7943
   82SAPS  C211 7671   1.171   4.899  10.013  0.1027 -0.6550 -0.3032
   82SAPS  H11R 7672   1.276   4.933  10.019 -1.0672  3.2005  1.2508
   82SAPS  C212 7673   1.116   4.885   9.894 -0.4148  0.5455  0.1291
   82SAPS  H12R 7674   1.181   4.910   9.809 -0.7407 -0.8944 -0.5904
   82SAPS  C213 7675   0.976   4.837   9.864 -0.7318  0.0243  0.6705
   82SAPS  H13R 7676   0.912   4.816   9.952 -0.6802  0.8803  0.9236
   82SAPS  H13S 7677   0.973   4.745   9.802  0.0096  1.1773 -1.1695
   82SAPS  C214 7678   0.915   4.955   9.785  0.6999 -0.2033 -0.2195
   82SAPS  H14R 7679   0.890   5.043   9.847 -1.8341 -1.2579  0.3864
   82SAPS  C215 7680   0.879   4.950   9.653  0.1901  1.4101 -0.2711
   82SAPS  H15R 7681   0.832   5.041   9.613 -1.4174  0.5092 -0.5108
   82SAPS  C216 7682   0.896   4.841   9.552 -0.0360 -0.0306  0.6438
   82SAPS  H16R 7683   0.809   4.839   9.484 -0.2983 -0.0515  0.9751
   82SAPS  H16S 7684   0.913   4.740   9.597 -1.3691  0.5097  2.5061
   82SAPS  C217 7685   1.026   4.868   9.461  0.1614  0.4836 -0.5062
   82SAPS  H17R 7686   1.017   4.958   9.396  0.0477 -0.3692 -1.7279
   82SAPS  H17S 7687   1.033   4.780   9.393 -0.4294  0.9584 -1.2000
   82SAPS  C218 7688   1.155   4.871   9.548 -0.1395  0.1966  0.1853
   82SAPS  H18R 7689   1.143   4.784   9.615  1.1539 -0.5723 -0.5365
   82SAPS  H18S 7690   1.156   4.952   9.624  0.4333  0.2998  0.0727
   82SAPS  C219 7691   1.289   4.875   9.472  0.6035 -0.4065 -0.0784
   82SAPS  H19R 7692   1.263   4.947   9.392 -2.2418  0.4536  1.4859
   82SAPS  H19S 7693   1.295   4.777   9.420  0.0683 -0.2785 -0.3870
   82SAPS  C220 7694   1.409   4.897   9.563  0.0571 -0.3809 -0.5636
   82SAPS  H20R 7695   1.406   4.845   9.661 -0.9037  0.1506 -0.2985
   82SAPS  H20S 7696   1.417   5.002   9.599  1.1052 -0.3565 -0.8226
   82SAPS  H20T 7697   1.508   4.860   9.528  0.6262  1.5169 -1.0726
   82SAPS   C33 7698   1.213   5.272  10.160 -0.0792  0.4476  0.1674
   82SAPS   H3X 7699   1.293   5.196  10.148  0.3939  1.2549 -2.4012
   82SAPS   H3Y 7700   1.262   5.371  10.159 -0.8824  0.9728  2.8422
   82SAPS   C34 7701   1.112   5.265  10.037  0.6961 -0.0554 -0.6379
   82SAPS   H4X 7702   1.033   5.343  10.046 -0.1500 -1.0661  1.3787
   82SAPS   H4Y 7703   1.071   5.162  10.040  0.1259  0.1936  0.5998
   82SAPS   C35 7704   1.185   5.290   9.907  0.1725 -0.3237 -0.1152
   82SAPS   H5X 7705   1.261   5.211   9.892  2.4736  2.1561 -2.8431
   82SAPS   H5Y 7706   1.249   5.381   9.917 -0.3792  0.0187  0.4141
   82SAPS   C36 7707   1.097   5.299   9.781 -0.4750  0.0761  0.1468
   82SAPS   H6X 7708   1.032   5.389   9.772 -2.2157 -0.7104  3.4481
   82SAPS   H6Y 7709   1.045   5.201   9.785  0.0099 -0.2516 -1.0364
   82SAPS   C37 7710   1.187   5.290   9.665 -0.4525 -0.0042  0.4243
   82SAPS   H7X 7711   1.234   5.190   9.678 -3.2669 -1.4020  0.5958
   82SAPS   H7Y 7712   1.267   5.367   9.660 -1.8765  1.4954 -0.1070
   82SAPS   C38 7713   1.110   5.304   9.533  0.2317  0.2984 -0.4732
   82SAPS   H8X 7714   1.070   5.407   9.525  1.5117  1.0584  1.8787
   82SAPS   H8Y 7715   1.024   5.234   9.534  0.0759  0.4535 -1.7921
   82SAPS   C39 7716   1.198   5.254   9.418 -0.1870 -0.1708 -0.1641
   82SAPS   H9X 7717   1.220   5.149   9.448  0.6707  0.6300  2.3067
   82SAPS   H9Y 7718   1.292   5.311   9.400 -0.0475 -0.9011 -1.9548
   82SAPS  C310 7719   1.113   5.262   9.292 -0.8008  0.2389  0.6523
   82SAPS  H10X 7720   1.072   5.365   9.295  0.3493  0.6872  1.5569
   82SAPS  H10Y 7721   1.030   5.188   9.292 -0.5602 -0.0897 -1.2563
   82SAPS  C311 7722   1.222   5.240   9.175  0.3548  0.2233 -0.3288
   82SAPS  H11X 7723   1.287   5.152   9.193 -0.5644 -0.8393 -1.9815
   82SAPS  H11Y 7724   1.294   5.325   9.183  0.1752  0.4141 -0.7160
   82SAPS  C312 7725   1.158   5.238   9.035 -0.2601  0.8917 -0.1664
   82SAPS  H12X 7726   1.134   5.344   9.017 -0.9275  0.5546 -1.3354
   82SAPS  H12Y 7727   1.055   5.200   9.050  0.3759 -0.5113  0.9585
   82SAPS  C313 7728   1.234   5.173   8.920  0.1309 -0.7313  0.0460
   82SAPS  H13X 7729   1.190   5.216   8.827 -2.1480  0.3502  1.5235
   82SAPS  H13Y 7730   1.226   5.063   8.913  0.1769 -0.6343 -2.2260
   82SAPS  C314 7731   1.387   5.208   8.903 -0.0164 -0.2611 -0.7838
   82SAPS  H14X 7732   1.421   5.155   8.811 -2.9995 -0.4537 -1.8896
   82SAPS  H14Y 7733   1.444   5.174   8.992  1.8788  0.7365 -1.5676
   82SAPS  C315 7734   1.423   5.356   8.888  0.7267 -0.5424  0.0094
   82SAPS  H15X 7735   1.390   5.411   8.979  0.5553 -1.8024  0.7257
   82SAPS  H15Y 7736   1.359   5.400   8.808 -1.5235 -0.5536  1.6924
   82SAPS  C316 7737   1.572   5.393   8.859 -0.1734  0.4472  0.1536
   82SAPS  H16X 7738   1.602   5.335   8.769 -2.2386  1.0311 -0.9704
   82SAPS  H16Y 7739   1.646   5.360   8.936  1.8704 -0.1929 -1.9409
   82SAPS  C317 7740   1.589   5.543   8.835  0.5695 -0.2166 -0.4060
   82SAPS  H17X 7741   1.679   5.568   8.894  1.7419 -1.9801 -1.3492
   82SAPS  H17Y 7742   1.506   5.609   8.868  1.0940  0.4394 -0.3895
   82SAPS  C318 7743   1.623   5.576   8.689  0.2379  0.2504 -0.4616
   82SAPS  H18X 7744   1.652   5.682   8.675  1.9267  0.5354  3.6978
   82SAPS  H18Y 7745   1.536   5.567   8.621 -0.8385  1.1139  0.7464
   82SAPS  H18Z 7746   1.701   5.504   8.655 -1.2636 -1.1739 -1.0021
   83SAPS     N 7747   3.328   1.075  11.364  0.3069  0.1841 -0.5805
   83SAPS   HN1 7748   3.347   0.977  11.332  0.8770 -0.9494  2.8292
   83SAPS   HN2 7749   3.380   1.090  11.452 -1.3252  1.7784  0.1844
   83SAPS   HN3 7750   3.225   1.080  11.381  0.4002  0.4396 -0.0732
   83SAPS   C12 7751   3.357   1.181  11.259  0.3905  0.5428  0.5789
   83SAPS  H12A 7752   3.309   1.142  11.171 -2.0584 -0.1879  2.1499
   83SAPS   C13 7753   3.294   1.323  11.277  0.0063 -0.2895 -0.6997
   83SAPS  O13A 7754   3.226   1.345  11.380 -0.6058 -0.1988  0.2865
   83SAPS  O13B 7755   3.338   1.410  11.198  0.6063 -0.2105  0.4920
   83SAPS   C11 7756   3.516   1.191  11.254 -0.9793  0.1588 -0.3203
   83SAPS  H11A 7757   3.555   1.253  11.338  1.1970  1.6191 -2.3061
   83SAPS  H11B 7758   3.537   1.253  11.164  1.9199  0.1271  0.2500
   83SAPS     P 7759   3.699   1.031  11.168 -0.3628 -0.4832 -0.3233
   83SAPS   O13 7760   3.802   1.118  11.232  0.1470 -0.4247  0.2638
   83SAPS   O14 7761   3.727   0.888  11.170 -0.4249 -0.0480 -0.0042
   83SAPS   O12 7762   3.574   1.060  11.252  0.0300  0.2913  0.0565
   83SAPS   O11 7763   3.665   1.080  11.021  0.0706 -0.4364  0.6073
   83SAPS    C1 7764   3.551   1.040  10.951 -0.2698  0.0941  0.3379
   83SAPS    HA 7765   3.554   0.931  10.930 -0.4702  0.2372 -0.4441
   83SAPS    HB 7766   3.459   1.065  11.009  1.1336 -1.3681  3.4956
   83SAPS    C2 7767   3.560   1.098  10.808 -0.2190 -0.5865  0.5264
   83SAPS    HS 7768   3.462   1.071  10.763 -0.1793 -0.0218  0.0911
   83SAPS   O21 7769   3.672   1.054  10.723  0.2327 -0.4449 -0.2472
   83SAPS   C21 7770   3.645   0.929  10.674  0.2726 -0.1599  0.4038
   83SAPS   O22 7771   3.550   0.858  10.697  0.4741  0.0425 -0.5369
   83SAPS   C22 7772   3.748   0.899  10.565  0.4585 -0.0040 -0.4671
   83SAPS   H2R 7773   3.745   0.982  10.492  0.6293 -1.2903 -1.9913
   83SAPS   H2S 7774   3.844   0.894  10.621  0.0318 -2.1033  0.1646
   83SAPS    C3 7775   3.562   1.256  10.807 -0.1185  0.3706  0.3169
   83SAPS    HX 7776   3.659   1.290  10.849 -1.5237  2.0483  2.4357
   83SAPS    HY 7777   3.481   1.301  10.869  0.5637  0.8792  0.8530
   83SAPS   O31 7778   3.550   1.304  10.672 -0.1382 -0.3479 -0.4047
   83SAPS   C31 7779   3.434   1.344  10.628  0.0359 -0.2610 -0.0944
   83SAPS   O32 7780   3.327   1.338  10.689  0.1296  0.8941  0.0419
   83SAPS   C32 7781   3.456   1.395  10.488  0.2575  0.0233 -0.4774
   83SAPS   H2X 7782   3.560   1.434  10.482  1.0775 -1.7393  1.2336
   83SAPS   H2Y 7783   3.395   1.486  10.473  0.1350  0.4230  2.0463
   83SAPS   C23 7784   3.729   0.768  10.488  0.0498  0.1490  0.4045
   83SAPS   H3R 7785   3.736   0.682  10.558  1.4763 -1.1831 -1.2743
   83SAPS   H3S 7786   3.810   0.760  10.413 -0.4660 -0.5620 -0.0910
   83SAPS   C24 7787   3.595   0.751  10.408 -0.9141  0.6365 -1.1118
   83SAPS   H4R 7788   3.549   0.850  10.390 -1.2805  0.9615  1.2373
   83SAPS   H4S 7789   3.528   0.694  10.476  1.3092 -1.2544 -0.3808
   83SAPS   C25 7790   3.619   0.658  10.289  0.6975 -0.2452  0.1148
   83SAPS   H5R 7791   3.683   0.573  10.317  3.0577  1.6371  0.8069
   83SAPS   C26 7792   3.590   0.688  10.162 -0.4009 -0.1124 -0.4949
   83SAPS   H6R 7793   3.634   0.618  10.091 -0.0078  1.4907 -1.9047
   83SAPS   C27 7794   3.538   0.818  10.092 -0.1536 -0.4102  0.1333
   83SAPS   H7R 7795   3.595   0.827   9.998  0.6595 -1.6857  0.4873
   83SAPS   H7S 7796   3.556   0.900  10.165  1.2733 -0.0827 -0.5735
   83SAPS   C28 7797   3.389   0.816  10.076 -0.8200 -0.0297 -0.3217
   83SAPS   H8R 7798   3.337   0.833  10.172 -1.0927 -2.9771  0.1636
   83SAPS   C29 7799   3.311   0.789   9.971  0.0205 -0.4842  0.1635
   83SAPS   H9R 7800   3.201   0.789   9.981  0.1607 -0.4334  2.0334
   83SAPS  C210 7801   3.358   0.748   9.829 -0.3143 -1.0381 -0.5048
   83SAPS  H10R 7802   3.312   0.656   9.786  0.3723 -0.2140 -3.1816
   83SAPS  H10S 7803   3.467   0.728   9.837  0.0077  1.0476  1.3758
   83SAPS  C211 7804   3.344   0.862   9.741 -0.4335 -0.7911 -0.3468
   83SAPS  H11R 7805   3.316   0.959   9.787 -3.3552 -1.7891  0.2327
   83SAPS  C212 7806   3.367   0.868   9.612  0.2565  0.1428  0.0669
   83SAPS  H12R 7807   3.354   0.961   9.554 -1.4327  0.5607  1.0302
   83SAPS  C213 7808   3.407   0.757   9.518  0.0778  0.3745 -0.7735
   83SAPS  H13R 7809   3.319   0.693   9.493  0.8772 -1.6398  1.2489
   83SAPS  H13S 7810   3.479   0.688   9.566  1.0423  0.5995 -1.8443
   83SAPS  C214 7811   3.460   0.816   9.388  0.7827  0.1562  0.0721
   83SAPS  H14R 7812   3.564   0.783   9.371  0.3173 -0.4894 -1.7912
   83SAPS  C215 7813   3.405   0.888   9.287 -0.2761  0.1553 -0.4425
   83SAPS  H15R 7814   3.471   0.910   9.202 -1.1246  0.2464 -1.0893
   83SAPS  C216 7815   3.265   0.956   9.282  0.3905  0.3028  0.9912
   83SAPS  H16R 7816   3.281   1.065   9.287 -0.7055  0.5811 -0.8271
   83SAPS  H16S 7817   3.203   0.927   9.370 -1.5845 -0.4616 -0.5604
   83SAPS  C217 7818   3.182   0.916   9.156 -0.0234  0.4103 -0.1175
   83SAPS  H17R 7819   3.093   0.979   9.174  0.3940  0.6059  1.3726
   83SAPS  H17S 7820   3.159   0.808   9.172 -1.4755  1.1210  3.6401
   83SAPS  C218 7821   3.237   0.957   9.020  0.2800 -0.3776 -0.4124
   83SAPS  H18R 7822   3.329   0.901   8.994  0.5195 -0.0194 -0.3381
   83SAPS  H18S 7823   3.258   1.066   9.026 -1.4834 -0.0606  1.6499
   83SAPS  C219 7824   3.138   0.937   8.904 -0.2244 -0.3876 -0.1698
   83SAPS  H19R 7825   3.039   0.980   8.931 -1.2609 -1.8938 -1.3512
   83SAPS  H19S 7826   3.126   0.827   8.894  2.1690 -0.5954 -1.5025
   83SAPS  C220 7827   3.177   1.013   8.780 -0.0036 -0.2044 -0.4842
   83SAPS  H20R 7828   3.102   1.020   8.698 -1.7336 -0.5525  1.0053
   83SAPS  H20S 7829   3.264   0.964   8.731 -0.8043  0.5512 -2.8259
   83SAPS  H20T 7830   3.205   1.120   8.797 -2.7583  1.2531 -3.7682
   83SAPS   C33 7831   3.426   1.298  10.374  0.3638  0.2869 -0.5816
   83SAPS   H3X 7832   3.316   1.279  10.369  0.1923  1.0541  0.1577
   83SAPS   H3Y 7833   3.462   1.200  10.413  0.3369  1.2675  2.1149
   83SAPS   C34 7834   3.496   1.326  10.245 -0.1773  0.7868 -0.4748
   83SAPS   H4X 7835   3.579   1.400  10.254 -0.9767  1.4235  2.6585
   83SAPS   H4Y 7836   3.412   1.361  10.181 -0.2120  2.6984  0.5486
   83SAPS   C35 7837   3.557   1.207  10.162 -0.9225 -0.4164 -0.6077
   83SAPS   H5X 7838   3.468   1.140  10.157 -0.3465 -1.2975  0.5047
   83SAPS   H5Y 7839   3.642   1.156  10.212  0.9172  2.0704 -1.0618
   83SAPS   C36 7840   3.603   1.246  10.019 -0.2478 -0.0037 -0.6443
   83SAPS   H6X 7841   3.686   1.320  10.030 -0.4408 -0.1535  2.6676
   83SAPS   H6Y 7842   3.519   1.304   9.975 -1.0619 -0.4785  0.2645
   83SAPS   C37 7843   3.633   1.128   9.928 -0.1089  0.7890 -0.1604
   83SAPS   H7X 7844   3.542   1.065   9.930  1.4254 -1.5117  0.9517
   83SAPS   H7Y 7845   3.716   1.070   9.974 -0.4114 -1.5725 -2.3450
   83SAPS   C38 7846   3.674   1.153   9.784 -0.0544  0.2748  0.3107
   83SAPS   H8X 7847   3.764   1.217   9.776  0.2125  0.0781  1.5574
   83SAPS   H8Y 7848   3.593   1.206   9.730  0.3107  2.3386  1.7034
   83SAPS   C39 7849   3.698   1.025   9.698 -0.5391 -0.4531 -0.1906
   83SAPS   H9X 7850   3.620   0.947   9.711  0.7978 -1.5140  2.1692
   83SAPS   H9Y 7851   3.799   0.982   9.718  0.3540  0.8959 -1.5252
   83SAPS  C310 7852   3.687   1.061   9.545  0.1769  0.3089  0.1981
   83SAPS  H10X 7853   3.597   1.123   9.525 -0.1678 -1.0209 -2.9228
   83SAPS  H10Y 7854   3.671   0.972   9.480 -0.6880  1.5678 -1.3983
   83SAPS  C311 7855   3.805   1.145   9.484  0.5745  0.0852  0.2261
   83SAPS  H11X 7856   3.898   1.086   9.504  0.5176 -0.3266 -0.6939
   83SAPS  H11Y 7857   3.809   1.238   9.544  3.1709  1.6591 -2.1414
   83SAPS  C312 7858   3.776   1.187   9.338  0.3842 -0.7073 -0.2237
   83SAPS  H12X 7859   3.868   1.219   9.287 -0.7842  0.7516 -1.4982
   83SAPS  H12Y 7860   3.711   1.277   9.339 -1.1878 -1.7813 -0.5436
   83SAPS  C313 7861   3.707   1.087   9.244 -0.4441 -0.1384  0.6843
   83SAPS  H13X 7862   3.597   1.101   9.247 -0.4292 -0.1551  2.3733
   83SAPS  H13Y 7863   3.724   0.983   9.281  3.2264  0.2395  0.3990
   83SAPS  C314 7864   3.748   1.100   9.097  0.0593  0.0355  0.0584
   83SAPS  H14X 7865   3.857   1.088   9.080  0.4086 -2.1028  3.0132
   83SAPS  H14Y 7866   3.729   1.205   9.068  0.9547 -0.2545 -1.7298
   83SAPS  C315 7867   3.666   1.010   9.002 -0.5408 -0.0441  0.2287
   83SAPS  H15X 7868   3.559   1.039   9.009 -0.0730  1.6376  1.0665
   83SAPS  H15Y 7869   3.678   0.905   9.036  0.8968  0.4924  1.5269
   83SAPS  C316 7870   3.710   1.027   8.848 -0.0029  0.1297 -0.0392
   83SAPS  H16X 7871   3.821   1.034   8.847  0.3639 -3.5662  0.5023
   83SAPS  H16Y 7872   3.667   1.123   8.811  1.4516  1.0968  0.6562
   83SAPS  C317 7873   3.662   0.921   8.747 -0.5556 -0.5162 -0.0514
   83SAPS  H17X 7874   3.562   0.877   8.770  0.1684 -1.0817  2.3852
   83SAPS  H17Y 7875   3.734   0.837   8.757  0.3100 -0.2498 -3.1875
   83SAPS  C318 7876   3.650   0.971   8.604 -0.1804 -0.2618 -0.4716
   83SAPS  H18X 7877   3.578   1.055   8.604 -0.7447 -0.7021 -2.0511
   83SAPS  H18Y 7878   3.615   0.892   8.533 -2.6987  1.3643 -1.1931
   83SAPS  H18Z 7879   3.747   1.010   8.568  0.6893 -2.8409 -1.1986
   84SAPS     N 7880   5.647   6.139  10.798  0.6189  0.0405  0.0496
   84SAPS   HN1 7881   5.586   6.074  10.744 -0.5112  0.7291  0.4606
   84SAPS   HN2 7882   5.636   6.237  10.764  1.8152  0.1395 -0.0911
   84SAPS   HN3 7883   5.747   6.115  10.782  0.3545 -0.7524 -0.4843
   84SAPS   C12 7884   5.605   6.130  10.934  0.7918  0.5257  0.4503
   84SAPS  H12A 7885   5.610   6.026  10.960  0.6068 -0.3467 -2.6161
   84SAPS   C13 7886   5.692   6.219  11.035 -0.4767  0.2816  0.2033
   84SAPS  O13A 7887   5.765   6.310  10.990 -0.4992  0.8530 -0.7319
   84SAPS  O13B 7888   5.669   6.202  11.154 -0.1102 -0.1755  0.1066
   84SAPS   C11 7889   5.452   6.177  10.946  0.0595 -0.1129 -0.5476
   84SAPS  H11A 7890   5.454   6.280  10.905  0.2126 -0.5094 -1.5656
   84SAPS  H11B 7891   5.442   6.184  11.057  0.6072  0.6998 -0.5448
   84SAPS     P 7892   5.209   6.071  10.927  0.0796 -0.6796  0.1628
   84SAPS   O13 7893   5.152   5.970  10.834 -0.0399 -0.4677  0.2332
   84SAPS   O14 7894   5.203   6.047  11.077  0.0683  0.0200  0.4707
   84SAPS   O12 7895   5.353   6.105  10.872  0.1492 -0.7135 -0.1703
   84SAPS   O11 7896   5.127   6.209  10.906  0.3766 -0.6125 -0.5105
   84SAPS    C1 7897   4.987   6.207  10.951  0.0572 -0.0051  0.1860
   84SAPS    HA 7898   4.973   6.139  11.037  0.1904 -0.8400 -0.4432
   84SAPS    HB 7899   4.966   6.309  10.991 -1.7473 -0.1017 -0.4209
   84SAPS    C2 7900   4.888   6.175  10.833 -0.0679 -0.3898 -0.1728
   84SAPS    HS 7901   4.932   6.086  10.782 -0.6768 -1.2987  0.8639
   84SAPS   O21 7902   4.887   6.299  10.749  0.5264  0.8221  0.1946
   84SAPS   C21 7903   4.874   6.277  10.625 -0.1557  0.6330  0.2148
   84SAPS   O22 7904   4.898   6.164  10.572  0.4377 -0.2017 -0.7000
   84SAPS   C22 7905   4.844   6.408  10.552 -0.1825  0.8340 -0.0527
   84SAPS   H2R 7906   4.747   6.453  10.585 -0.3260 -0.9151  2.1386
   84SAPS   H2S 7907   4.927   6.479  10.572 -2.2287  2.6805  2.7513
   84SAPS    C3 7908   4.754   6.145  10.895 -0.4592  0.1423 -0.0927
   84SAPS    HX 7909   4.719   6.232  10.955 -2.3296 -0.0412 -0.8305
   84SAPS    HY 7910   4.763   6.056  10.960 -0.0499  0.6601  0.5709
   84SAPS   O31 7911   4.653   6.125  10.788  0.5760 -0.2403 -0.8114
   84SAPS   C31 7912   4.668   6.006  10.728  0.4845 -0.2059  0.0851
   84SAPS   O32 7913   4.747   5.919  10.750 -0.4205 -0.4701 -0.2589
   84SAPS   C32 7914   4.552   5.985  10.627 -0.5089 -0.4117 -1.0019
   84SAPS   H2X 7915   4.536   6.089  10.590  0.1364  0.6539  1.4767
   84SAPS   H2Y 7916   4.461   5.956  10.683  0.3242 -0.3333  0.4466
   84SAPS   C23 7917   4.833   6.379  10.397 -0.3886 -0.5984 -0.4049
   84SAPS   H3R 7918   4.732   6.349  10.364 -0.4441  1.1154 -1.9213
   84SAPS   H3S 7919   4.910   6.304  10.368 -1.2818 -0.6590 -2.8413
   84SAPS   C24 7920   4.856   6.502  10.310 -0.1815  0.0440 -0.5065
   84SAPS   H4R 7921   4.963   6.532  10.314 -0.0085 -0.6244  0.1590
   84SAPS   H4S 7922   4.789   6.585  10.338  1.3207  1.6416 -1.4484
   84SAPS   C25 7923   4.828   6.474  10.163 -0.1043  0.1251  0.0412
   84SAPS   H5R 7924   4.824   6.367  10.137  3.0551 -0.6257  2.0059
   84SAPS   C26 7925   4.776   6.553  10.069 -0.2041 -0.3102 -0.4624
   84SAPS   H6R 7926   4.756   6.517   9.967 -1.1810 -1.4442  0.0994
   84SAPS   C27 7927   4.731   6.699  10.090 -1.0472 -0.5354  0.6891
   84SAPS   H7R 7928   4.658   6.682  10.172  0.0665 -1.8643  1.4411
   84SAPS   H7S 7929   4.662   6.728  10.008 -2.3079  0.2070  1.9649
   84SAPS   C28 7930   4.849   6.791  10.123 -0.1572  0.1361 -0.0034
   84SAPS   H8R 7931   4.888   6.782  10.225  0.0632  0.1570 -0.0856
   84SAPS   C29 7932   4.919   6.872  10.039  0.2536  0.2862 -0.6994
   84SAPS   H9R 7933   5.000   6.933  10.080 -0.9759  0.9558  0.8500
   84SAPS  C210 7934   4.891   6.888   9.894 -0.5393  0.1484  0.3090
   84SAPS  H10R 7935   4.862   6.990   9.860  1.6160  0.3015 -1.2833
   84SAPS  H10S 7936   4.802   6.823   9.878 -2.3491  2.8846 -1.9393
   84SAPS  C211 7937   5.021   6.871   9.817  0.3308 -0.1257 -0.7539
   84SAPS  H11R 7938   5.113   6.901   9.871 -0.6543  0.4114  0.6954
   84SAPS  C212 7939   5.036   6.803   9.704 -0.2306  0.1984 -0.4850
   84SAPS  H12R 7940   5.135   6.792   9.657 -0.5913  2.9053 -2.1041
   84SAPS  C213 7941   4.921   6.727   9.628 -0.4314 -1.5117 -0.5324
   84SAPS  H13R 7942   4.938   6.733   9.519 -0.7503  2.3531 -0.5039
   84SAPS  H13S 7943   4.822   6.774   9.646  0.7869  0.6544  0.9446
   84SAPS  C214 7944   4.903   6.588   9.678 -0.0012 -0.3605 -0.2854
   84SAPS  H14R 7945   4.975   6.548   9.751 -1.5794 -0.8609  1.0545
   84SAPS  C215 7946   4.808   6.506   9.650  0.0834 -0.4161 -0.0149
   84SAPS  H15R 7947   4.812   6.421   9.719  2.5598 -0.1611  0.2478
   84SAPS  C216 7948   4.688   6.526   9.562  0.3518 -0.0006 -0.1505
   84SAPS  H16R 7949   4.668   6.632   9.535 -2.1316 -0.8767 -2.2235
   84SAPS  H16S 7950   4.604   6.483   9.622  0.0640  1.2111  0.3369
   84SAPS  C217 7951   4.701   6.459   9.427  0.4850  0.2192  0.2340
   84SAPS  H17R 7952   4.598   6.472   9.387  0.2511  1.1177  1.0815
   84SAPS  H17S 7953   4.719   6.350   9.430  2.7624  0.5727  1.3148
   84SAPS  C218 7954   4.815   6.518   9.340  0.3913  1.2801 -0.2432
   84SAPS  H18R 7955   4.913   6.482   9.378 -0.3497 -2.5554 -1.5182
   84SAPS  H18S 7956   4.820   6.629   9.341 -2.7470  1.5427 -1.8857
   84SAPS  C219 7957   4.819   6.462   9.189  0.2792 -0.4211 -0.7924
   84SAPS  H19R 7958   4.906   6.513   9.144  0.2697  1.5793  1.2788
   84SAPS  H19S 7959   4.725   6.497   9.141  0.8646 -0.2830 -1.8691
   84SAPS  C220 7960   4.843   6.317   9.155  0.1920  0.2098 -0.0980
   84SAPS  H20R 7961   4.946   6.279   9.173  1.4625  0.8435 -4.8739
   84SAPS  H20S 7962   4.836   6.309   9.045  2.0497  1.2991 -0.3372
   84SAPS  H20T 7963   4.762   6.251   9.193  1.7919  0.2909  3.9393
   84SAPS   C33 7964   4.588   5.881  10.521  0.1173  0.6576 -0.6073
   84SAPS   H3X 7965   4.492   5.842  10.482 -0.9520 -0.8385  3.0732
   84SAPS   H3Y 7966   4.636   5.795  10.573 -0.9508  0.0760 -0.5471
   84SAPS   C34 7967   4.676   5.929  10.404 -0.5866  0.0102  0.0383
   84SAPS   H4X 7968   4.715   5.842  10.346  0.6036  1.1972 -1.0214
   84SAPS   H4Y 7969   4.769   5.978  10.440  0.6992 -1.4599 -1.0992
   84SAPS   C35 7970   4.608   6.036  10.314 -0.5814  0.3336 -0.6629
   84SAPS   H5X 7971   4.582   6.116  10.387 -1.7934  0.1757 -0.8854
   84SAPS   H5Y 7972   4.523   5.977  10.273  1.6950 -1.7300 -2.7092
   84SAPS   C36 7973   4.682   6.093  10.191  1.3014 -0.1442 -0.2270
   84SAPS   H6X 7974   4.781   6.140  10.212  1.2670  0.2087 -0.8605
   84SAPS   H6Y 7975   4.621   6.174  10.147  0.1161 -1.6370 -1.4445
   84SAPS   C37 7976   4.690   5.982  10.086  0.0762  0.8989  0.0194
   84SAPS   H7X 7977   4.596   5.923  10.088  1.3211 -1.2205  1.4127
   84SAPS   H7Y 7978   4.760   5.899  10.113 -1.0981 -0.5459 -1.1765
   84SAPS   C38 7979   4.699   6.019   9.938  0.3317 -0.3544  0.0938
   84SAPS   H8X 7980   4.676   5.932   9.874 -0.5072 -0.2269  0.2002
   84SAPS   H8Y 7981   4.802   6.057   9.923 -0.3643  3.1041  2.6914
   84SAPS   C39 7982   4.618   6.146   9.891 -0.4857 -0.7606 -0.1486
   84SAPS   H9X 7983   4.656   6.235   9.944 -0.9182 -1.1536  0.8446
   84SAPS   H9Y 7984   4.514   6.127   9.923 -0.0883 -1.2440  0.8896
   84SAPS  C310 7985   4.633   6.179   9.743  0.5297  0.7697  0.3287
   84SAPS  H10X 7986   4.740   6.186   9.712  0.5818 -0.1531  0.2763
   84SAPS  H10Y 7987   4.591   6.280   9.726 -0.4220  0.3323  0.0100
   84SAPS  C311 7988   4.582   6.065   9.647 -0.1979 -0.6411  1.1562
   84SAPS  H11X 7989   4.486   6.037   9.696 -1.1218  1.4491  0.6628
   84SAPS  H11Y 7990   4.640   5.971   9.639  0.2652 -0.3020  0.4591
   84SAPS  C312 7991   4.536   6.119   9.511 -0.1337 -0.2305  0.2622
   84SAPS  H12X 7992   4.616   6.167   9.451 -1.6704  1.3093 -0.6606
   84SAPS  H12Y 7993   4.449   6.186   9.530 -0.0266  0.6194 -1.9869
   84SAPS  C313 7994   4.476   6.007   9.425 -0.3137 -0.2422 -0.7199
   84SAPS  H13X 7995   4.400   5.942   9.474 -0.6397  0.8365  0.2590
   84SAPS  H13Y 7996   4.557   5.939   9.392  0.4955  0.9579 -1.2875
   84SAPS  C314 7997   4.412   6.054   9.296  0.1243  0.0847 -0.5359
   84SAPS  H14X 7998   4.368   6.155   9.315  1.2560  0.4742  0.1282
   84SAPS  H14Y 7999   4.334   5.985   9.257  1.3866  0.2045 -3.5737
   84SAPS  C315 8000   4.507   6.061   9.183 -0.4173  0.1825 -0.0215
   84SAPS  H15X 8001   4.554   5.961   9.172  0.5775  0.4337  1.6041
   84SAPS  H15Y 8002   4.592   6.124   9.218 -0.6823 -0.6033  2.2013
   84SAPS  C316 8003   4.438   6.110   9.047 -0.3245  0.5547  0.8279
   84SAPS  H16X 8004   4.419   6.219   9.049 -1.7050  0.3635 -0.2377
   84SAPS  H16Y 8005   4.343   6.060   9.019  0.1139  1.3759 -2.4748
   84SAPS  C317 8006   4.518   6.080   8.919  0.7250  0.2024  0.1100
   84SAPS  H17X 8007   4.474   6.153   8.848  1.9536  0.5429 -0.3267
   84SAPS  H17Y 8008   4.511   5.969   8.910 -1.0566  0.2175  1.0517
   84SAPS  C318 8009   4.669   6.109   8.917  0.2788 -0.6604 -0.1806
   84SAPS  H18X 8010   4.715   6.041   8.842 -0.1775 -0.1177 -0.9686
   84SAPS  H18Y 8011   4.703   6.094   9.022 -1.3984  0.2467  0.5430
   84SAPS  H18Z 8012   4.676   6.217   8.891  0.3637 -0.7727 -0.6182
   85SAPS     N 8013   2.921   0.931  11.215 -0.2862 -0.1039 -0.5049
   85SAPS   HN1 8014   2.840   0.878  11.177 -1.9533  0.8210  1.5031
   85SAPS   HN2 8015   2.977   0.964  11.134 -0.2422  0.1877 -0.3585
   85SAPS   HN3 8016   2.987   0.864  11.258 -1.3156 -1.6413 -1.2413
   85SAPS   C12 8017   2.864   1.024  11.313 -0.3271 -0.3695  0.5715
   85SAPS  H12A 8018   2.790   0.967  11.367  0.2044 -0.3467  1.3525
   85SAPS   C13 8019   2.961   1.072  11.429  0.2788  0.4271  0.4433
   85SAPS  O13A 8020   3.074   1.013  11.430 -0.0955 -0.6085 -0.6679
   85SAPS  O13B 8021   2.916   1.143  11.516 -0.0832 -0.2627  0.2104
   85SAPS   C11 8022   2.820   1.144  11.233  0.7983  0.0033 -0.2376
   85SAPS  H11A 8023   2.900   1.191  11.173 -0.5985  2.6295 -0.1840
   85SAPS  H11B 8024   2.786   1.225  11.301  1.1010  1.7920 -2.1347
   85SAPS     P 8025   2.665   1.214  11.041  0.1393 -0.0014 -0.2576
   85SAPS   O13 8026   2.522   1.249  11.050  0.2752 -0.0181  0.2428
   85SAPS   O14 8027   2.760   1.329  11.039  0.1761  0.2249  0.3069
   85SAPS   O12 8028   2.698   1.109  11.155 -0.1633  0.2650 -0.4643
   85SAPS   O11 8029   2.693   1.128  10.909  0.4666  0.4526 -0.4428
   85SAPS    C1 8030   2.822   1.076  10.892  0.2949 -0.1338  0.3034
   85SAPS    HA 8031   2.906   1.146  10.910  0.8145 -1.1770  2.1591
   85SAPS    HB 8032   2.835   0.991  10.963  2.0357  0.3288  0.5883
   85SAPS    C2 8033   2.847   1.030  10.736  0.6476  0.3204 -0.8134
   85SAPS    HS 8034   2.957   1.015  10.729  0.7302  0.9677 -1.0359
   85SAPS   O21 8035   2.800   1.127  10.649 -0.2970 -0.5030  0.0757
   85SAPS   C21 8036   2.881   1.237  10.647 -0.7223 -0.1958  0.1524
   85SAPS   O22 8037   2.994   1.240  10.695  0.3377 -0.2984 -0.1218
   85SAPS   C22 8038   2.807   1.343  10.573  0.4388  0.1128  0.4213
   85SAPS   H2R 8039   2.752   1.292  10.492  1.0630 -0.5816  0.4318
   85SAPS   H2S 8040   2.733   1.392  10.640  3.0101  1.1708  2.6643
   85SAPS    C3 8041   2.763   0.899  10.709 -0.2000  0.8125  1.4318
   85SAPS    HX 8042   2.660   0.917  10.745 -0.6659  0.4675  0.3336
   85SAPS    HY 8043   2.812   0.831  10.782  0.9466  0.3598  0.2933
   85SAPS   O31 8044   2.777   0.849  10.568  0.4212  0.3293  0.3858
   85SAPS   C31 8045   2.683   0.904  10.490 -0.3657 -0.0078 -0.4747
   85SAPS   O32 8046   2.591   0.974  10.532  0.0733  0.0736  0.2068
   85SAPS   C32 8047   2.726   0.882  10.348 -0.3242  0.0199 -0.1118
   85SAPS   H2X 8048   2.691   0.781  10.320  1.4359 -0.6170 -0.1366
   85SAPS   H2Y 8049   2.836   0.887  10.334 -0.4947  0.5287 -1.3640
   85SAPS   C23 8050   2.905   1.452  10.521  0.1244  0.5511  0.0079
   85SAPS   H3R 8051   2.960   1.495  10.607 -0.7799 -1.2676  1.5698
   85SAPS   H3S 8052   2.843   1.532  10.475 -1.2472 -0.8179 -0.6071
   85SAPS   C24 8053   3.010   1.399  10.423  0.6481  0.5036  0.5203
   85SAPS   H4R 8054   2.957   1.371  10.329  0.6629  0.0173  0.6547
   85SAPS   H4S 8055   3.054   1.308  10.469 -0.8583 -1.2475 -1.3116
   85SAPS   C25 8056   3.097   1.525  10.398 -0.1109  0.0728  0.0505
   85SAPS   H5R 8057   3.171   1.550  10.477  0.6603  1.5474 -1.0919
   85SAPS   C26 8058   3.106   1.608  10.287 -0.0911 -0.0823 -0.4722
   85SAPS   H6R 8059   3.155   1.706  10.294  2.7172 -1.4691  0.6484
   85SAPS   C27 8060   3.005   1.577  10.179 -1.3011 -0.4341  0.1685
   85SAPS   H7R 8061   2.904   1.544  10.210 -0.7425 -0.2005  2.4030
   85SAPS   H7S 8062   3.060   1.505  10.115  2.5354  2.3530 -0.0239
   85SAPS   C28 8063   2.977   1.702  10.093 -0.5120  0.3537  0.2507
   85SAPS   H8R 8064   3.029   1.795  10.121  2.1530 -0.8439 -0.3652
   85SAPS   C29 8065   2.902   1.707   9.978  0.9739  0.0707  0.3106
   85SAPS   H9R 8066   2.893   1.803   9.926  3.0827 -0.2505 -0.7680
   85SAPS  C210 8067   2.835   1.590   9.910  0.0591  0.3432 -0.3088
   85SAPS  H10R 8068   2.768   1.537   9.982 -0.7545  1.3389 -0.3020
   85SAPS  H10S 8069   2.916   1.521   9.879 -1.3435 -2.2884  1.4731
   85SAPS  C211 8070   2.758   1.633   9.792  0.2026  0.4509 -0.7376
   85SAPS  H11R 8071   2.659   1.677   9.813  0.1218 -0.6522  1.5492
   85SAPS  C212 8072   2.801   1.633   9.666 -0.4120  0.3564 -0.4207
   85SAPS  H12R 8073   2.721   1.655   9.594  0.7222  0.3605 -1.7189
   85SAPS  C213 8074   2.935   1.593   9.611  0.2496  0.4278 -1.3190
   85SAPS  H13R 8075   2.936   1.484   9.589  0.7665  0.1605 -0.0462
   85SAPS  H13S 8076   3.009   1.595   9.694 -0.8599 -3.2937 -0.0260
   85SAPS  C214 8077   2.986   1.681   9.500 -0.2945  0.0134  0.0963
   85SAPS  H14R 8078   3.036   1.775   9.529 -0.9361  1.0387 -1.9773
   85SAPS  C215 8079   2.993   1.642   9.371 -0.2900  0.1818 -0.0028
   85SAPS  H15R 8080   3.041   1.715   9.304 -0.0184 -0.2274 -0.2580
   85SAPS  C216 8081   2.944   1.507   9.325 -0.0658  0.0483 -0.3406
   85SAPS  H16R 8082   2.862   1.466   9.388 -0.0213 -1.4081 -1.1806
   85SAPS  H16S 8083   3.029   1.434   9.326  0.9512  1.1834 -1.2411
   85SAPS  C217 8084   2.875   1.524   9.186 -1.0032 -0.0703 -0.1717
   85SAPS  H17R 8085   2.865   1.428   9.130 -2.5319  0.6568 -1.2049
   85SAPS  H17S 8086   2.932   1.591   9.118 -0.0002  0.7617  1.4202
   85SAPS  C218 8087   2.729   1.570   9.209  0.6195  0.2038  0.0022
   85SAPS  H18R 8088   2.742   1.676   9.241  0.7790  0.5253 -1.0603
   85SAPS  H18S 8089   2.668   1.509   9.278  1.2717 -0.5187 -0.0431
   85SAPS  C219 8090   2.656   1.586   9.073  0.1413  0.1606  0.0764
   85SAPS  H19R 8091   2.553   1.624   9.089 -0.1123 -0.5670  0.1886
   85SAPS  H19S 8092   2.648   1.488   9.021  0.4270  0.1925 -0.0284
   85SAPS  C220 8093   2.717   1.686   8.978 -0.0540 -0.8792  0.2389
   85SAPS  H20R 8094   2.647   1.728   8.903  1.0874  0.1011 -0.3139
   85SAPS  H20S 8095   2.783   1.629   8.910  0.7421 -0.3982  0.5838
   85SAPS  H20T 8096   2.773   1.769   9.028  1.0942 -1.9099  0.7195
   85SAPS   C33 8097   2.642   0.984  10.262  0.3314 -0.3991 -0.3128
   85SAPS   H3X 8098   2.671   1.091  10.272 -2.3759  0.6356 -2.3587
   85SAPS   H3Y 8099   2.544   0.987  10.313  1.5057  2.0011  2.0800
   85SAPS   C34 8100   2.636   0.944  10.115  0.0232  0.2659  0.4935
   85SAPS   H4X 8101   2.565   0.858  10.110  0.3196  0.0450  0.0230
   85SAPS   H4Y 8102   2.740   0.920  10.085  0.6070  1.7821  1.1959
   85SAPS   C35 8103   2.580   1.044  10.020 -0.0645 -0.2709  0.4196
   85SAPS   H5X 8104   2.616   1.147  10.042 -1.7135  0.4237  0.0501
   85SAPS   H5Y 8105   2.472   1.060  10.039 -0.0495  0.3619 -0.0008
   85SAPS   C36 8106   2.605   1.005   9.876 -0.1421  0.0081 -0.3852
   85SAPS   H6X 8107   2.565   0.905   9.848 -1.0473  0.3269 -0.2663
   85SAPS   H6Y 8108   2.715   0.996   9.863 -0.2254 -0.7687 -0.5598
   85SAPS   C37 8109   2.554   1.109   9.777 -0.0072 -0.4449 -0.6684
   85SAPS   H7X 8110   2.612   1.204   9.780  1.1302 -1.0170  3.8680
   85SAPS   H7Y 8111   2.459   1.150   9.817  2.0127  2.6653  1.4728
   85SAPS   C38 8112   2.536   1.062   9.631  0.4170 -0.2009  0.3640
   85SAPS   H8X 8113   2.472   0.972   9.639 -1.3958  0.9963  0.1267
   85SAPS   H8Y 8114   2.625   1.021   9.579 -1.6214 -2.7302 -1.4041
   85SAPS   C39 8115   2.469   1.173   9.546  0.6015 -0.7890  0.3767
   85SAPS   H9X 8116   2.536   1.258   9.522  0.3527 -0.4050  1.0095
   85SAPS   H9Y 8117   2.380   1.205   9.603 -0.6818 -0.2311 -1.8314
   85SAPS  C310 8118   2.433   1.119   9.409  0.4992 -0.8090 -0.1356
   85SAPS  H10X 8119   2.359   1.038   9.424  0.9086 -1.1617 -0.0348
   85SAPS  H10Y 8120   2.526   1.081   9.361  0.7239 -1.2299  0.6234
   85SAPS  C311 8121   2.367   1.218   9.306  0.2901  0.2811  0.4855
   85SAPS  H11X 8122   2.441   1.286   9.259 -0.4177  1.3657  0.8995
   85SAPS  H11Y 8123   2.313   1.283   9.379 -1.3094  0.1029 -0.4927
   85SAPS  C312 8124   2.275   1.146   9.207 -0.1412 -0.7525  0.2446
   85SAPS  H12X 8125   2.255   1.224   9.131 -1.7709  0.0027  1.3714
   85SAPS  H12Y 8126   2.178   1.120   9.255 -1.4979  0.8807 -1.4677
   85SAPS  C313 8127   2.326   1.019   9.131 -0.1784 -0.2765 -0.4665
   85SAPS  H13X 8128   2.346   0.936   9.202  0.0790  0.9309  0.8991
   85SAPS  H13Y 8129   2.427   1.036   9.088 -0.1243  0.6466  0.0112
   85SAPS  C314 8130   2.228   0.964   9.024 -0.8458 -0.8001 -0.4719
   85SAPS  H14X 8131   2.230   1.032   8.936  3.2426 -0.4610 -0.2816
   85SAPS  H14Y 8132   2.123   0.959   9.062 -0.1621  0.1363  1.6978
   85SAPS  C315 8133   2.293   0.834   8.982  0.2437 -0.1207 -0.3157
   85SAPS  H15X 8134   2.219   0.779   8.919  1.1190 -1.1995 -0.4494
   85SAPS  H15Y 8135   2.324   0.779   9.074  0.8758 -2.2717 -1.7274
   85SAPS  C316 8136   2.413   0.844   8.889 -0.8653 -0.1648 -0.0998
   85SAPS  H16X 8137   2.458   0.742   8.895  1.0035  0.6764  1.4397
   85SAPS  H16Y 8138   2.490   0.921   8.911 -0.2712 -0.7415 -0.1233
   85SAPS  C317 8139   2.380   0.875   8.746 -0.2669  0.4095  0.3244
   85SAPS  H17X 8140   2.371   0.984   8.728  2.1235  0.4497 -1.1895
   85SAPS  H17Y 8141   2.287   0.825   8.711  2.0409 -3.5751 -0.8279
   85SAPS  C318 8142   2.493   0.839   8.641 -0.0842  0.5337  0.1806
   85SAPS  H18X 8143   2.580   0.894   8.683  0.3327  0.8162 -1.0059
   85SAPS  H18Y 8144   2.480   0.873   8.536 -0.0774 -0.3477 -0.1125
   85SAPS  H18Z 8145   2.517   0.730   8.640 -0.8888  0.3556  0.0378
   86SAPS     N 8146   5.615   1.201  11.103 -0.0587  0.1970 -0.0934
   86SAPS   HN1 8147   5.523   1.248  11.099 -0.1550  0.3209  2.1716
   86SAPS   HN2 8148   5.599   1.100  11.119 -0.0621  0.2456  0.2084
   86SAPS   HN3 8149   5.659   1.244  11.187  0.4741 -0.9775  0.2551
   86SAPS   C12 8150   5.674   1.233  10.969 -0.7027 -0.0173  0.1084
   86SAPS  H12A 8151   5.731   1.324  10.979 -1.1887  0.1551  1.6630
   86SAPS   C13 8152   5.768   1.129  10.918  0.2404  0.5825 -0.5311
   86SAPS  O13A 8153   5.768   1.011  10.964  0.2171  0.2870  0.2989
   86SAPS  O13B 8154   5.838   1.159  10.816 -0.0384 -0.3528  0.1326
   86SAPS   C11 8155   5.565   1.250  10.863  0.2549 -0.2128 -0.2968
   86SAPS  H11A 8156   5.511   1.158  10.829 -0.1001  0.5047 -1.7817
   86SAPS  H11B 8157   5.617   1.291  10.774 -2.7007  0.3581 -1.9073
   86SAPS     P 8158   5.323   1.320  10.945 -0.5818 -0.2292 -0.3168
   86SAPS   O13 8159   5.336   1.266  11.081  0.1007  0.5345 -0.6390
   86SAPS   O14 8160   5.242   1.445  10.936  0.9131 -0.6180 -0.6989
   86SAPS   O12 8161   5.469   1.354  10.891 -0.7810  0.1894 -0.7871
   86SAPS   O11 8162   5.268   1.211  10.849 -0.0338 -0.0326 -0.6677
   86SAPS    C1 8163   5.151   1.131  10.860  0.0618 -0.3642 -0.1010
   86SAPS    HA 8164   5.184   1.026  10.867  2.0889  0.0876 -1.8411
   86SAPS    HB 8165   5.078   1.171  10.934 -0.5426 -2.0666  0.2557
   86SAPS    C2 8166   5.069   1.112  10.729  0.6358 -0.2531  0.6030
   86SAPS    HS 8167   5.116   1.039  10.659 -1.2432 -0.6333 -0.3250
   86SAPS   O21 8168   5.053   1.238  10.670 -0.0482 -0.2624  0.7561
   86SAPS   C21 8169   5.141   1.275  10.577 -0.1874 -0.1735 -0.2236
   86SAPS   O22 8170   5.244   1.212  10.545  0.3139 -0.6110  0.1704
   86SAPS   C22 8171   5.095   1.404  10.516 -0.0232 -0.1756 -0.1350
   86SAPS   H2R 8172   5.000   1.382  10.463 -0.5035  1.2178  0.1130
   86SAPS   H2S 8173   5.074   1.489  10.584 -0.6239 -0.0124 -0.5085
   86SAPS    C3 8174   4.932   1.060  10.767  0.6937  0.5848  0.4574
   86SAPS    HX 8175   4.883   1.125  10.843  0.8825 -0.8446  1.8664
   86SAPS    HY 8176   4.941   0.957  10.807 -3.7440 -0.2710 -0.1673
   86SAPS   O31 8177   4.833   1.071  10.663 -0.2481  0.3718  0.4516
   86SAPS   C31 8178   4.847   0.987  10.561  0.6262 -0.5227  0.0605
   86SAPS   O32 8179   4.937   0.909  10.546 -0.3379  0.1583 -0.5693
   86SAPS   C32 8180   4.740   1.018  10.459  0.0672  0.1846  0.2474
   86SAPS   H2X 8181   4.791   1.085  10.387  1.0261  0.3319  1.0448
   86SAPS   H2Y 8182   4.650   1.063  10.506 -1.5067 -0.8257 -1.6470
   86SAPS   C23 8183   5.193   1.455  10.407 -0.4768 -0.2432 -0.1410
   86SAPS   H3R 8184   5.209   1.376  10.330  0.1865  0.2218 -0.4863
   86SAPS   H3S 8185   5.286   1.482  10.462 -0.7225 -0.9891  0.6694
   86SAPS   C24 8186   5.125   1.580  10.343  0.0129 -0.4533  0.6561
   86SAPS   H4R 8187   5.120   1.654  10.425 -1.8488 -1.2175  1.3068
   86SAPS   H4S 8188   5.019   1.556  10.321  0.6482 -2.6230 -0.4348
   86SAPS   C25 8189   5.211   1.611  10.227 -0.0617 -0.4852  0.4863
   86SAPS   H5R 8190   5.305   1.555  10.231 -1.3643 -2.8365  0.2059
   86SAPS   C26 8191   5.179   1.685  10.121 -0.1359  0.3142  0.0295
   86SAPS   H6R 8192   5.255   1.695  10.041 -2.0155  0.4888 -1.8065
   86SAPS   C27 8193   5.049   1.759  10.110 -0.6605  0.0824  0.1430
   86SAPS   H7R 8194   4.971   1.701  10.163  0.6387 -2.3626 -0.4854
   86SAPS   H7S 8195   5.025   1.762  10.002 -0.5366 -2.3048 -0.0035
   86SAPS   C28 8196   5.052   1.886  10.187  0.2883 -0.5985  0.0785
   86SAPS   H8R 8197   5.033   1.875  10.294  0.3934 -3.8917 -0.1416
   86SAPS   C29 8198   5.047   2.017  10.138 -0.4741  0.2846 -0.3315
   86SAPS   H9R 8199   5.052   2.104  10.205 -0.9581 -1.0172  1.4778
   86SAPS  C210 8200   5.057   2.043   9.992 -0.0996 -0.2992 -0.0372
   86SAPS  H10R 8201   4.958   2.077   9.955  0.6698 -1.7267 -3.8455
   86SAPS  H10S 8202   5.076   1.955   9.928  2.7162  0.2187 -0.0568
   86SAPS  C211 8203   5.162   2.147   9.956 -0.1995 -0.1375 -1.1043
   86SAPS  H11R 8204   5.216   2.194  10.039 -0.8591  0.1255 -0.8160
   86SAPS  C212 8205   5.195   2.188   9.838 -0.4953  0.2887 -0.0953
   86SAPS  H12R 8206   5.282   2.254   9.831 -0.3976  0.2325  0.5205
   86SAPS  C213 8207   5.143   2.146   9.699 -0.8609  0.0405 -0.0992
   86SAPS  H13R 8208   5.154   2.234   9.633 -0.8294 -0.0752 -0.2475
   86SAPS  H13S 8209   5.034   2.125   9.706 -0.8366 -0.6506 -1.5545
   86SAPS  C214 8210   5.221   2.032   9.640  0.6999  0.7122  0.2702
   86SAPS  H14R 8211   5.264   1.961   9.712  1.0379  1.7376  1.1072
   86SAPS  C215 8212   5.199   1.996   9.517  0.1142  0.2057 -0.5147
   86SAPS  H15R 8213   5.268   1.924   9.471 -0.3089  0.2199 -1.1814
   86SAPS  C216 8214   5.106   2.058   9.415  0.1574 -0.6523 -0.3055
   86SAPS  H16R 8215   5.114   2.168   9.422 -0.1955 -0.4923 -1.8976
   86SAPS  H16S 8216   5.000   2.036   9.436  0.3303  0.4854  1.9911
   86SAPS  C217 8217   5.137   2.012   9.270 -0.0333 -0.2796 -0.3109
   86SAPS  H17R 8218   5.079   1.922   9.240 -1.4443  0.2897  0.5797
   86SAPS  H17S 8219   5.243   1.979   9.266  0.5564  1.2372  1.3045
   86SAPS  C218 8220   5.123   2.122   9.170 -0.6722 -0.1833  0.9706
   86SAPS  H18R 8221   5.190   2.208   9.192  0.5511 -0.4752 -1.2861
   86SAPS  H18S 8222   5.016   2.152   9.162 -0.7827 -0.8339 -0.2057
   86SAPS  C219 8223   5.146   2.075   9.019 -0.1700 -0.7845 -0.2838
   86SAPS  H19R 8224   5.115   1.968   9.017 -0.4264 -0.7337  0.5267
   86SAPS  H19S 8225   5.256   2.071   9.010 -0.2766 -1.8762 -1.3155
   86SAPS  C220 8226   5.076   2.168   8.919  0.0278 -0.1510  0.3804
   86SAPS  H20R 8227   4.967   2.151   8.917  0.1335 -0.7409 -0.7100
   86SAPS  H20S 8228   5.102   2.153   8.812 -0.2054  0.6544  0.2045
   86SAPS  H20T 8229   5.099   2.276   8.935 -1.7711  0.1100  1.4970
   86SAPS   C33 8230   4.703   0.891  10.384 -0.3071  0.0728  0.5960
   86SAPS   H3X 8231   4.636   0.824  10.443 -0.2488 -1.8429 -1.3788
   86SAPS   H3Y 8232   4.791   0.831  10.352 -0.5689 -0.9044  1.6501
   86SAPS   C34 8233   4.605   0.923  10.270  0.0804 -0.4623 -0.1980
   86SAPS   H4X 8234   4.543   1.003  10.317 -0.5365 -1.7209  1.2025
   86SAPS   H4Y 8235   4.540   0.838  10.241  1.8125 -1.7964 -0.3444
   86SAPS   C35 8236   4.678   0.966  10.141  0.1667 -0.4423  0.3850
   86SAPS   H5X 8237   4.760   0.892  10.126  0.9460  0.5910 -0.6308
   86SAPS   H5Y 8238   4.729   1.061  10.165 -3.0847  1.6176 -0.2978
   86SAPS   C36 8239   4.592   0.987  10.015 -0.2290  0.1509  0.1198
   86SAPS   H6X 8240   4.521   1.071  10.027 -0.9322 -0.0542 -2.0992
   86SAPS   H6Y 8241   4.529   0.897   9.999  0.4496 -0.6553  1.7239
   86SAPS   C37 8242   4.685   1.010   9.898 -0.2129 -0.4665 -0.3862
   86SAPS   H7X 8243   4.732   0.917   9.861 -2.1921 -2.6540  2.2104
   86SAPS   H7Y 8244   4.759   1.087   9.931  2.1733 -2.4455 -0.8506
   86SAPS   C38 8245   4.612   1.090   9.783  0.1787 -0.3649 -0.2340
   86SAPS   H8X 8246   4.546   1.167   9.828  0.1943 -0.5532  0.1138
   86SAPS   H8Y 8247   4.553   1.010   9.734 -0.5270  0.4027 -0.6720
   86SAPS   C39 8248   4.702   1.165   9.685 -0.2705  0.2928  0.4065
   86SAPS   H9X 8249   4.781   1.096   9.649  0.4607 -0.2982  2.9579
   86SAPS   H9Y 8250   4.747   1.252   9.737 -0.3354  0.4397  0.2188
   86SAPS  C310 8251   4.615   1.222   9.566 -0.0959 -0.0193  0.6596
   86SAPS  H10X 8252   4.517   1.253   9.608 -0.3339 -0.9001  0.7863
   86SAPS  H10Y 8253   4.600   1.136   9.496 -0.0095  0.5322 -0.0484
   86SAPS  C311 8254   4.673   1.339   9.486  0.0689  0.3889  0.1855
   86SAPS  H11X 8255   4.762   1.297   9.435  2.1640  0.4497  3.4789
   86SAPS  H11Y 8256   4.704   1.416   9.560  1.5135  0.1988 -0.1914
   86SAPS  C312 8257   4.580   1.391   9.380  0.4323 -1.0012 -0.5599
   86SAPS  H12X 8258   4.636   1.469   9.325 -0.8705 -1.0681 -2.0551
   86SAPS  H12Y 8259   4.489   1.441   9.420  2.6415  0.5274  3.1217
   86SAPS  C313 8260   4.564   1.289   9.262 -0.5523  0.3309  0.2173
   86SAPS  H13X 8261   4.491   1.213   9.298 -3.1329  2.4304 -0.2129
   86SAPS  H13Y 8262   4.667   1.249   9.257 -1.1267 -1.0591 -1.1419
   86SAPS  C314 8263   4.519   1.353   9.134 -0.1279 -0.4618 -0.4640
   86SAPS  H14X 8264   4.545   1.458   9.112 -0.4072 -0.5544 -1.2764
   86SAPS  H14Y 8265   4.409   1.332   9.133 -0.1218 -0.4869 -1.3008
   86SAPS  C315 8266   4.582   1.275   9.020  0.2966  0.4026 -0.0289
   86SAPS  H15X 8267   4.581   1.167   9.045 -0.7445  0.3224 -0.3586
   86SAPS  H15Y 8268   4.684   1.317   9.007 -0.7447  2.6344 -1.7155
   86SAPS  C316 8269   4.522   1.302   8.888 -0.1448  0.2721 -0.8738
   86SAPS  H16X 8270   4.542   1.410   8.868  1.4553  0.2627  0.4393
   86SAPS  H16Y 8271   4.412   1.288   8.885 -0.3307  1.3117  0.1903
   86SAPS  C317 8272   4.587   1.211   8.785  0.5619 -0.5202  1.0728
   86SAPS  H17X 8273   4.554   1.110   8.817 -1.4054 -0.4361 -0.5056
   86SAPS  H17Y 8274   4.697   1.210   8.799  0.2160 -0.3135  4.6364
   86SAPS  C318 8275   4.540   1.248   8.644  0.2035  0.1756 -0.2316
   86SAPS  H18X 8276   4.580   1.347   8.612 -1.2797  0.7762 -0.2825
   86SAPS  H18Y 8277   4.430   1.255   8.659  0.3123 -0.9734  1.3749
   86SAPS  H18Z 8278   4.557   1.174   8.563 -0.6470  0.8131 -1.0195
   87SAPS     N 8279   5.728   2.370  11.140 -0.2193 -0.3744  0.0558
   87SAPS   HN1 8280   5.771   2.448  11.195  0.9020 -0.6155 -0.4395
   87SAPS   HN2 8281   5.773   2.392  11.049 -0.7806  2.7443  0.4170
   87SAPS   HN3 8282   5.626   2.381  11.124  0.0049  0.4047 -0.8940
   87SAPS   C12 8283   5.778   2.248  11.205  0.4785 -0.5723  0.4321
   87SAPS  H12A 8284   5.886   2.256  11.205  0.7057  1.1689 -5.3423
   87SAPS   C13 8285   5.737   2.233  11.341 -0.6215 -1.3652 -0.7779
   87SAPS  O13A 8286   5.673   2.323  11.408  0.2742 -0.2925  0.1080
   87SAPS  O13B 8287   5.778   2.131  11.399 -0.2408  0.2372  0.5805
   87SAPS   C11 8288   5.736   2.116  11.127 -0.2567 -0.1756  0.7516
   87SAPS  H11A 8289   5.627   2.123  11.109 -0.2144  0.0376  0.5750
   87SAPS  H11B 8290   5.767   2.031  11.191 -2.0489 -1.3712  0.1047
   87SAPS     P 8291   5.962   2.070  10.995 -0.2258 -0.0851 -0.1448
   87SAPS   O13 8292   6.038   2.182  10.939 -0.2365  0.0003 -0.0972
   87SAPS   O14 8293   6.009   2.015  11.128  0.2685  0.4162  0.1859
   87SAPS   O12 8294   5.815   2.111  11.008  0.2683 -0.2711  0.0059
   87SAPS   O11 8295   5.960   1.950  10.880 -0.1739  0.3177  0.2669
   87SAPS    C1 8296   5.843   1.905  10.823  0.5998  0.1326  0.2833
   87SAPS    HA 8297   5.860   1.799  10.792 -0.5353  0.6973 -2.6623
   87SAPS    HB 8298   5.757   1.915  10.892 -0.5481  1.3111 -1.2269
   87SAPS    C2 8299   5.811   1.966  10.683  0.3138 -0.7975  0.0470
   87SAPS    HS 8300   5.723   1.907  10.650  1.3547 -1.8934 -0.8838
   87SAPS   O21 8301   5.929   1.942  10.595 -0.4963  0.4279 -0.1085
   87SAPS   C21 8302   5.907   1.938  10.465  0.8609  0.7007 -0.7380
   87SAPS   O22 8303   5.800   1.903  10.415 -0.3525  0.0377 -0.8745
   87SAPS   C22 8304   6.038   1.968  10.393 -0.7272 -0.1667  0.4467
   87SAPS   H2R 8305   6.098   2.038  10.455 -0.0249 -0.3854  0.0210
   87SAPS   H2S 8306   6.093   1.872  10.382 -0.2074  0.1758  0.0496
   87SAPS    C3 8307   5.767   2.115  10.684  0.4107  0.5234  0.0771
   87SAPS    HX 8308   5.857   2.178  10.699  1.4083 -1.0442  0.9546
   87SAPS    HY 8309   5.704   2.128  10.774  2.2975 -2.2554  2.0006
   87SAPS   O31 8310   5.684   2.142  10.567 -0.0766 -0.5759 -0.0302
   87SAPS   C31 8311   5.754   2.226  10.477 -0.3955  1.0251 -0.2501
   87SAPS   O32 8312   5.864   2.274  10.498  0.0305  1.1888 -0.0266
   87SAPS   C32 8313   5.677   2.223  10.345  0.6288 -0.3164 -0.6440
   87SAPS   H2X 8314   5.570   2.243  10.366  0.7619 -0.1879 -0.0860
   87SAPS   H2Y 8315   5.684   2.119  10.305 -1.5241 -0.3163 -1.1550
   87SAPS   C23 8316   6.006   2.034  10.258 -0.2122  0.5701  0.2835
   87SAPS   H3R 8317   5.949   2.123  10.290 -0.7234 -0.2661  1.7839
   87SAPS   H3S 8318   5.939   1.968  10.199  0.3258 -0.2059  0.5268
   87SAPS   C24 8319   6.121   2.074  10.171 -0.6768 -0.0853 -0.6440
   87SAPS   H4R 8320   6.186   2.150  10.220 -0.5183  0.8362 -2.2039
   87SAPS   H4S 8321   6.084   2.123  10.078  1.3891  3.2078  0.0839
   87SAPS   C25 8322   6.202   1.951  10.144 -0.1755  0.1672  0.1436
   87SAPS   H5R 8323   6.282   1.941  10.218  0.9916 -0.7823 -1.1978
   87SAPS   C26 8324   6.180   1.861  10.045 -0.0183  0.4581 -0.5684
   87SAPS   H6R 8325   6.241   1.770  10.042 -1.7789 -0.9019  1.6278
   87SAPS   C27 8326   6.063   1.872   9.952 -0.4682 -0.1620 -0.2737
   87SAPS   H7R 8327   6.005   1.966   9.963  0.5088  0.3707  0.4822
   87SAPS   H7S 8328   5.992   1.791   9.979 -2.6271  2.0286  0.9701
   87SAPS   C28 8329   6.106   1.848   9.804  0.1465  0.1846 -0.3277
   87SAPS   H8R 8330   6.125   1.743   9.778  1.3113  0.2648  0.1430
   87SAPS   C29 8331   6.119   1.939   9.708 -0.7528  0.6563  0.6643
   87SAPS   H9R 8332   6.121   1.904   9.604  1.7018  1.5479  0.3389
   87SAPS  C210 8333   6.094   2.090   9.722  0.4445 -0.1171  0.3240
   87SAPS  H10R 8334   6.162   2.140   9.650 -1.4658  0.8479 -0.8744
   87SAPS  H10S 8335   6.125   2.115   9.825  0.7296 -1.8862  0.7075
   87SAPS  C211 8336   5.947   2.125   9.716 -0.4506 -0.1236  0.0308
   87SAPS  H11R 8337   5.886   2.142   9.806  0.0463 -0.2160  0.3893
   87SAPS  C212 8338   5.872   2.125   9.607  0.3999 -0.1042  0.1318
   87SAPS  H12R 8339   5.769   2.162   9.619  0.2404  1.2451 -3.7652
   87SAPS  C213 8340   5.920   2.095   9.468 -0.2983  0.2160  0.6940
   87SAPS  H13R 8341   5.893   1.992   9.434 -1.1534  0.9806 -1.0726
   87SAPS  H13S 8342   6.030   2.100   9.459 -0.1064 -1.3565  1.7392
   87SAPS  C214 8343   5.849   2.175   9.362  0.2040 -0.3424  0.5746
   87SAPS  H14R 8344   5.741   2.193   9.378  0.3677 -0.3720  1.8805
   87SAPS  C215 8345   5.908   2.234   9.260  0.2309  0.1285 -0.0598
   87SAPS  H15R 8346   5.858   2.308   9.196  1.2589  1.9390  1.1546
   87SAPS  C216 8347   6.056   2.236   9.243 -0.1206  0.5033  0.7059
   87SAPS  H16R 8348   6.105   2.250   9.342 -1.4387  2.1503  1.1747
   87SAPS  H16S 8349   6.074   2.337   9.200  0.6323 -0.5137 -1.4949
   87SAPS  C217 8350   6.115   2.129   9.149  0.4256 -0.6103 -0.8176
   87SAPS  H17R 8351   6.069   2.031   9.173  1.8261 -1.6733 -2.2348
   87SAPS  H17S 8352   6.224   2.120   9.169  0.0113  0.5148  2.5100
   87SAPS  C218 8353   6.090   2.147   9.000 -0.1877 -0.8904  0.3243
   87SAPS  H18R 8354   6.175   2.094   8.952  0.9454  0.2895  0.9623
   87SAPS  H18S 8355   6.099   2.257   8.986 -1.4650 -0.8855 -0.6497
   87SAPS  C219 8356   5.954   2.101   8.945 -0.0008 -0.5942  0.2680
   87SAPS  H19R 8357   5.962   2.105   8.834 -0.7431 -0.0134  0.2290
   87SAPS  H19S 8358   5.888   2.180   8.988 -0.1043 -0.5734  0.0700
   87SAPS  C220 8359   5.914   1.958   8.981 -0.5603 -0.1374  0.0072
   87SAPS  H20R 8360   5.808   1.942   8.953 -1.2115  1.0859  1.5419
   87SAPS  H20S 8361   5.907   1.939   9.091  0.6260  0.7942  0.2603
   87SAPS  H20T 8362   5.985   1.884   8.940 -2.2839 -1.4433 -0.7673
   87SAPS   C33 8363   5.732   2.320  10.237 -0.9357 -0.7496  1.0064
   87SAPS   H3X 8364   5.813   2.261  10.189 -0.0900 -0.5670  2.1660
   87SAPS   H3Y 8365   5.777   2.417  10.268 -0.5641 -0.4362 -0.4004
   87SAPS   C34 8366   5.630   2.344  10.126 -0.1521 -0.6919  0.3028
   87SAPS   H4X 8367   5.533   2.369  10.172 -0.0808  1.7785 -0.7531
   87SAPS   H4Y 8368   5.622   2.254  10.061  1.1983  1.2759 -2.8431
   87SAPS   C35 8369   5.676   2.459  10.036  0.9531  0.1160 -1.0435
   87SAPS   H5X 8370   5.773   2.441   9.984  1.4724  1.0644 -0.4186
   87SAPS   H5Y 8371   5.701   2.552  10.091  0.6339  0.2555 -1.1380
   87SAPS   C36 8372   5.571   2.502   9.930 -0.0701  0.3110  0.5957
   87SAPS   H6X 8373   5.604   2.604   9.900  1.6618 -0.1142  0.9271
   87SAPS   H6Y 8374   5.462   2.500   9.950 -0.2030  1.0718 -0.0131
   87SAPS   C37 8375   5.586   2.419   9.801  0.1937  0.0622  0.7378
   87SAPS   H7X 8376   5.560   2.312   9.818  0.6248 -0.4371 -1.3943
   87SAPS   H7Y 8377   5.692   2.422   9.770  0.5994 -2.0932  1.7476
   87SAPS   C38 8378   5.501   2.473   9.682  0.7468 -0.0945 -0.5811
   87SAPS   H8X 8379   5.527   2.581   9.675  0.1611  0.2470  1.8402
   87SAPS   H8Y 8380   5.395   2.475   9.712  0.7139 -1.9617 -0.4218
   87SAPS   C39 8381   5.522   2.394   9.556  0.4346 -0.5335  0.4483
   87SAPS   H9X 8382   5.500   2.287   9.578 -2.7314  0.0150  0.4839
   87SAPS   H9Y 8383   5.628   2.389   9.527  0.3182  0.9236 -0.3026
   87SAPS  C310 8384   5.438   2.455   9.434 -0.4147  0.2107 -0.3942
   87SAPS  H10X 8385   5.452   2.565   9.433  2.9031  0.0305  2.8393
   87SAPS  H10Y 8386   5.332   2.425   9.449  0.4416 -2.4188  1.2896
   87SAPS  C311 8387   5.486   2.387   9.299  0.0040  0.5150  0.4482
   87SAPS  H11X 8388   5.464   2.278   9.301 -0.6282  0.6387  0.5054
   87SAPS  H11Y 8389   5.595   2.401   9.284  0.3130 -0.5209  1.5869
   87SAPS  C312 8390   5.416   2.441   9.175 -0.3397  0.2103 -0.0504
   87SAPS  H12X 8391   5.423   2.551   9.167 -1.4750  0.3352  0.4642
   87SAPS  H12Y 8392   5.311   2.416   9.203  0.3539 -2.5443  0.4544
   87SAPS  C313 8393   5.449   2.363   9.047  0.2406  0.1000  0.0248
   87SAPS  H13X 8394   5.398   2.265   9.055  1.7130 -0.7450 -0.5573
   87SAPS  H13Y 8395   5.558   2.344   9.040  0.0974 -0.8740  0.2366
   87SAPS  C314 8396   5.412   2.442   8.916  0.2243  0.2716  0.7280
   87SAPS  H14X 8397   5.481   2.529   8.917  2.1593 -1.1806  0.9199
   87SAPS  H14Y 8398   5.312   2.489   8.922 -0.9364 -2.0798  0.9313
   87SAPS  C315 8399   5.414   2.371   8.779  0.3081 -0.2930  0.1230
   87SAPS  H15X 8400   5.335   2.293   8.772  0.5225 -0.8197  2.6011
   87SAPS  H15Y 8401   5.508   2.312   8.780  0.7308  0.2372  3.3163
   87SAPS  C316 8402   5.405   2.455   8.657 -0.0974  0.3173  0.3752
   87SAPS  H16X 8403   5.493   2.522   8.659  1.9420 -2.2163  2.4715
   87SAPS  H16Y 8404   5.313   2.517   8.660 -0.7661 -0.6732  0.8716
   87SAPS  C317 8405   5.415   2.349   8.534 -0.5630 -0.2907  0.3341
   87SAPS  H17X 8406   5.309   2.315   8.536 -1.1636  1.4719  0.4988
   87SAPS  H17Y 8407   5.488   2.268   8.554  1.0478  1.5853  2.7152
   87SAPS  C318 8408   5.452   2.409   8.401  0.5970 -0.1546  0.9954
   87SAPS  H18X 8409   5.388   2.496   8.375 -0.2503 -1.1866 -0.4930
   87SAPS  H18Y 8410   5.451   2.344   8.311  1.1838 -0.5016  1.2366
   87SAPS  H18Z 8411   5.556   2.444   8.420 -0.1788  2.3403  1.0356
   88SAPS     N 8412   6.500   6.141  11.201  0.2143 -0.2979  0.2677
   88SAPS   HN1 8413   6.453   6.165  11.112 -0.2177  1.2681  0.8776
   88SAPS   HN2 8414   6.430   6.148  11.278 -1.4231  1.3944 -1.2696
   88SAPS   HN3 8415   6.564   6.221  11.220 -0.1361  0.7226 -2.4194
   88SAPS   C12 8416   6.577   6.013  11.197 -0.2410 -0.1647 -0.2379
   88SAPS  H12A 8417   6.665   6.025  11.259 -0.0989 -0.6838 -0.3286
   88SAPS   C13 8418   6.494   5.882  11.241 -0.0478 -0.1537  0.6450
   88SAPS  O13A 8419   6.385   5.896  11.294  0.3336  0.5129  0.7618
   88SAPS  O13B 8420   6.558   5.775  11.237  0.8863 -0.1028  0.8782
   88SAPS   C11 8421   6.628   5.984  11.057  0.3335  0.7521  0.5996
   88SAPS  H11A 8422   6.547   5.950  10.988 -0.7264  1.8478  1.2577
   88SAPS  H11B 8423   6.702   5.902  11.054  1.3950  1.6907 -2.3853
   88SAPS     P 8424   6.843   6.123  11.001  0.0976  0.2570 -0.1824
   88SAPS   O13 8425   6.887   6.205  10.889 -0.1968  0.2511  0.3859
   88SAPS   O14 8426   6.877   6.178  11.135  0.2455 -0.3424  0.3457
   88SAPS   O12 8427   6.689   6.096  10.983  0.1932 -0.9770 -0.0457
   88SAPS   O11 8428   6.906   5.978  10.995  0.6138  0.3307  0.5663
   88SAPS    C1 8429   6.966   5.938  10.866 -0.2279 -0.2604 -0.3146
   88SAPS    HA 8430   7.035   6.016  10.828 -2.5484  2.3101  0.4105
   88SAPS    HB 8431   7.028   5.847  10.886  0.0638  0.1812  0.8475
   88SAPS    C2 8432   6.859   5.928  10.754 -0.4915  0.7704  0.0925
   88SAPS    HS 8433   6.817   6.029  10.734 -0.8707  0.1041 -2.8152
   88SAPS   O21 8434   6.763   5.828  10.786  0.0330  0.5680  0.0561
   88SAPS   C21 8435   6.645   5.858  10.747 -0.2585  0.3131 -0.2993
   88SAPS   O22 8436   6.606   5.952  10.680  0.3546  0.2787  0.1883
   88SAPS   C22 8437   6.549   5.744  10.791 -0.3524 -0.1369 -0.9629
   88SAPS   H2R 8438   6.596   5.644  10.803 -0.4438  0.1238  2.3925
   88SAPS   H2S 8439   6.496   5.777  10.883  2.4620  0.9906  0.3798
   88SAPS    C3 8440   6.934   5.887  10.625  0.0839  0.3890  0.0679
   88SAPS    HX 8441   6.970   5.782  10.631  0.4426  0.2388 -3.0869
   88SAPS    HY 8442   7.023   5.952  10.614  1.4581 -1.1564  1.5154
   88SAPS   O31 8443   6.842   5.890  10.513 -0.0111  0.3027 -0.2687
   88SAPS   C31 8444   6.817   6.007  10.453  0.4192  0.0343 -0.0229
   88SAPS   O32 8445   6.867   6.112  10.484  0.0153  0.6163 -0.1619
   88SAPS   C32 8446   6.697   5.985  10.356 -0.1756 -0.6291  0.1415
   88SAPS   H2X 8447   6.619   5.930  10.412  0.9500 -3.1938 -0.6939
   88SAPS   H2Y 8448   6.719   5.921  10.268 -0.0971 -0.5804  0.1255
   88SAPS   C23 8449   6.440   5.717  10.681  0.5922  0.0492  0.0181
   88SAPS   H3R 8450   6.423   5.811  10.624  0.3112 -0.1880 -0.2913
   88SAPS   H3S 8451   6.341   5.708  10.729  0.8941  0.9550  0.8459
   88SAPS   C24 8452   6.473   5.591  10.599 -0.3828  0.4777  0.8114
   88SAPS   H4R 8453   6.390   5.572  10.528 -1.2891  2.4604  1.2657
   88SAPS   H4S 8454   6.476   5.510  10.675 -1.0470  2.0508  2.5912
   88SAPS   C25 8455   6.593   5.622  10.511  0.0031 -0.0879  0.5325
   88SAPS   H5R 8456   6.686   5.636  10.567 -0.0904  2.9289  0.1396
   88SAPS   C26 8457   6.595   5.638  10.377  0.1835 -0.4349 -0.0349
   88SAPS   H6R 8458   6.693   5.655  10.329  0.0397 -1.8548 -0.8870
   88SAPS   C27 8459   6.471   5.632  10.286 -0.4173 -0.2403 -0.4245
   88SAPS   H7R 8460   6.374   5.595  10.326 -0.5414  2.6439  2.2910
   88SAPS   H7S 8461   6.495   5.556  10.208 -3.2578 -0.8754 -0.7989
   88SAPS   C28 8462   6.439   5.766  10.230 -0.1605 -0.1061 -0.0183
   88SAPS   H8R 8463   6.369   5.831  10.285  1.9038  0.8739  1.5880
   88SAPS   C29 8464   6.483   5.802  10.106  0.0606  0.4848  0.0921
   88SAPS   H9R 8465   6.439   5.894  10.065 -0.6114 -0.3346 -1.0967
   88SAPS  C210 8466   6.578   5.738  10.013  0.1398  0.0450  0.5884
   88SAPS  H10R 8467   6.652   5.685  10.077 -0.3699 -0.3219  0.8811
   88SAPS  H10S 8468   6.631   5.824   9.966  0.3328  0.3471  1.3408
   88SAPS  C211 8469   6.513   5.639   9.918  0.2726 -0.6251  0.0156
   88SAPS  H11R 8470   6.472   5.550   9.968  1.6641 -1.1127  0.3437
   88SAPS  C212 8471   6.500   5.649   9.783 -0.1776 -0.4303  0.8839
   88SAPS  H12R 8472   6.444   5.575   9.725 -0.8171  0.5312  0.2492
   88SAPS  C213 8473   6.545   5.768   9.698 -0.3471 -0.3866  0.0445
   88SAPS  H13R 8474   6.642   5.741   9.650 -0.4453 -2.2647  0.8108
   88SAPS  H13S 8475   6.572   5.861   9.751  0.9615 -0.3321 -0.6808
   88SAPS  C214 8476   6.445   5.806   9.589  0.1470  1.2339  0.4221
   88SAPS  H14R 8477   6.361   5.866   9.627 -3.1538 -2.9804  0.6525
   88SAPS  C215 8478   6.431   5.752   9.467 -0.3637 -0.4927 -0.0233
   88SAPS  H15R 8479   6.359   5.795   9.397 -0.0853 -0.5857 -0.3728
   88SAPS  C216 8480   6.524   5.646   9.409  0.0092 -0.4709 -0.4328
   88SAPS  H16R 8481   6.581   5.598   9.491 -3.0125 -2.3926  0.7136
   88SAPS  H16S 8482   6.598   5.693   9.341  1.0353 -1.9105 -0.3370
   88SAPS  C217 8483   6.462   5.531   9.331 -1.0363  0.3704 -0.0323
   88SAPS  H17R 8484   6.395   5.472   9.398  0.8057 -0.5469  1.0931
   88SAPS  H17S 8485   6.550   5.472   9.299 -1.0261  0.0779  0.5261
   88SAPS  C218 8486   6.388   5.572   9.203 -0.5885  0.4841  0.6242
   88SAPS  H18R 8487   6.292   5.620   9.231 -0.4476 -0.0186  2.0537
   88SAPS  H18S 8488   6.376   5.475   9.149 -0.2503  0.4809  0.5541
   88SAPS  C219 8489   6.457   5.671   9.113 -0.7088  0.8200 -0.1808
   88SAPS  H19R 8490   6.555   5.627   9.082 -1.1013  1.1379 -1.9898
   88SAPS  H19S 8491   6.474   5.761   9.175 -0.1648 -0.5499  1.7657
   88SAPS  C220 8492   6.381   5.714   8.996  0.5738 -0.5570  0.6826
   88SAPS  H20R 8493   6.423   5.799   8.939  0.2082 -1.2817 -0.7206
   88SAPS  H20S 8494   6.277   5.739   9.028  0.7548  1.0137  0.1038
   88SAPS  H20T 8495   6.375   5.630   8.923  0.2079 -0.6090  0.7671
   88SAPS   C33 8496   6.647   6.111  10.287  0.6098 -0.1536  0.2607
   88SAPS   H3X 8497   6.609   6.174  10.371 -0.6278 -1.5052  0.7633
   88SAPS   H3Y 8498   6.559   6.082  10.225  1.6084 -0.0667 -1.2382
   88SAPS   C34 8499   6.750   6.202  10.214  0.0654  0.5635  0.3050
   88SAPS   H4X 8500   6.846   6.202  10.269  1.2152 -3.0890 -1.3807
   88SAPS   H4Y 8501   6.718   6.307  10.231  0.4030  0.3799  2.3032
   88SAPS   C35 8502   6.763   6.157  10.061  0.9408 -0.0570  0.2975
   88SAPS   H5X 8503   6.775   6.047  10.048  0.7726 -0.0641  0.1927
   88SAPS   H5Y 8504   6.853   6.206  10.019 -0.4241  1.0370 -1.5198
   88SAPS   C36 8505   6.646   6.186   9.966 -0.1428 -0.7902  0.2871
   88SAPS   H6X 8506   6.628   6.296   9.972  0.1066 -0.6977 -0.6542
   88SAPS   H6Y 8507   6.554   6.134  10.003 -1.5276  1.9594  0.9887
   88SAPS   C37 8508   6.678   6.167   9.829 -0.2094 -0.0260  0.2333
   88SAPS   H7X 8509   6.699   6.058   9.826  0.1468  0.0286  0.7162
   88SAPS   H7Y 8510   6.759   6.240   9.812 -1.8385  2.1160  1.1604
   88SAPS   C38 8511   6.560   6.186   9.727 -0.6050  0.2380  0.9825
   88SAPS   H8X 8512   6.528   6.292   9.716  2.3881  1.0705 -0.9284
   88SAPS   H8Y 8513   6.468   6.139   9.768 -0.4234  1.5022  2.9535
   88SAPS   C39 8514   6.608   6.146   9.584 -0.4670  0.3242 -0.3536
   88SAPS   H9X 8515   6.634   6.038   9.581 -1.1136  0.1659 -0.4527
   88SAPS   H9Y 8516   6.705   6.197   9.569 -0.1086  0.0539  0.9243
   88SAPS  C310 8517   6.514   6.183   9.469 -0.6974  0.5293  0.2057
   88SAPS  H10X 8518   6.507   6.294   9.468  2.5750  0.8339  0.6768
   88SAPS  H10Y 8519   6.416   6.136   9.494  0.2131 -1.8957 -0.5018
   88SAPS  C311 8520   6.559   6.115   9.336  0.0364 -0.0707  0.0860
   88SAPS  H11X 8521   6.480   6.125   9.258  0.7086  0.9287 -0.4935
   88SAPS  H11Y 8522   6.577   6.006   9.349 -0.2145 -0.0069  1.0438
   88SAPS  C312 8523   6.685   6.178   9.284 -0.1286  0.0553  0.1819
   88SAPS  H12X 8524   6.767   6.180   9.359 -0.1357 -0.2630  0.2009
   88SAPS  H12Y 8525   6.654   6.282   9.261  2.2647  0.6936 -0.4662
   88SAPS  C313 8526   6.741   6.103   9.168  0.2075 -0.5059  0.3644
   88SAPS  H13X 8527   6.772   5.999   9.192  2.0594 -0.0626  0.0279
   88SAPS  H13Y 8528   6.835   6.157   9.144 -0.1957  0.4623  0.8940
   88SAPS  C314 8529   6.659   6.100   9.031  0.0415  0.2294 -0.7806
   88SAPS  H14X 8530   6.624   6.202   9.005 -1.7066  0.0573  0.7206
   88SAPS  H14Y 8531   6.571   6.032   9.033  0.7010 -0.6394 -0.2764
   88SAPS  C315 8532   6.753   6.044   8.919  1.1129 -0.5650 -0.6565
   88SAPS  H15X 8533   6.746   5.934   8.934  1.5121 -0.4112  0.7734
   88SAPS  H15Y 8534   6.851   6.092   8.941  0.1057  0.6942  1.3835
   88SAPS  C316 8535   6.700   6.072   8.777 -0.4006 -0.4572 -0.2883
   88SAPS  H16X 8536   6.689   6.182   8.772  1.1303 -0.2159  0.8215
   88SAPS  H16Y 8537   6.606   6.015   8.761 -1.5488  1.4022 -0.4358
   88SAPS  C317 8538   6.798   6.031   8.667 -0.4136 -0.6500  0.3855
   88SAPS  H17X 8539   6.898   6.040   8.715  0.3389  2.6195 -1.5379
   88SAPS  H17Y 8540   6.795   6.108   8.587 -0.0472 -1.7466 -0.7073
   88SAPS  C318 8541   6.770   5.897   8.604  0.3021  0.2388  0.0851
   88SAPS  H18X 8542   6.797   5.817   8.676 -2.0724 -0.3014  0.4706
   88SAPS  H18Y 8543   6.832   5.886   8.512  0.8560 -1.2662  0.5993
   88SAPS  H18Z 8544   6.664   5.880   8.574  0.4094  0.7188 -0.5798
   89SAPS     N 8545   1.475   2.889  10.987 -0.3826  0.1070  0.0399
   89SAPS   HN1 8546   1.414   2.865  10.906  0.3545 -0.5217 -0.3526
   89SAPS   HN2 8547   1.426   2.853  11.071 -0.5732 -1.9012 -0.8590
   89SAPS   HN3 8548   1.488   2.992  10.991  0.7684 -0.0133 -0.1775
   89SAPS   C12 8549   1.601   2.821  10.959 -0.0776  0.4490  0.1072
   89SAPS  H12A 8550   1.669   2.830  11.042 -0.5240  0.5540  0.4706
   89SAPS   C13 8551   1.584   2.674  10.926 -0.9246 -0.2784 -0.1265
   89SAPS  O13A 8552   1.470   2.618  10.920 -0.2489  0.9859  0.1170
   89SAPS  O13B 8553   1.695   2.615  10.889  0.2132 -0.0733  0.2186
   89SAPS   C11 8554   1.657   2.899  10.831  0.4704 -0.1422  0.3520
   89SAPS  H11A 8555   1.577   2.893  10.754  0.5417  1.0103  0.1739
   89SAPS  H11B 8556   1.740   2.840  10.786 -1.7691 -3.7475  0.5482
   89SAPS     P 8557   1.814   3.066  10.947 -0.1925  0.0584  0.2296
   89SAPS   O13 8558   1.795   3.177  11.048  0.7423 -0.3540  1.1011
   89SAPS   O14 8559   1.866   2.937  10.995 -0.2712  0.1518 -0.3861
   89SAPS   O12 8560   1.683   3.041  10.862 -0.2421 -0.5709 -0.0588
   89SAPS   O11 8561   1.917   3.121  10.841  0.6004  0.0045  0.5259
   89SAPS    C1 8562   1.942   3.064  10.710 -0.1368  0.1213  0.3613
   89SAPS    HA 8563   2.043   3.020  10.705 -0.5373 -0.7714 -0.0608
   89SAPS    HB 8564   1.863   2.993  10.678 -0.5902  0.4657  0.6962
   89SAPS    C2 8565   1.940   3.175  10.597 -0.2545 -0.3184 -0.0795
   89SAPS    HS 8566   1.853   3.238  10.624 -0.0312 -0.4214  0.9208
   89SAPS   O21 8567   1.945   3.117  10.463  0.0209 -0.1603  0.1544
   89SAPS   C21 8568   1.866   3.186  10.377 -0.3380 -0.0009 -0.0249
   89SAPS   O22 8569   1.798   3.283  10.401 -0.7855 -0.0818  0.2677
   89SAPS   C22 8570   1.865   3.118  10.237  0.4166 -0.1899 -0.0506
   89SAPS   H2R 8571   1.907   3.201  10.177 -2.4729  1.1769 -0.3324
   89SAPS   H2S 8572   1.937   3.033  10.238  1.4229  0.6299 -0.4371
   89SAPS    C3 8573   2.075   3.263  10.620  0.3028 -0.6923  0.7441
   89SAPS    HX 8574   2.157   3.189  10.608  1.5195  0.7560 -0.1487
   89SAPS    HY 8575   2.062   3.308  10.721 -0.2621 -0.8047  0.7279
   89SAPS   O31 8576   2.089   3.368  10.512 -0.2342 -0.0816  0.4564
   89SAPS   C31 8577   2.067   3.497  10.539  0.1509 -0.1498  0.1108
   89SAPS   O32 8578   2.006   3.527  10.640  0.6360  0.3492  0.1751
   89SAPS   C32 8579   2.121   3.592  10.432  0.0666 -0.3426  0.0033
   89SAPS   H2X 8580   2.132   3.529  10.341  1.0262 -0.7440  0.3849
   89SAPS   H2Y 8581   2.224   3.619  10.463 -0.3869  0.6681  0.6854
   89SAPS   C23 8582   1.724   3.083  10.191  0.0920  0.0144  0.1999
   89SAPS   H3R 8583   1.669   3.179  10.179  2.3252  1.5498  1.4564
   89SAPS   H3S 8584   1.680   3.026  10.275  0.8573 -1.0918 -0.1330
   89SAPS   C24 8585   1.732   2.998  10.067  0.5114  0.1162 -0.3095
   89SAPS   H4R 8586   1.774   3.045   9.975 -0.7304 -0.5132 -1.2210
   89SAPS   H4S 8587   1.629   2.978  10.032  0.5858  1.4518 -1.3799
   89SAPS   C25 8588   1.813   2.873  10.082 -0.6872  0.2264 -0.1194
   89SAPS   H5R 8589   1.844   2.853  10.185 -0.1085 -2.3245 -0.7439
   89SAPS   C26 8590   1.859   2.789   9.982  0.6513 -0.5576  0.1481
   89SAPS   H6R 8591   1.931   2.712  10.011  0.3924 -0.4809  1.0091
   89SAPS   C27 8592   1.840   2.803   9.837 -0.4347  0.2477  0.6277
   89SAPS   H7R 8593   1.932   2.841   9.790 -0.1046 -0.6152  0.5471
   89SAPS   H7S 8594   1.760   2.879   9.823 -0.2721  0.5334  1.2041
   89SAPS   C28 8595   1.797   2.668   9.777 -0.2628  0.3690 -0.2777
   89SAPS   H8R 8596   1.739   2.605   9.847 -2.2578  1.3484 -0.9717
   89SAPS   C29 8597   1.824   2.610   9.653 -0.0079  0.0215 -0.1508
   89SAPS   H9R 8598   1.774   2.514   9.636 -2.0010  0.6564  1.6971
   89SAPS  C210 8599   1.898   2.672   9.537  0.3136  0.1557 -0.2845
   89SAPS  H10R 8600   1.983   2.605   9.511  1.0524  0.7789  0.4484
   89SAPS  H10S 8601   1.945   2.766   9.572  0.8649 -0.1914 -0.0655
   89SAPS  C211 8602   1.823   2.687   9.410 -0.7905 -0.4252  0.7692
   89SAPS  H11R 8603   1.716   2.667   9.429 -0.9190  0.4393  1.0159
   89SAPS  C212 8604   1.873   2.730   9.294  0.1610 -0.2389 -0.0583
   89SAPS  H12R 8605   1.800   2.745   9.213 -0.0360 -0.3960  0.0888
   89SAPS  C213 8606   2.017   2.761   9.269 -0.2250  0.9370 -0.2643
   89SAPS  H13R 8607   2.064   2.687   9.200  0.1313 -0.1464  1.0939
   89SAPS  H13S 8608   2.070   2.750   9.366 -2.1275 -1.6859  0.5841
   89SAPS  C214 8609   2.039   2.897   9.211 -0.4512  0.5099  0.1889
   89SAPS  H14R 8610   2.015   2.979   9.280 -1.9599 -2.2030  3.1306
   89SAPS  C215 8611   2.087   2.931   9.092  0.7038  0.3671  0.0921
   89SAPS  H15R 8612   2.109   3.039   9.091  1.2559  0.3824  3.5729
   89SAPS  C216 8613   2.134   2.852   8.975 -0.1996  0.1402 -0.4432
   89SAPS  H16R 8614   2.072   2.879   8.886  2.5094  1.4011 -2.0697
   89SAPS  H16S 8615   2.132   2.745   9.004  0.0339 -0.0136 -0.9766
   89SAPS  C217 8616   2.278   2.896   8.961  0.0609  0.2464  0.3585
   89SAPS  H17R 8617   2.331   2.904   9.058 -0.6107  0.9401  0.6777
   89SAPS  H17S 8618   2.270   2.998   8.919 -3.2016  0.4588  1.2499
   89SAPS  C218 8619   2.359   2.811   8.862  0.8562  0.2091 -0.3341
   89SAPS  H18R 8620   2.295   2.787   8.775 -1.6641 -1.9968  1.9075
   89SAPS  H18S 8621   2.353   2.716   8.919 -0.7199 -0.2180 -1.1469
   89SAPS  C219 8622   2.495   2.863   8.831 -0.1999 -0.8156  0.2936
   89SAPS  H19R 8623   2.554   2.774   8.799  2.2288 -0.3318  2.9416
   89SAPS  H19S 8624   2.549   2.888   8.925  3.4780 -0.1377 -1.8217
   89SAPS  C220 8625   2.499   2.965   8.716  0.7125  0.2849 -0.4469
   89SAPS  H20R 8626   2.435   2.929   8.633 -0.5603  0.2129  0.5420
   89SAPS  H20S 8627   2.601   2.969   8.673  0.8140 -2.8209 -0.7343
   89SAPS  H20T 8628   2.456   3.063   8.746  1.5699  0.3647  0.6235
   89SAPS   C33 8629   2.023   3.707  10.400 -0.2146  0.3401 -0.0687
   89SAPS   H3X 8630   2.079   3.791  10.353 -1.1733  1.1057  0.1231
   89SAPS   H3Y 8631   1.986   3.745  10.497  1.9097 -1.2016  1.4249
   89SAPS   C34 8632   1.900   3.661  10.323  0.0878 -0.4739 -0.5063
   89SAPS   H4X 8633   1.820   3.739  10.328 -0.3535 -0.9677  0.6051
   89SAPS   H4Y 8634   1.858   3.575  10.379  1.6194 -0.5593  0.5879
   89SAPS   C35 8635   1.930   3.631  10.170  0.9933 -0.5126  0.1155
   89SAPS   H5X 8636   2.013   3.558  10.157  1.8108  0.3086  0.6382
   89SAPS   H5Y 8637   1.963   3.725  10.122  2.8088 -0.8822  0.5569
   89SAPS   C36 8638   1.808   3.582  10.102  0.1459 -0.4712  0.1535
   89SAPS   H6X 8639   1.725   3.655  10.113  1.7057  1.4042 -0.0162
   89SAPS   H6Y 8640   1.784   3.484  10.147 -0.4359 -0.6241 -0.4766
   89SAPS   C37 8641   1.837   3.550   9.955 -0.4852  0.0825 -0.4388
   89SAPS   H7X 8642   1.944   3.527   9.938 -0.2010  1.5324 -0.7272
   89SAPS   H7Y 8643   1.836   3.647   9.901 -2.1447 -0.2125 -1.0263
   89SAPS   C38 8644   1.747   3.442   9.893 -0.1680 -0.2558  0.1114
   89SAPS   H8X 8645   1.643   3.466   9.927 -0.4809 -1.7148  0.2522
   89SAPS   H8Y 8646   1.772   3.345   9.940 -0.1458 -0.2172  0.1794
   89SAPS   C39 8647   1.754   3.443   9.738  0.7351  0.3077  0.1182
   89SAPS   H9X 8648   1.852   3.440   9.685  0.3496 -1.7192 -0.5656
   89SAPS   H9Y 8649   1.730   3.550   9.718  1.9562  1.2076  2.9611
   89SAPS  C310 8650   1.653   3.347   9.686 -0.3227 -0.3093  0.5182
   89SAPS  H10X 8651   1.614   3.380   9.587  1.0836 -0.0814  0.0252
   89SAPS  H10Y 8652   1.571   3.339   9.760  0.6947 -0.9743  1.6123
   89SAPS  C311 8653   1.719   3.206   9.661 -0.6424  0.3862  0.0768
   89SAPS  H11X 8654   1.772   3.177   9.754  1.1475  0.7650 -0.7687
   89SAPS  H11Y 8655   1.806   3.222   9.593  0.1980  0.0963  1.0481
   89SAPS  C312 8656   1.627   3.089   9.614  0.2112  0.3389  0.0444
   89SAPS  H12X 8657   1.545   3.078   9.688 -0.9681  4.1881 -0.4372
   89SAPS  H12Y 8658   1.694   3.001   9.604  1.3939  1.4618 -3.5626
   89SAPS  C313 8659   1.566   3.103   9.477 -0.8104 -0.3882 -0.5272
   89SAPS  H13X 8660   1.507   3.197   9.472  1.2761  0.9383 -1.4337
   89SAPS  H13Y 8661   1.497   3.016   9.467 -3.4140  1.6561 -1.5318
   89SAPS  C314 8662   1.670   3.104   9.369 -0.6011 -0.0196  0.1760
   89SAPS  H14X 8663   1.747   3.026   9.389  1.0804  2.1468  2.9534
   89SAPS  H14Y 8664   1.739   3.190   9.380  0.2150 -0.8866  2.4320
   89SAPS  C315 8665   1.606   3.092   9.231  0.0184  0.7747  0.1268
   89SAPS  H15X 8666   1.536   3.174   9.205 -0.3003  1.3433  2.5902
   89SAPS  H15Y 8667   1.536   3.006   9.229 -1.0575  1.6388 -0.1516
   89SAPS  C316 8668   1.710   3.086   9.121  0.0009 -0.2107 -0.5578
   89SAPS  H16X 8669   1.662   3.096   9.021 -0.2325 -2.5308 -0.7386
   89SAPS  H16Y 8670   1.761   2.987   9.123 -1.1139 -0.7953 -0.0765
   89SAPS  C317 8671   1.808   3.207   9.124  0.2825  0.1303 -0.5736
   89SAPS  H17X 8672   1.872   3.192   9.213 -1.1563  1.5088  0.7747
   89SAPS  H17Y 8673   1.750   3.302   9.132 -1.7469 -1.0988  0.3970
   89SAPS  C318 8674   1.891   3.220   8.996  0.4278 -0.5324  0.1624
   89SAPS  H18X 8675   1.818   3.266   8.927  0.5428  1.8167  1.4866
   89SAPS  H18Y 8676   1.934   3.127   8.954 -0.7967 -1.5324  1.0678
   89SAPS  H18Z 8677   1.967   3.300   9.015 -0.2802 -0.3096  2.3986
   90SAPS     N 8678   3.569   4.636  10.953  0.6779  0.2561  0.0050
   90SAPS   HN1 8679   3.617   4.570  11.018 -0.6450 -0.0087  0.7574
   90SAPS   HN2 8680   3.547   4.597  10.859  2.7274  2.0156 -1.2946
   90SAPS   HN3 8681   3.640   4.711  10.943  0.1479  0.6671 -0.8018
   90SAPS   C12 8682   3.449   4.695  11.025 -1.3551 -0.2534 -0.1652
   90SAPS  H12A 8683   3.378   4.618  11.050 -0.6078 -0.9127 -0.0130
   90SAPS   C13 8684   3.491   4.757  11.153  0.0169 -0.2758 -0.9329
   90SAPS  O13A 8685   3.603   4.721  11.196 -0.2362  0.5091 -0.4931
   90SAPS  O13B 8686   3.408   4.826  11.219  0.2045  0.4312  0.2109
   90SAPS   C11 8687   3.383   4.810  10.946  0.3828  0.2454 -0.5301
   90SAPS  H11A 8688   3.458   4.891  10.935  0.2202  0.3562 -0.8278
   90SAPS  H11B 8689   3.300   4.858  11.002  1.0226  3.2646 -1.9533
   90SAPS     P 8690   3.196   4.690  10.801 -0.0268  0.1633  0.5186
   90SAPS   O13 8691   3.200   4.576  10.898  0.5407  0.1601  0.2159
   90SAPS   O14 8692   3.086   4.786  10.817  0.4451  0.6098 -0.0556
   90SAPS   O12 8693   3.337   4.765  10.818 -0.1731  0.0924  0.1872
   90SAPS   O11 8694   3.205   4.639  10.653  0.6495  0.7325  0.0371
   90SAPS    C1 8695   3.295   4.699  10.558  0.2228  0.2374 -0.0923
   90SAPS    HA 8696   3.399   4.712  10.595 -0.4326 -0.1172  2.0041
   90SAPS    HB 8697   3.316   4.624  10.479 -1.0684 -3.7744  3.0548
   90SAPS    C2 8698   3.249   4.833  10.495 -0.6607 -0.2585 -0.0341
   90SAPS    HS 8699   3.240   4.904  10.580 -0.0741 -0.5442  0.2761
   90SAPS   O21 8700   3.137   4.816  10.410  0.2116 -0.1660  0.3164
   90SAPS   C21 8701   3.048   4.908  10.421  0.1505 -0.0984  0.0017
   90SAPS   O22 8702   3.053   5.011  10.488  0.3559 -0.1358 -0.5215
   90SAPS   C22 8703   2.932   4.878  10.327  0.3586  0.0327  0.3489
   90SAPS   H2R 8704   2.920   4.768  10.316  1.6023 -0.0238 -0.8021
   90SAPS   H2S 8705   2.844   4.923  10.375 -0.8113 -1.2474 -0.5077
   90SAPS    C3 8706   3.359   4.903  10.405 -0.2298  0.0576 -1.1331
   90SAPS    HX 8707   3.375   4.831  10.321 -0.2319 -1.7556  0.3475
   90SAPS    HY 8708   3.458   4.907  10.456 -0.3971  2.1191 -0.9102
   90SAPS   O31 8709   3.326   5.034  10.350  0.9118 -0.0446  0.1579
   90SAPS   C31 8710   3.327   5.142  10.431  0.4105 -0.0701 -0.4405
   90SAPS   O32 8711   3.361   5.141  10.545 -0.5562 -0.0958 -0.0951
   90SAPS   C32 8712   3.271   5.266  10.362 -0.0482  0.2000  0.0769
   90SAPS   H2X 8713   3.339   5.352  10.379  0.0948  0.3340 -1.1086
   90SAPS   H2Y 8714   3.183   5.288  10.426 -0.3023 -1.2859  0.2623
   90SAPS   C23 8715   2.948   4.943  10.186  0.3893  0.1950  0.1992
   90SAPS   H3R 8716   2.959   5.054  10.195 -0.7302  0.3631 -0.3568
   90SAPS   H3S 8717   2.857   4.945  10.122  0.0988  0.8803  0.6135
   90SAPS   C24 8718   3.071   4.893  10.105  0.0829  0.0934  0.1733
   90SAPS   H4R 8719   3.044   4.790  10.070 -1.8673 -0.1576  2.2149
   90SAPS   H4S 8720   3.159   4.866  10.167 -0.3826 -1.0908  0.3589
   90SAPS   C25 8721   3.111   4.983   9.998 -0.0349  0.1646 -0.3728
   90SAPS   H5R 8722   3.211   5.027  10.008  0.7768 -1.1719 -2.0626
   90SAPS   C26 8723   3.051   5.017   9.886  0.2240  0.6281 -0.1765
   90SAPS   H6R 8724   3.108   5.077   9.814 -0.6302  0.3398 -1.1062
   90SAPS   C27 8725   2.918   4.973   9.835 -0.1717  0.7221 -0.3491
   90SAPS   H7R 8726   2.868   4.905   9.908 -1.9831 -0.4729 -2.5356
   90SAPS   H7S 8727   2.931   4.906   9.747 -0.6162 -0.1312  0.2141
   90SAPS   C28 8728   2.828   5.091   9.798 -0.1893 -0.0689 -0.1113
   90SAPS   H8R 8729   2.754   5.101   9.879  2.2630 -1.3893  2.4478
   90SAPS   C29 8730   2.841   5.182   9.698  0.7653 -0.1126 -0.6771
   90SAPS   H9R 8731   2.788   5.276   9.717  2.1073 -0.0447  4.4322
   90SAPS  C210 8732   2.945   5.191   9.589 -0.8201  0.5572 -0.3428
   90SAPS  H10R 8733   3.029   5.120   9.601 -0.3484  0.2676 -4.0865
   90SAPS  H10S 8734   2.999   5.288   9.594  1.6262 -0.7614 -0.0095
   90SAPS  C211 8735   2.893   5.159   9.450  0.3537  0.4387  0.8242
   90SAPS  H11R 8736   2.824   5.235   9.409 -1.7829 -0.7438  2.0606
   90SAPS  C212 8737   2.893   5.047   9.382  0.2426  0.0403  0.2033
   90SAPS  H12R 8738   2.849   5.041   9.281 -2.2142 -0.0910  1.2009
   90SAPS  C213 8739   2.961   4.919   9.432  0.1001  0.3371  0.1532
   90SAPS  H13R 8740   3.001   4.927   9.536 -1.9797  0.6885  0.9747
   90SAPS  H13S 8741   3.058   4.904   9.380  0.5672  2.0135  0.4710
   90SAPS  C214 8742   2.868   4.797   9.410 -0.0183  0.2137 -0.0256
   90SAPS  H14R 8743   2.817   4.767   9.503 -0.4036 -0.1421 -0.3524
   90SAPS  C215 8744   2.855   4.730   9.290  0.7061  0.1573 -0.4213
   90SAPS  H15R 8745   2.782   4.648   9.281  0.9380  0.0978 -2.3173
   90SAPS  C216 8746   2.929   4.761   9.160 -0.1076 -0.8384  0.4831
   90SAPS  H16R 8747   3.025   4.704   9.160 -0.3985 -1.3793 -1.3287
   90SAPS  H16S 8748   2.963   4.866   9.155 -1.3946 -0.4276 -0.1065
   90SAPS  C217 8749   2.844   4.727   9.037  0.1588 -0.0642 -0.1242
   90SAPS  H17R 8750   2.905   4.760   8.951 -1.4582 -1.8537 -2.0788
   90SAPS  H17S 8751   2.749   4.784   9.040 -0.1878 -0.4625 -2.1085
   90SAPS  C218 8752   2.832   4.571   9.006  0.2968 -0.2709 -1.2351
   90SAPS  H18R 8753   2.765   4.532   9.085  1.3245  1.1005  0.3798
   90SAPS  H18S 8754   2.934   4.534   9.024 -0.3729 -1.1647  1.0485
   90SAPS  C219 8755   2.780   4.532   8.870 -0.1447 -0.1533  0.4836
   90SAPS  H19R 8756   2.788   4.422   8.862 -1.2385 -0.1814 -0.7205
   90SAPS  H19S 8757   2.836   4.587   8.791 -0.9437 -1.3071 -0.9453
   90SAPS  C220 8758   2.640   4.562   8.845  0.1621  0.3491 -0.3010
   90SAPS  H20R 8759   2.564   4.524   8.917  1.0464  0.3235  0.6345
   90SAPS  H20S 8760   2.598   4.525   8.749 -1.8164  0.4338  0.4788
   90SAPS  H20T 8761   2.630   4.672   8.830  1.4797  0.4931 -0.2573
   90SAPS   C33 8762   3.224   5.255  10.213  0.1096  0.0705  0.2954
   90SAPS   H3X 8763   3.141   5.182  10.201  0.5639 -0.0933 -2.6248
   90SAPS   H3Y 8764   3.305   5.213  10.150 -0.4514  0.5335 -0.7548
   90SAPS   C34 8765   3.162   5.383  10.160  0.2948  0.3270  0.3651
   90SAPS   H4X 8766   3.229   5.469  10.179 -0.5703  1.1299 -0.0901
   90SAPS   H4Y 8767   3.070   5.403  10.220  2.0773 -0.6536  3.6372
   90SAPS   C35 8768   3.135   5.383  10.006 -0.5142  0.1349 -0.5166
   90SAPS   H5X 8769   3.082   5.292   9.971  0.1067 -0.9114  1.1020
   90SAPS   H5Y 8770   3.236   5.378   9.959  0.2457 -0.5197  1.0994
   90SAPS   C36 8771   3.060   5.507   9.962  0.6049 -0.6701 -0.2795
   90SAPS   H6X 8772   3.103   5.598  10.009 -0.4344 -1.3801  2.1767
   90SAPS   H6Y 8773   2.954   5.501   9.993  0.9040  0.8804  1.1997
   90SAPS   C37 8774   3.050   5.511   9.806 -0.5022  0.1035 -0.5773
   90SAPS   H7X 8775   3.005   5.418   9.764 -1.3605  0.1323  0.2427
   90SAPS   H7Y 8776   3.154   5.514   9.766  0.7795 -2.7175  2.0876
   90SAPS   C38 8777   2.964   5.627   9.752  0.0305  0.1072 -0.3110
   90SAPS   H8X 8778   3.015   5.724   9.768  0.8564 -0.2663 -0.5703
   90SAPS   H8Y 8779   2.865   5.611   9.799  0.3791 -1.2720  0.0216
   90SAPS   C39 8780   2.924   5.618   9.607 -0.5285 -0.1919  0.4601
   90SAPS   H9X 8781   2.864   5.709   9.586 -0.0357  0.0683  0.1556
   90SAPS   H9Y 8782   2.858   5.530   9.593  1.9724 -2.1375  0.2978
   90SAPS  C310 8783   3.038   5.597   9.509 -0.2933 -0.3484 -0.5486
   90SAPS  H10X 8784   3.092   5.503   9.532 -1.4731 -0.8469  0.2804
   90SAPS  H10Y 8785   3.108   5.680   9.530  0.8545 -0.8962 -1.9845
   90SAPS  C311 8786   2.992   5.575   9.365  0.0110 -1.4084  0.2711
   90SAPS  H11X 8787   2.943   5.476   9.374 -2.0318 -0.4496  0.0818
   90SAPS  H11Y 8788   3.077   5.561   9.295 -1.3703 -1.0966 -1.5443
   90SAPS  C312 8789   2.899   5.693   9.309  0.4767 -0.3180 -0.3119
   90SAPS  H12X 8790   2.954   5.784   9.340 -2.0533  0.9648  0.6678
   90SAPS  H12Y 8791   2.802   5.704   9.361  1.0479  0.1029  0.6924
   90SAPS  C313 8792   2.884   5.685   9.164  0.8143  0.0627  0.0129
   90SAPS  H13X 8793   2.780   5.721   9.147  0.6594  0.4487  1.6328
   90SAPS  H13Y 8794   2.886   5.576   9.140 -1.6609 -0.2760  1.0003
   90SAPS  C314 8795   2.989   5.776   9.095 -0.7738 -0.5454 -0.5074
   90SAPS  H14X 8796   3.089   5.733   9.113 -0.5258  0.4866  0.7789
   90SAPS  H14Y 8797   2.987   5.877   9.143 -1.2576  0.2935 -2.1933
   90SAPS  C315 8798   2.951   5.801   8.948  0.5234 -0.4313 -0.2060
   90SAPS  H15X 8799   2.854   5.855   8.947  0.0730 -1.2098 -1.5456
   90SAPS  H15Y 8800   2.931   5.697   8.914 -0.7417  0.2021 -1.4737
   90SAPS  C316 8801   3.046   5.879   8.861 -0.5106 -0.0062  0.2153
   90SAPS  H16X 8802   3.142   5.824   8.842 -1.4265 -0.9090 -2.2598
   90SAPS  H16Y 8803   3.064   5.975   8.912  0.7578  1.1279 -2.1819
   90SAPS  C317 8804   2.997   5.910   8.720  0.0263 -0.1540 -0.0503
   90SAPS  H17X 8805   2.893   5.948   8.728 -1.0459 -2.5395 -1.3433
   90SAPS  H17Y 8806   2.998   5.824   8.649  2.1118  0.5066 -0.8699
   90SAPS  C318 8807   3.074   6.017   8.648  0.3302 -0.2945  0.1440
   90SAPS  H18X 8808   3.038   6.046   8.547 -0.0169  1.0216  0.6161
   90SAPS  H18Y 8809   3.182   5.994   8.633  0.6128  1.3846 -0.7014
   90SAPS  H18Z 8810   3.064   6.108   8.712 -1.2180 -0.4535  0.1471
   91SAPS     N 8811   6.686   5.653   5.997 -0.0737  0.4543  0.2114
   91SAPS   HN1 8812   6.755   5.581   5.965  0.7551  1.2884  0.0888
   91SAPS   HN2 8813   6.660   5.644   6.097 -0.7126  0.7371  0.0722
   91SAPS   HN3 8814   6.601   5.646   5.938 -0.9574  2.1189  1.2219
   91SAPS   C12 8815   6.745   5.793   5.984 -0.1776 -0.0247 -0.2564
   91SAPS  H12A 8816   6.841   5.796   6.034 -0.5584 -0.9018  0.5502
   91SAPS   C13 8817   6.766   5.846   5.843  0.7709 -0.2345 -0.2084
   91SAPS  O13A 8818   6.738   5.786   5.738  0.1381  0.5396  0.0436
   91SAPS  O13B 8819   6.830   5.956   5.830  0.1318  0.4493 -0.0427
   91SAPS   C11 8820   6.639   5.887   6.049 -0.1863 -0.8531 -0.0395
   91SAPS  H11A 8821   6.674   5.991   6.037 -0.4110 -0.9805 -2.0975
   91SAPS  H11B 8822   6.644   5.858   6.156  0.0632  1.6201  0.6638
   91SAPS     P 8823   6.387   5.944   6.047 -0.1445 -0.2833 -0.6463
   91SAPS   O13 8824   6.410   6.080   6.090  0.1791 -0.5348  0.2906
   91SAPS   O14 8825   6.269   5.921   5.964  0.3124  0.1679 -0.4453
   91SAPS   O12 8826   6.514   5.879   5.979  0.4130  0.7922  0.2102
   91SAPS   O11 8827   6.386   5.864   6.185 -0.1744  0.0826  0.2083
   91SAPS    C1 8828   6.260   5.842   6.248  0.5292  0.4923  0.2085
   91SAPS    HA 8829   6.174   5.877   6.187  0.4328 -0.2792 -0.1141
   91SAPS    HB 8830   6.253   5.733   6.269  1.1141  0.1652 -1.2110
   91SAPS    C2 8831   6.249   5.912   6.388  0.2607  0.0202  0.6228
   91SAPS    HS 8832   6.294   6.013   6.377  0.4533  0.0620  1.6849
   91SAPS   O21 8833   6.315   5.843   6.495 -0.0173  0.1097 -0.5104
   91SAPS   C21 8834   6.439   5.869   6.518  0.3632 -0.0135 -0.0526
   91SAPS   O22 8835   6.509   5.956   6.467  0.1398 -0.2702 -0.2505
   91SAPS   C22 8836   6.498   5.746   6.594 -0.3634 -0.0848 -0.1812
   91SAPS   H2R 8837   6.418   5.691   6.649  0.9472 -0.4617  1.4040
   91SAPS   H2S 8838   6.556   5.682   6.525  1.5862  0.1550  1.1715
   91SAPS    C3 8839   6.105   5.939   6.430  0.4267  0.1969  0.3294
   91SAPS    HX 8840   6.056   5.839   6.424  2.8586 -1.2514  2.4020
   91SAPS    HY 8841   6.063   5.993   6.343  1.9839  0.2220 -0.4311
   91SAPS   O31 8842   6.081   6.016   6.550 -0.4525  0.0663 -0.3210
   91SAPS   C31 8843   6.042   5.936   6.643 -0.8090 -0.1487  0.1076
   91SAPS   O32 8844   6.058   5.815   6.645  0.2016  0.1930 -0.4536
   91SAPS   C32 8845   5.991   6.015   6.756  0.2849 -0.2956 -0.3961
   91SAPS   H2X 8846   5.957   6.116   6.725  1.0391  0.6900  1.7911
   91SAPS   H2Y 8847   6.076   6.033   6.826  1.1027  0.1062 -1.4678
   91SAPS   C23 8848   6.596   5.784   6.703  0.0963 -0.7757  0.2597
   91SAPS   H3R 8849   6.562   5.877   6.752 -5.4483 -1.4531 -1.5726
   91SAPS   H3S 8850   6.693   5.814   6.658 -1.2161  2.3481 -0.7463
   91SAPS   C24 8851   6.614   5.683   6.820 -0.0043  0.1473  0.0198
   91SAPS   H4R 8852   6.513   5.665   6.862 -1.2152 -1.0321 -3.0283
   91SAPS   H4S 8853   6.675   5.742   6.891 -1.4925  3.1914 -1.0638
   91SAPS   C25 8854   6.689   5.560   6.786 -1.1694 -1.3722 -0.1981
   91SAPS   H5R 8855   6.713   5.552   6.679  2.1751 -0.4470  0.3877
   91SAPS   C26 8856   6.740   5.460   6.871 -0.4397  0.4245 -0.4213
   91SAPS   H6R 8857   6.791   5.372   6.829  0.1738  0.3482  0.4724
   91SAPS   C27 8858   6.718   5.459   7.016  0.1521  0.4136 -0.1743
   91SAPS   H7R 8859   6.638   5.530   7.047 -1.5210 -1.3587 -0.2328
   91SAPS   H7S 8860   6.815   5.495   7.058  1.5229 -3.4355  0.3159
   91SAPS   C28 8861   6.675   5.321   7.058 -0.1089 -0.1655  0.7538
   91SAPS   H8R 8862   6.612   5.271   6.983  2.4934  0.9897 -2.4262
   91SAPS   C29 8863   6.706   5.263   7.179  0.5228 -0.1614  0.1485
   91SAPS   H9R 8864   6.669   5.160   7.181  0.4569 -0.1408  0.0275
   91SAPS  C210 8865   6.787   5.326   7.283 -0.0955  0.4069  0.2091
   91SAPS  H10R 8866   6.820   5.427   7.250 -2.2785  0.2593 -2.7823
   91SAPS  H10S 8867   6.882   5.270   7.299 -1.0717 -0.6243  2.9858
   91SAPS  C211 8868   6.721   5.336   7.416  0.5877  0.1155  0.0543
   91SAPS  H11R 8869   6.622   5.384   7.414  0.1444 -0.7773 -1.7294
   91SAPS  C212 8870   6.758   5.279   7.533 -0.4024  0.6484  0.0747
   91SAPS  H12R 8871   6.704   5.294   7.627 -1.8694 -2.6891 -0.1015
   91SAPS  C213 8872   6.878   5.188   7.551  0.4421 -0.2226  0.3602
   91SAPS  H13R 8873   6.941   5.191   7.460 -2.7589  3.5747 -2.0372
   91SAPS  H13S 8874   6.830   5.088   7.557 -0.1899 -0.0092 -0.9904
   91SAPS  C214 8875   6.966   5.218   7.670 -0.4160  0.2563 -0.4705
   91SAPS  H14R 8876   7.021   5.312   7.659 -0.5363  0.5373  1.0978
   91SAPS  C215 8877   6.970   5.141   7.785 -0.7408 -0.2524  0.6864
   91SAPS  H15R 8878   7.039   5.181   7.861  1.5588  1.0848 -1.9381
   91SAPS  C216 8879   6.901   5.012   7.823  0.2976 -0.2815 -0.0493
   91SAPS  H16R 8880   6.975   4.947   7.876 -0.5427 -0.4230  0.9748
   91SAPS  H16S 8881   6.863   4.962   7.732  1.5039 -1.0658 -0.1525
   91SAPS  C217 8882   6.775   5.047   7.914 -0.0391 -0.6763  0.3570
   91SAPS  H17R 8883   6.725   4.949   7.928 -0.6862 -0.4279 -0.1865
   91SAPS  H17S 8884   6.703   5.111   7.860 -1.7037 -0.9571  2.1474
   91SAPS  C218 8885   6.804   5.099   8.055 -0.2429  0.4004  0.0195
   91SAPS  H18R 8886   6.709   5.108   8.111  0.7040  0.4011  1.6981
   91SAPS  H18S 8887   6.848   5.201   8.047 -1.2570  0.8217 -0.3798
   91SAPS  C219 8888   6.901   5.008   8.137  0.0005  0.5289 -0.5687
   91SAPS  H19R 8889   6.992   4.989   8.077 -0.0678  1.1692 -0.8762
   91SAPS  H19S 8890   6.852   4.909   8.153  0.0472  0.6260  0.2358
   91SAPS  C220 8891   6.939   5.074   8.272  0.1836  0.1847 -0.0704
   91SAPS  H20R 8892   6.988   4.993   8.331 -1.2279 -0.8659 -0.2706
   91SAPS  H20S 8893   6.851   5.119   8.323 -1.5388 -2.4138 -0.5161
   91SAPS  H20T 8894   7.011   5.147   8.230  1.0934 -0.4044  0.4244
   91SAPS   C33 8895   5.882   5.941   6.822  0.1607  0.5773  0.2312
   91SAPS   H3X 8896   5.921   5.853   6.878  0.6356 -0.2348 -1.3233
   91SAPS   H3Y 8897   5.808   5.904   6.748  1.9789  1.3566 -2.0873
   91SAPS   C34 8898   5.810   6.020   6.934 -0.1915  0.9281  0.0855
   91SAPS   H4X 8899   5.748   5.943   6.984 -1.3026  1.1065 -0.9811
   91SAPS   H4Y 8900   5.745   6.101   6.895 -0.0630  0.8793 -0.2288
   91SAPS   C35 8901   5.905   6.072   7.045  0.9053  0.0322  0.3040
   91SAPS   H5X 8902   5.970   6.150   7.001 -1.4452  1.1052 -1.4778
   91SAPS   H5Y 8903   5.956   5.993   7.104  1.2571  2.0454  2.9259
   91SAPS   C36 8904   5.816   6.150   7.149  0.1947 -0.0177  0.4809
   91SAPS   H6X 8905   5.743   6.079   7.195  0.8091 -1.2663 -0.3968
   91SAPS   H6Y 8906   5.769   6.233   7.093 -1.0594 -0.8058  0.3024
   91SAPS   C37 8907   5.896   6.206   7.272  0.7692  0.1175  0.4669
   91SAPS   H7X 8908   5.987   6.261   7.241  1.5701 -1.3890  0.0641
   91SAPS   H7Y 8909   5.941   6.112   7.311  0.5541 -0.6987 -1.1741
   91SAPS   C38 8910   5.819   6.288   7.375  0.8901 -0.4201 -0.0615
   91SAPS   H8X 8911   5.723   6.235   7.393  1.0399 -0.7588 -0.2338
   91SAPS   H8Y 8912   5.799   6.391   7.339  1.2485  0.3157  1.7517
   91SAPS   C39 8913   5.888   6.293   7.515  0.1542  0.1815  0.3905
   91SAPS   H9X 8914   5.985   6.345   7.504  1.4630 -2.5473 -2.7351
   91SAPS   H9Y 8915   5.917   6.189   7.543 -2.1258 -0.5433  0.2438
   91SAPS  C310 8916   5.801   6.360   7.621  0.5554  0.4451 -0.4782
   91SAPS  H10X 8917   5.706   6.302   7.624  1.2397 -0.7354 -1.1269
   91SAPS  H10Y 8918   5.771   6.465   7.598  0.0862  0.8260  1.6689
   91SAPS  C311 8919   5.883   6.357   7.751 -0.1305  0.0542 -0.7938
   91SAPS  H11X 8920   5.976   6.415   7.732 -0.1887  0.8738  1.2324
   91SAPS  H11Y 8921   5.913   6.250   7.758 -0.0707 -0.0936 -2.7392
   91SAPS  C312 8922   5.805   6.403   7.871 -0.2885  0.0849  0.4230
   91SAPS  H12X 8923   5.716   6.338   7.887  0.1935 -0.9806 -1.0118
   91SAPS  H12Y 8924   5.772   6.509   7.873  1.5008  0.6694  0.2278
   91SAPS  C313 8925   5.896   6.395   7.991 -0.2974  0.0705 -0.0963
   91SAPS  H13X 8926   5.980   6.466   7.972  1.7900 -1.6239  2.1641
   91SAPS  H13Y 8927   5.926   6.288   7.992 -1.3314 -0.2267  1.2077
   91SAPS  C314 8928   5.812   6.420   8.111 -0.1622 -0.5840  0.0023
   91SAPS  H14X 8929   5.735   6.339   8.115 -1.8256  0.7341 -2.4922
   91SAPS  H14Y 8930   5.749   6.508   8.085  2.1918  0.8169 -1.2909
   91SAPS  C315 8931   5.893   6.449   8.240 -0.0391 -0.2393  1.0738
   91SAPS  H15X 8932   5.956   6.538   8.219 -0.0335 -0.1237  1.5796
   91SAPS  H15Y 8933   5.969   6.368   8.246  2.3356  1.8068  0.4528
   91SAPS  C316 8934   5.811   6.446   8.366  0.2470 -0.4924 -0.4323
   91SAPS  H16X 8935   5.759   6.351   8.389 -0.5492  0.3439  1.4506
   91SAPS  H16Y 8936   5.733   6.524   8.357 -0.5673 -0.9232  2.0252
   91SAPS  C317 8937   5.907   6.451   8.486 -0.0605  0.1940  0.4863
   91SAPS  H17X 8938   5.847   6.461   8.579  1.8342 -1.0605  1.9326
   91SAPS  H17Y 8939   5.970   6.542   8.477 -2.9585  2.1371 -2.0519
   91SAPS  C318 8940   6.004   6.330   8.507  0.2235  0.6958  0.2660
   91SAPS  H18X 8941   6.051   6.345   8.606 -0.7805 -1.1254  1.0747
   91SAPS  H18Y 8942   6.080   6.315   8.428 -0.0283  1.2817 -0.0901
   91SAPS  H18Z 8943   5.932   6.245   8.512  0.3895  0.5346 -0.0086
   92SAPS     N 8944   6.280   3.312   6.523 -0.6120 -0.9132  0.0554
   92SAPS   HN1 8945   6.234   3.385   6.465 -0.3375 -2.3498 -2.1261
   92SAPS   HN2 8946   6.230   3.221   6.510 -1.4230 -0.1733 -2.8012
   92SAPS   HN3 8947   6.278   3.352   6.619 -1.8042 -0.2712 -0.2238
   92SAPS   C12 8948   6.423   3.293   6.495  0.5939 -0.9869  0.5926
   92SAPS  H12A 8949   6.459   3.231   6.575 -3.7819 -3.9503  0.6002
   92SAPS   C13 8950   6.455   3.226   6.360  0.2467  0.3883  0.0925
   92SAPS  O13A 8951   6.361   3.185   6.283  0.9108  0.2954 -0.2949
   92SAPS  O13B 8952   6.573   3.199   6.336  0.2834  0.4142  0.2222
   92SAPS   C11 8953   6.500   3.430   6.489  0.4557 -0.6467  0.5857
   92SAPS  H11A 8954   6.596   3.410   6.438 -0.7196 -1.8436 -1.2802
   92SAPS  H11B 8955   6.505   3.475   6.591  3.2322  1.0035 -0.1753
   92SAPS     P 8956   6.501   3.669   6.376  0.4256 -0.3602  0.0247
   92SAPS   O13 8957   6.628   3.634   6.317 -0.4228  0.7171  0.2846
   92SAPS   O14 8958   6.401   3.742   6.293 -0.1750  0.8558  0.0796
   92SAPS   O12 8959   6.438   3.530   6.413  0.2796 -0.2734 -0.2274
   92SAPS   O11 8960   6.525   3.745   6.509 -0.1172 -0.1919 -0.1973
   92SAPS    C1 8961   6.413   3.752   6.606  0.0902 -0.3103 -0.2656
   92SAPS    HA 8962   6.315   3.777   6.560 -0.2092 -0.8427  0.0782
   92SAPS    HB 8963   6.400   3.650   6.648 -0.3180  0.0066  0.3861
   92SAPS    C2 8964   6.444   3.855   6.710  0.0287  0.3797 -0.2096
   92SAPS    HS 8965   6.455   3.958   6.669  2.1342 -0.1249 -1.0008
   92SAPS   O21 8966   6.580   3.820   6.767  0.0929 -0.6091  0.8219
   92SAPS   C21 8967   6.635   3.916   6.851 -1.2061  0.0840 -0.5198
   92SAPS   O22 8968   6.620   4.035   6.844 -0.3811 -0.6812  0.4235
   92SAPS   C22 8969   6.721   3.849   6.952 -0.2918  0.6795 -0.5016
   92SAPS   H2R 8970   6.776   3.770   6.897  2.1010  1.1074  1.1177
   92SAPS   H2S 8971   6.791   3.920   7.001  1.1203 -1.6314  1.0419
   92SAPS    C3 8972   6.329   3.849   6.814  0.0590  0.3663  0.0334
   92SAPS    HX 8973   6.316   3.745   6.852 -2.7142  0.6190  0.0375
   92SAPS    HY 8974   6.235   3.862   6.756 -0.9511 -3.9674  0.3748
   92SAPS   O31 8975   6.341   3.943   6.920 -0.4556 -0.2524 -0.8230
   92SAPS   C31 8976   6.253   3.936   7.020 -0.3196  0.1944  0.5305
   92SAPS   O32 8977   6.167   3.856   7.032 -0.4866  0.2907  0.0426
   92SAPS   C32 8978   6.305   4.026   7.130  0.6196  0.4877 -0.4703
   92SAPS   H2X 8979   6.252   4.122   7.118  1.3582  0.7430 -1.9872
   92SAPS   H2Y 8980   6.415   4.040   7.120  0.8816 -0.6492  0.5465
   92SAPS   C23 8981   6.629   3.791   7.068  0.2122  0.4002  0.0054
   92SAPS   H3R 8982   6.544   3.738   7.019  0.0489 -1.3196  2.0142
   92SAPS   H3S 8983   6.592   3.884   7.116  0.6163  0.7816 -0.4187
   92SAPS   C24 8984   6.696   3.684   7.159  0.0713 -0.2012  0.6283
   92SAPS   H4R 8985   6.743   3.602   7.100  1.0545  1.1477 -0.5197
   92SAPS   H4S 8986   6.614   3.633   7.215 -1.0340  1.6570  0.7885
   92SAPS   C25 8987   6.795   3.746   7.257 -0.2393  0.1952  0.0187
   92SAPS   H5R 8988   6.884   3.789   7.209  0.6646 -0.7837  0.7677
   92SAPS   C26 8989   6.769   3.766   7.391 -0.0491 -0.0944  0.9040
   92SAPS   H6R 8990   6.846   3.823   7.445  0.5595  1.8552 -1.7768
   92SAPS   C27 8991   6.640   3.729   7.466 -0.0020  0.2592 -0.5074
   92SAPS   H7R 8992   6.655   3.625   7.502  1.4529  0.8303  0.6416
   92SAPS   H7S 8993   6.548   3.736   7.404 -1.8237 -1.1842  1.8390
   92SAPS   C28 8994   6.629   3.805   7.599  0.2187  0.1324  0.4287
   92SAPS   H8R 8995   6.576   3.899   7.575 -1.5004 -1.5907 -3.4640
   92SAPS   C29 8996   6.658   3.771   7.727  0.4602  0.7188 -0.6921
   92SAPS   H9R 8997   6.643   3.848   7.805 -1.4689 -0.5959  0.3159
   92SAPS  C210 8998   6.706   3.641   7.787  0.5740 -0.1891  0.7021
   92SAPS  H10R 8999   6.812   3.649   7.817  1.5066 -0.8502 -2.1020
   92SAPS  H10S 9000   6.710   3.565   7.706  0.6012 -0.8522  1.3149
   92SAPS  C211 9001   6.613   3.603   7.897  0.1129  0.3346  0.7419
   92SAPS  H11R 9002   6.519   3.560   7.862  0.1161  1.1072 -0.2543
   92SAPS  C212 9003   6.635   3.619   8.030  0.6304  0.5086  0.0860
   92SAPS  H12R 9004   6.556   3.581   8.097 -1.3229  2.9136 -0.7154
   92SAPS  C213 9005   6.758   3.668   8.096  0.6718 -0.1223  0.6084
   92SAPS  H13R 9006   6.731   3.759   8.152 -0.6068 -0.5738  0.7537
   92SAPS  H13S 9007   6.836   3.690   8.020 -0.7363 -2.2503 -1.6032
   92SAPS  C214 9008   6.802   3.555   8.183 -0.0272 -0.5522  0.2837
   92SAPS  H14R 9009   6.759   3.457   8.157 -1.4902  0.1194  0.0662
   92SAPS  C215 9010   6.877   3.563   8.294 -0.0601  0.3159  0.0568
   92SAPS  H15R 9011   6.894   3.470   8.350 -0.2294 -0.2767 -0.8533
   92SAPS  C216 9012   6.945   3.687   8.344  0.1231 -0.4974 -0.1120
   92SAPS  H16R 9013   6.883   3.729   8.426 -0.0746  1.6159 -1.2696
   92SAPS  H16S 9014   6.962   3.766   8.269  0.9098  0.0640  0.6360
   92SAPS  C217 9015   7.086   3.664   8.400  0.6064  0.6569 -0.7427
   92SAPS  H17R 9016   7.144   3.642   8.308  0.0005  2.3813 -1.5773
   92SAPS  H17S 9017   7.077   3.578   8.469  0.5191  2.1639  1.2051
   92SAPS  C218 9018   7.148   3.784   8.475 -0.1026 -1.0081  0.1747
   92SAPS  H18R 9019   7.133   3.872   8.410 -1.0943 -0.0081  1.7111
   92SAPS  H18S 9020   7.259   3.774   8.473  0.5624  3.9962 -1.8007
   92SAPS  C219 9021   7.082   3.805   8.609 -0.2682  1.1377  0.0273
   92SAPS  H19R 9022   7.094   3.708   8.663  1.5130  1.0100 -0.5390
   92SAPS  H19S 9023   6.974   3.830   8.602 -1.5119 -2.8216  1.9553
   92SAPS  C220 9024   7.152   3.910   8.685  0.2188  0.3443 -0.2113
   92SAPS  H20R 9025   7.118   3.912   8.791  0.8138  0.6093 -0.0252
   92SAPS  H20S 9026   7.139   4.015   8.651  0.4369  0.3029 -0.4217
   92SAPS  H20T 9027   7.258   3.879   8.681  0.5722  1.6291 -2.3273
   92SAPS   C33 9028   6.279   3.956   7.268  0.2880 -0.1099  0.8736
   92SAPS   H3X 9029   6.333   3.859   7.263 -0.5022 -0.5015 -2.9269
   92SAPS   H3Y 9030   6.170   3.936   7.277  0.1240  0.7099  0.7170
   92SAPS   C34 9031   6.305   4.049   7.381 -0.0852  0.3780  0.0337
   92SAPS   H4X 9032   6.247   4.144   7.376 -0.1746  0.3305  0.1993
   92SAPS   H4Y 9033   6.415   4.062   7.386 -0.1011 -0.1163  2.7973
   92SAPS   C35 9034   6.260   3.979   7.506 -1.2863 -0.0119  0.0575
   92SAPS   H5X 9035   6.309   3.880   7.519  1.3538  1.2376  0.1270
   92SAPS   H5Y 9036   6.152   3.952   7.504 -1.0381 -1.2804  1.6448
   92SAPS   C36 9037   6.293   4.061   7.628 -0.0330 -0.1760  0.1449
   92SAPS   H6X 9038   6.255   4.165   7.623  1.1918  0.4396  2.3877
   92SAPS   H6Y 9039   6.403   4.059   7.643 -0.1691 -3.4259  1.7485
   92SAPS   C37 9040   6.233   3.998   7.759 -0.2530 -0.5853  0.1133
   92SAPS   H7X 9041   6.126   3.979   7.740 -0.4121 -0.6514  1.0339
   92SAPS   H7Y 9042   6.253   4.074   7.837 -1.4416  2.6014 -2.4332
   92SAPS   C38 9043   6.304   3.865   7.794 -0.1359 -0.0292 -0.5215
   92SAPS   H8X 9044   6.404   3.897   7.832 -1.1845  1.1666  1.3781
   92SAPS   H8Y 9045   6.328   3.793   7.713 -1.0496 -1.5078  0.4739
   92SAPS   C39 9046   6.242   3.793   7.918 -0.2590 -0.1569  0.3903
   92SAPS   H9X 9047   6.230   3.876   7.991  2.1576 -0.0393  0.7244
   92SAPS   H9Y 9048   6.313   3.725   7.970  2.5339  2.6645  0.5478
   92SAPS  C310 9049   6.101   3.735   7.906  0.5692 -0.1766 -0.8195
   92SAPS  H10X 9050   6.096   3.658   7.826  2.2942 -0.5289 -0.6322
   92SAPS  H10Y 9051   6.032   3.819   7.884  0.1336 -0.3272 -0.0628
   92SAPS  C311 9052   6.067   3.675   8.046 -0.6345  0.0066 -0.5448
   92SAPS  H11X 9053   6.092   3.750   8.123  1.2859 -0.6058 -0.5141
   92SAPS  H11Y 9054   6.135   3.589   8.068 -1.6415 -1.0571 -1.4359
   92SAPS  C312 9055   5.922   3.620   8.057  0.0203  0.3346  0.5287
   92SAPS  H12X 9056   5.909   3.547   7.974  1.7544 -1.4111  1.6952
   92SAPS  H12Y 9057   5.858   3.710   8.042 -0.5664 -0.2647 -0.7175
   92SAPS  C313 9058   5.894   3.551   8.187  0.1567  0.0811 -0.3272
   92SAPS  H13X 9059   5.986   3.494   8.214  0.6260  2.3057  3.3900
   92SAPS  H13Y 9060   5.809   3.481   8.175 -0.9102  1.1200  0.8948
   92SAPS  C314 9061   5.846   3.639   8.298  0.0713  0.8828 -0.6256
   92SAPS  H14X 9062   5.811   3.734   8.251 -0.5584  1.3680  0.7424
   92SAPS  H14Y 9063   5.914   3.661   8.384 -0.3081 -3.1911  0.9301
   92SAPS  C315 9064   5.732   3.568   8.376 -0.5403 -0.2892 -0.2491
   92SAPS  H15X 9065   5.762   3.470   8.420  0.4339  0.0180 -0.1980
   92SAPS  H15Y 9066   5.646   3.552   8.308 -0.8708 -1.0694  0.3456
   92SAPS  C316 9067   5.679   3.657   8.489 -0.0510 -0.5197 -0.6480
   92SAPS  H16X 9068   5.639   3.752   8.450  1.3214  1.8532  3.1089
   92SAPS  H16Y 9069   5.761   3.687   8.558 -1.3156  0.6457  0.4155
   92SAPS  C317 9070   5.563   3.600   8.570  0.6937  0.2242  0.0273
   92SAPS  H17X 9071   5.599   3.507   8.619  2.3239  0.2821 -0.9922
   92SAPS  H17Y 9072   5.478   3.575   8.503  1.1085  2.0730 -1.2716
   92SAPS  C318 9073   5.517   3.706   8.674  0.1503  0.0692 -0.1481
   92SAPS  H18X 9074   5.600   3.756   8.728  0.3674  2.3135 -2.3526
   92SAPS  H18Y 9075   5.445   3.663   8.746 -0.2044  1.7884  0.5900
   92SAPS  H18Z 9076   5.454   3.787   8.630 -1.5355 -0.1215  1.7627
   93SAPS     N 9077   5.890   4.752   6.540 -0.0154 -0.3155  0.0681
   93SAPS   HN1 9078   5.885   4.851   6.510 -2.0848 -0.3557  0.1244
   93SAPS   HN2 9079   5.801   4.719   6.582 -0.1997  1.1420  0.8940
   93SAPS   HN3 9080   5.974   4.739   6.600  0.8344 -1.9654 -1.3769
   93SAPS   C12 9081   5.925   4.670   6.416  0.3149  0.0889 -0.6809
   93SAPS  H12A 9082   5.947   4.569   6.448 -2.6611  0.1612  2.0871
   93SAPS   C13 9083   5.816   4.655   6.309 -0.2770  0.3210 -0.4861
   93SAPS  O13A 9084   5.699   4.683   6.338 -0.3775 -0.0232 -0.5788
   93SAPS  O13B 9085   5.846   4.590   6.207  0.4032  0.6323  0.0821
   93SAPS   C11 9086   6.054   4.738   6.360 -0.0056 -0.2256 -0.4915
   93SAPS  H11A 9087   6.019   4.834   6.314 -0.7041 -0.4230 -0.3829
   93SAPS  H11B 9088   6.094   4.673   6.280  1.2546 -0.4692  0.3075
   93SAPS     P 9089   6.248   4.630   6.508  0.1350  0.2247  0.5396
   93SAPS   O13 9090   6.165   4.546   6.595  0.0149 -0.8290 -0.4404
   93SAPS   O14 9091   6.301   4.557   6.391 -0.2366 -0.1141  0.2882
   93SAPS   O12 9092   6.151   4.749   6.461 -0.1310 -0.9213  0.1125
   93SAPS   O11 9093   6.362   4.692   6.592  1.2688 -0.2153  0.3331
   93SAPS    C1 9094   6.431   4.810   6.555 -0.0495  0.9054  0.2040
   93SAPS    HA 9095   6.510   4.784   6.481 -0.0993  0.4994  0.2900
   93SAPS    HB 9096   6.359   4.880   6.508  1.2090  0.1264 -3.1012
   93SAPS    C2 9097   6.494   4.887   6.675  0.1030 -0.2904 -0.0526
   93SAPS    HS 9098   6.550   4.975   6.637 -1.1635  1.0526  1.0435
   93SAPS   O21 9099   6.575   4.808   6.758  0.0128  0.3038 -0.7940
   93SAPS   C21 9100   6.685   4.868   6.810  0.5902 -0.5527 -0.4487
   93SAPS   O22 9101   6.715   4.985   6.787 -0.5683 -0.1785 -0.0526
   93SAPS   C22 9102   6.754   4.763   6.903 -0.1846 -0.0043  0.4938
   93SAPS   H2R 9103   6.692   4.680   6.942  1.1762 -1.4279 -0.2549
   93SAPS   H2S 9104   6.836   4.721   6.841 -0.2813 -0.0257  0.3802
   93SAPS    C3 9105   6.378   4.940   6.759 -0.4951  0.0565  0.0661
   93SAPS    HX 9106   6.317   4.852   6.789 -1.4588  0.6311 -0.1983
   93SAPS    HY 9107   6.322   5.007   6.691  0.3108 -0.6030 -1.2881
   93SAPS   O31 9108   6.414   5.001   6.880 -0.3874  0.0238 -0.5263
   93SAPS   C31 9109   6.314   5.069   6.931  0.2016 -0.3314 -0.5505
   93SAPS   O32 9110   6.208   5.084   6.870  0.2894 -0.1977  0.1850
   93SAPS   C32 9111   6.344   5.117   7.078  0.6224 -0.3592 -0.2833
   93SAPS   H2X 9112   6.400   5.213   7.070 -0.5487  0.4113  0.5956
   93SAPS   H2Y 9113   6.404   5.035   7.122  0.3343 -0.4842 -0.1220
   93SAPS   C23 9114   6.831   4.823   7.023 -0.0397  0.5506  0.3928
   93SAPS   H3R 9115   6.839   4.932   7.005  2.2740  0.2928 -0.4981
   93SAPS   H3S 9116   6.931   4.774   7.026  0.4160  1.4689  0.6938
   93SAPS   C24 9117   6.759   4.817   7.165 -0.1513 -0.3323 -0.4570
   93SAPS   H4R 9118   6.733   4.712   7.190 -2.1332  0.5078  1.3744
   93SAPS   H4S 9119   6.655   4.856   7.156  0.4101  1.2593 -0.4979
   93SAPS   C25 9120   6.845   4.883   7.271 -0.0172 -1.2480 -0.0371
   93SAPS   H5R 9121   6.867   4.989   7.254 -2.1197 -1.0160 -1.7586
   93SAPS   C26 9122   6.897   4.821   7.379 -0.7634  0.2259  0.6530
   93SAPS   H6R 9123   6.939   4.887   7.455 -1.7325 -1.0372  2.3526
   93SAPS   C27 9124   6.883   4.672   7.401 -0.1444  0.1510 -0.7066
   93SAPS   H7R 9125   6.986   4.633   7.412 -0.0646  0.4360 -0.4450
   93SAPS   H7S 9126   6.847   4.621   7.309 -0.3008 -0.6652 -0.2017
   93SAPS   C28 9127   6.790   4.638   7.516  0.0897  0.5265  0.0076
   93SAPS   H8R 9128   6.686   4.623   7.485  0.4223 -1.7695 -0.2021
   93SAPS   C29 9129   6.842   4.609   7.640 -0.8151 -0.1391 -0.0898
   93SAPS   H9R 9130   6.776   4.574   7.720 -0.6153  0.7184  0.4693
   93SAPS  C210 9131   6.986   4.613   7.685  0.2269 -0.7895  0.1643
   93SAPS  H10R 9132   6.980   4.648   7.791  2.0617  2.4947 -0.6688
   93SAPS  H10S 9133   7.047   4.690   7.633 -0.1904 -1.5868 -1.5591
   93SAPS  C211 9134   7.048   4.476   7.678  0.7409 -0.1867 -0.4044
   93SAPS  H11R 9135   7.120   4.459   7.596  0.8607 -1.5859 -0.0351
   93SAPS  C212 9136   7.057   4.387   7.785 -0.4255 -0.1948  0.6571
   93SAPS  H12R 9137   7.108   4.290   7.774 -0.1313  0.1004 -0.7093
   93SAPS  C213 9138   6.971   4.403   7.912 -0.4704  0.2225  0.0156
   93SAPS  H13R 9139   6.935   4.299   7.927 -1.4679  0.6397  0.5834
   93SAPS  H13S 9140   6.884   4.471   7.899 -0.9549 -0.2997  0.4713
   93SAPS  C214 9141   7.060   4.446   8.028  0.2867 -0.9250  0.3415
   93SAPS  H14R 9142   7.169   4.435   8.017  0.4482  0.0338  0.8802
   93SAPS  C215 9143   7.022   4.507   8.136 -0.4629  0.3812 -0.0375
   93SAPS  H15R 9144   7.095   4.542   8.211 -0.6874 -0.1697  0.4439
   93SAPS  C216 9145   6.880   4.539   8.163  0.6044  0.4461  0.2170
   93SAPS  H16R 9146   6.806   4.523   8.081  0.8639  1.1665 -0.1726
   93SAPS  H16S 9147   6.871   4.647   8.188  1.2280  0.2768  1.2503
   93SAPS  C217 9148   6.823   4.463   8.284 -0.1222 -0.0680 -0.0988
   93SAPS  H17R 9149   6.886   4.450   8.375 -0.3090 -2.6005 -0.2626
   93SAPS  H17S 9150   6.807   4.360   8.245 -1.4291 -0.1266  0.5314
   93SAPS  C218 9151   6.692   4.528   8.329 -0.1439  0.5721 -0.0475
   93SAPS  H18R 9152   6.618   4.520   8.247 -0.8284 -2.5061  0.7478
   93SAPS  H18S 9153   6.700   4.632   8.369  0.2587  0.3827  0.3713
   93SAPS  C219 9154   6.632   4.452   8.451 -0.3108  0.0485 -0.9353
   93SAPS  H19R 9155   6.627   4.343   8.431 -1.3885 -0.5797  2.1993
   93SAPS  H19S 9156   6.524   4.477   8.457 -1.0210 -2.4729 -1.9100
   93SAPS  C220 9157   6.699   4.480   8.589 -1.4068  0.1767  0.5215
   93SAPS  H20R 9158   6.674   4.583   8.621 -1.6794  0.2445  0.1020
   93SAPS  H20S 9159   6.810   4.471   8.578 -1.3518  2.6826 -2.4585
   93SAPS  H20T 9160   6.662   4.402   8.658 -0.3578  0.0889  1.0087
   93SAPS   C33 9161   6.209   5.149   7.152 -0.9529 -0.5668 -0.3244
   93SAPS   H3X 9162   6.145   5.062   7.129  3.2302 -3.9682 -0.2620
   93SAPS   H3Y 9163   6.160   5.234   7.098 -0.6329 -0.0223  0.2275
   93SAPS   C34 9164   6.220   5.178   7.303  0.4899  0.2227  0.2541
   93SAPS   H4X 9165   6.251   5.086   7.356  0.9683  0.1741 -0.1101
   93SAPS   H4Y 9166   6.120   5.203   7.347  0.8462  3.8294 -0.6555
   93SAPS   C35 9167   6.323   5.281   7.345 -0.1729 -0.9024 -0.3987
   93SAPS   H5X 9168   6.287   5.381   7.314  0.1590 -1.0966 -1.4572
   93SAPS   H5Y 9169   6.422   5.248   7.306 -0.8310 -1.9399 -1.2503
   93SAPS   C36 9170   6.347   5.279   7.495 -0.2349  0.2678  0.2406
   93SAPS   H6X 9171   6.419   5.362   7.511 -1.1840  0.9437  1.0935
   93SAPS   H6Y 9172   6.391   5.183   7.531  1.3200  1.1317  0.7556
   93SAPS   C37 9173   6.220   5.308   7.571 -0.5295  0.8615 -0.8656
   93SAPS   H7X 9174   6.153   5.220   7.566 -0.3836  0.7715 -1.3952
   93SAPS   H7Y 9175   6.170   5.391   7.516 -3.8366  0.4412  1.2418
   93SAPS   C38 9176   6.253   5.330   7.724  0.5624 -0.5306  0.6959
   93SAPS   H8X 9177   6.320   5.246   7.755  1.8300  0.1409 -0.1055
   93SAPS   H8Y 9178   6.162   5.325   7.787  0.1157 -0.5811  0.0628
   93SAPS   C39 9179   6.317   5.469   7.756  0.1978  0.0166  0.6074
   93SAPS   H9X 9180   6.262   5.548   7.702  0.3757 -1.9548 -2.7097
   93SAPS   H9Y 9181   6.423   5.466   7.723  0.0664  0.8152  0.1117
   93SAPS  C310 9182   6.309   5.505   7.898  0.4643 -0.0079 -1.0207
   93SAPS  H10X 9183   6.203   5.540   7.902  0.6840  0.8575 -2.2088
   93SAPS  H10Y 9184   6.373   5.594   7.917 -0.6982  0.7738 -0.6413
   93SAPS  C311 9185   6.347   5.397   8.003 -0.0804 -0.5322 -0.2935
   93SAPS  H11X 9186   6.457   5.387   8.005 -0.1297 -1.1414 -0.5087
   93SAPS  H11Y 9187   6.303   5.300   7.970 -0.6827 -0.6508  0.8298
   93SAPS  C312 9188   6.292   5.434   8.142  0.0882 -0.1061  0.0757
   93SAPS  H12X 9189   6.182   5.441   8.158  0.4046  0.6297  2.3979
   93SAPS  H12Y 9190   6.347   5.526   8.173  1.9863 -0.9402 -0.6503
   93SAPS  C313 9191   6.323   5.325   8.246  0.0050 -0.1912 -0.5299
   93SAPS  H13X 9192   6.432   5.309   8.254  0.1087  0.9008  0.5568
   93SAPS  H13Y 9193   6.272   5.230   8.219 -1.7261  0.2297  1.0648
   93SAPS  C314 9194   6.265   5.367   8.383  0.4172  0.1014 -0.3920
   93SAPS  H14X 9195   6.156   5.371   8.362  0.5104 -0.3189 -0.9746
   93SAPS  H14Y 9196   6.282   5.475   8.402 -0.3664 -0.1253  1.9476
   93SAPS  C315 9197   6.307   5.278   8.505  0.5001  0.2392  0.2170
   93SAPS  H15X 9198   6.412   5.310   8.526  0.0955  1.3915  0.5983
   93SAPS  H15Y 9199   6.313   5.174   8.469  1.0570  0.5002 -0.4662
   93SAPS  C316 9200   6.220   5.301   8.629  0.0822 -0.3659 -0.0081
   93SAPS  H16X 9201   6.163   5.396   8.624  1.1522  0.2340 -1.2037
   93SAPS  H16Y 9202   6.279   5.303   8.723 -0.0982  0.3294  0.1016
   93SAPS  C317 9203   6.133   5.170   8.657 -0.3170 -0.1422  0.4086
   93SAPS  H17X 9204   6.067   5.188   8.745 -0.8861 -0.6702  0.0984
   93SAPS  H17Y 9205   6.202   5.087   8.683  2.1935  1.7928  0.3447
   93SAPS  C318 9206   6.055   5.130   8.535 -0.9573  0.2817  0.5103
   93SAPS  H18X 9207   6.001   5.220   8.499 -0.3916  1.7706  3.1831
   93SAPS  H18Y 9208   5.980   5.052   8.558 -0.5535 -0.4755 -0.6296
   93SAPS  H18Z 9209   6.122   5.079   8.462 -0.9255  1.6906 -0.4893
   94SAPS     N 9210   0.616   5.625   5.887  0.0306  0.6453  0.0489
   94SAPS   HN1 9211   0.521   5.657   5.917  0.9722  2.1723  1.5671
   94SAPS   HN2 9212   0.660   5.593   5.976  1.3414 -1.6281 -1.3327
   94SAPS   HN3 9213   0.670   5.703   5.845  0.1014  0.4692 -0.1912
   94SAPS   C12 9214   0.604   5.512   5.790 -0.3539  0.2332  0.5017
   94SAPS  H12A 9215   0.566   5.559   5.700 -1.0660 -1.6171 -0.2027
   94SAPS   C13 9216   0.733   5.431   5.764 -0.8384  0.5033  0.8042
   94SAPS  O13A 9217   0.839   5.476   5.807  0.4963  0.2220  0.0844
   94SAPS  O13B 9218   0.730   5.337   5.675 -0.1449  0.6828  0.2732
   94SAPS   C11 9219   0.495   5.409   5.834 -0.2882 -0.3317  0.1456
   94SAPS  H11A 9220   0.525   5.343   5.918  2.4095  0.8989  0.2436
   94SAPS  H11B 9221   0.470   5.343   5.748 -1.8940  0.5472 -0.1011
   94SAPS     P 9222   0.245   5.414   5.912 -0.0387 -0.2295 -0.2329
   94SAPS   O13 9223   0.134   5.513   5.902 -0.2420  0.4823 -0.1436
   94SAPS   O14 9224   0.226   5.296   5.828  0.0758 -0.3263 -0.3368
   94SAPS   O12 9225   0.380   5.484   5.878 -0.3310  0.3527  0.6080
   94SAPS   O11 9226   0.275   5.371   6.059 -0.3171  0.3543 -0.7946
   94SAPS    C1 9227   0.380   5.426   6.145  0.4178  0.2535  0.2914
   94SAPS    HA 9228   0.469   5.360   6.140 -2.2594 -3.7615  0.7644
   94SAPS    HB 9229   0.405   5.525   6.102 -0.4523 -0.9765 -3.4753
   94SAPS    C2 9230   0.348   5.436   6.293 -0.8140  1.0535 -0.9027
   94SAPS    HS 9231   0.335   5.336   6.341  2.2488  0.5674 -0.8689
   94SAPS   O21 9232   0.230   5.511   6.317  0.5778 -0.4705  0.4960
   94SAPS   C21 9233   0.233   5.636   6.309 -0.0139 -0.3634 -0.5126
   94SAPS   O22 9234   0.318   5.705   6.253 -0.0470 -0.3354 -0.1519
   94SAPS   C22 9235   0.099   5.691   6.375 -0.4707 -0.1387  0.0761
   94SAPS   H2R 9236   0.015   5.648   6.318 -0.7204 -0.2775  0.5464
   94SAPS   H2S 9237   0.081   5.654   6.478 -1.7808 -0.8973 -0.4132
   94SAPS    C3 9238   0.477   5.494   6.371 -0.0289 -0.1481  0.2206
   94SAPS    HX 9239   0.510   5.580   6.310  0.6084 -0.4486  0.1360
   94SAPS    HY 9240   0.557   5.417   6.369 -1.3897 -1.5959 -1.0661
   94SAPS   O31 9241   0.457   5.542   6.507 -0.3859  0.5522 -0.1939
   94SAPS   C31 9242   0.403   5.458   6.593 -0.0913  0.3498  0.4978
   94SAPS   O32 9243   0.367   5.347   6.576  0.0875  0.1490  0.6117
   94SAPS   C32 9244   0.391   5.538   6.724 -0.4653  0.2971  0.5684
   94SAPS   H2X 9245   0.323   5.625   6.714 -0.7818  0.0747  0.7764
   94SAPS   H2Y 9246   0.492   5.581   6.739 -1.2719  1.9159  1.5431
   94SAPS   C23 9247   0.087   5.847   6.352 -0.7465 -0.2121  0.6849
   94SAPS   H3R 9248  -0.020   5.871   6.370 -0.9969 -0.2200 -0.7018
   94SAPS   H3S 9249   0.112   5.875   6.248  2.6535 -0.4162  1.3524
   94SAPS   C24 9250   0.179   5.919   6.446 -0.3819  0.2704  0.1002
   94SAPS   H4R 9251   0.285   5.905   6.416  0.0040  1.5469  0.7815
   94SAPS   H4S 9252   0.176   5.876   6.548  1.4844  0.1160  0.1131
   94SAPS   C25 9253   0.166   6.069   6.436 -0.0840 -0.1492 -0.1890
   94SAPS   H5R 9254   0.204   6.116   6.345  0.0128  2.5282  1.1409
   94SAPS   C26 9255   0.125   6.146   6.536  0.2787  0.4413  0.2620
   94SAPS   H6R 9256   0.104   6.253   6.521 -1.8575  0.0568  0.1664
   94SAPS   C27 9257   0.081   6.096   6.676  0.0833 -0.5528 -0.2189
   94SAPS   H7R 9258   0.094   5.987   6.691 -1.0567 -1.0503 -2.4773
   94SAPS   H7S 9259  -0.029   6.113   6.677  0.1636  0.5404 -2.5695
   94SAPS   C28 9260   0.141   6.160   6.799 -0.3384  0.3582 -0.0490
   94SAPS   H8R 9261   0.206   6.247   6.784  2.8362 -1.6689  0.9121
   94SAPS   C29 9262   0.118   6.115   6.921  0.3455  0.5392  0.2522
   94SAPS   H9R 9263   0.171   6.162   7.006 -0.9518 -1.0944  2.0464
   94SAPS  C210 9264   0.039   5.992   6.972 -0.4809 -0.0227  0.6066
   94SAPS  H10R 9265   0.109   5.913   7.005 -1.5147 -0.7644  1.0633
   94SAPS  H10S 9266  -0.026   5.950   6.892  0.3177  1.8281 -1.1098
   94SAPS  C211 9267  -0.043   6.029   7.095 -0.1714  0.4065 -0.2813
   94SAPS  H11R 9268  -0.116   6.105   7.065 -0.2635  0.5980  0.4135
   94SAPS  C212 9269  -0.037   5.973   7.214 -0.8622  0.2259 -0.2117
   94SAPS  H12R 9270  -0.104   6.015   7.291 -1.0210  0.6566 -0.5837
   94SAPS  C213 9271   0.048   5.857   7.267 -0.0594 -0.6106  0.4923
   94SAPS  H13R 9272   0.084   5.881   7.370  0.0711  3.3167 -0.3276
   94SAPS  H13S 9273   0.140   5.848   7.206 -0.1760  0.3907  0.1489
   94SAPS  C214 9274  -0.024   5.723   7.260  1.1990 -0.5268  0.5217
   94SAPS  H14R 9275   0.000   5.665   7.169  0.5913  3.8739 -2.8269
   94SAPS  C215 9276  -0.117   5.684   7.351 -0.4925  0.2374 -0.5553
   94SAPS  H15R 9277  -0.162   5.584   7.340 -1.5001  0.4338  1.3707
   94SAPS  C216 9278  -0.169   5.750   7.479  0.5024 -0.3745  0.2438
   94SAPS  H16R 9279  -0.273   5.784   7.465  0.7154  1.3852  2.4071
   94SAPS  H16S 9280  -0.115   5.839   7.518  2.0094 -1.4581  0.7475
   94SAPS  C217 9281  -0.173   5.646   7.593  0.3493  0.1674  0.3447
   94SAPS  H17R 9282  -0.232   5.556   7.564 -0.7040  0.8059  0.4339
   94SAPS  H17S 9283  -0.237   5.694   7.670  2.0536  2.8819  0.2037
   94SAPS  C218 9284  -0.036   5.626   7.657  0.6665  0.0012  0.0652
   94SAPS  H18R 9285   0.003   5.730   7.661  1.4211 -0.3193  1.7395
   94SAPS  H18S 9286   0.037   5.573   7.593 -1.4372 -1.3809 -1.3277
   94SAPS  C219 9287  -0.051   5.557   7.794 -0.6095 -0.2912  0.2970
   94SAPS  H19R 9288  -0.098   5.456   7.790 -3.0537  0.7578  0.9264
   94SAPS  H19S 9289  -0.119   5.610   7.864  0.8449  1.4871  0.4463
   94SAPS  C220 9290   0.079   5.537   7.871 -0.3856 -0.0121 -0.4883
   94SAPS  H20R 9291   0.159   5.485   7.814  1.7339 -0.5889  2.7004
   94SAPS  H20S 9292   0.048   5.496   7.970 -1.0945 -1.0479 -1.1221
   94SAPS  H20T 9293   0.131   5.634   7.890 -3.0705  1.5008 -0.3538
   94SAPS   C33 9294   0.359   5.456   6.852 -0.4817 -0.3998 -0.5262
   94SAPS   H3X 9295   0.438   5.382   6.875  3.3597  3.1885 -0.7854
   94SAPS   H3Y 9296   0.259   5.408   6.845 -1.4672  1.4129  0.2236
   94SAPS   C34 9297   0.352   5.548   6.974 -0.1437 -0.2167 -0.9066
   94SAPS   H4X 9298   0.263   5.613   6.963  1.0876  1.7343  0.0579
   94SAPS   H4Y 9299   0.443   5.613   6.978 -0.6936  0.5220  0.2953
   94SAPS   C35 9300   0.334   5.471   7.106  0.1003 -0.8607  0.2594
   94SAPS   H5X 9301   0.414   5.394   7.104  0.2358 -0.7176 -0.8865
   94SAPS   H5Y 9302   0.237   5.419   7.116  1.4633 -3.1254  2.9394
   94SAPS   C36 9303   0.351   5.566   7.227  0.9860 -0.8970 -0.6422
   94SAPS   H6X 9304   0.283   5.654   7.238 -1.5987 -2.9129  0.6922
   94SAPS   H6Y 9305   0.451   5.611   7.213  0.6220  0.0738 -0.2180
   94SAPS   C37 9306   0.356   5.496   7.366 -0.1486 -0.4344  1.0248
   94SAPS   H7X 9307   0.438   5.422   7.370  0.6364  0.4136  1.0603
   94SAPS   H7Y 9308   0.260   5.440   7.371 -3.0343  3.9705  1.1508
   94SAPS   C38 9309   0.352   5.601   7.476  0.4150  0.6312 -0.6800
   94SAPS   H8X 9310   0.342   5.547   7.573 -0.1510  2.3148  0.2658
   94SAPS   H8Y 9311   0.254   5.653   7.466  1.3419  2.3862 -1.1417
   94SAPS   C39 9312   0.466   5.704   7.474  0.3904  0.1664  0.4609
   94SAPS   H9X 9313   0.475   5.751   7.374  1.6929  0.1718  0.5642
   94SAPS   H9Y 9314   0.553   5.637   7.486 -1.0230 -1.8127  0.2206
   94SAPS  C310 9315   0.455   5.806   7.587 -0.3848 -0.8505 -0.0063
   94SAPS  H10X 9316   0.355   5.855   7.594 -0.4861 -1.1072  0.3285
   94SAPS  H10Y 9317   0.532   5.880   7.557  0.5660 -0.9970  1.9635
   94SAPS  C311 9318   0.488   5.742   7.726  0.4685  0.9776  0.0022
   94SAPS  H11X 9319   0.598   5.735   7.731  0.6222  1.4624 -1.8626
   94SAPS  H11Y 9320   0.449   5.638   7.734  2.6011  0.2269  1.2108
   94SAPS  C312 9321   0.426   5.817   7.844 -0.8981 -0.7662 -0.1078
   94SAPS  H12X 9322   0.456   5.768   7.940  3.1108 -0.6561 -1.1132
   94SAPS  H12Y 9323   0.315   5.815   7.840 -1.0218  0.3339  1.6801
   94SAPS  C313 9324   0.479   5.961   7.838 -0.1548  0.5950 -0.6889
   94SAPS  H13X 9325   0.452   6.008   7.741 -0.1819  0.2878 -0.8304
   94SAPS  H13Y 9326   0.588   5.949   7.852 -0.2806  0.8615  0.6510
   94SAPS  C314 9327   0.428   6.056   7.945 -0.1094 -0.0991 -0.0856
   94SAPS  H14X 9328   0.319   6.048   7.965  0.3831 -0.4830  3.0434
   94SAPS  H14Y 9329   0.449   6.162   7.920  1.4936 -0.2247  0.6297
   94SAPS  C315 9330   0.519   6.052   8.073  0.6527 -0.4770  0.1788
   94SAPS  H15X 9331   0.625   6.024   8.057  1.3747  2.8641 -2.0949
   94SAPS  H15Y 9332   0.485   5.975   8.145  2.4340 -0.2919  1.2720
   94SAPS  C316 9333   0.510   6.194   8.146  0.1650 -0.1431  0.1441
   94SAPS  H16X 9334   0.402   6.223   8.148  0.0891 -0.4490  0.6755
   94SAPS  H16Y 9335   0.573   6.264   8.086  0.2381 -0.8677 -0.6448
   94SAPS  C317 9336   0.564   6.190   8.289 -0.2520  0.0081  0.2598
   94SAPS  H17X 9337   0.659   6.132   8.284 -0.6463 -0.5895 -0.6190
   94SAPS  H17Y 9338   0.496   6.138   8.361  0.6734  0.4697  1.4922
   94SAPS  C318 9339   0.602   6.328   8.337  0.0778  0.3407 -0.8177
   94SAPS  H18X 9340   0.503   6.380   8.331  1.0122  2.2367 -0.5566
   94SAPS  H18Y 9341   0.661   6.384   8.261  2.4337 -0.7760  0.1204
   94SAPS  H18Z 9342   0.645   6.333   8.439  0.9155  0.4894 -1.1705
   95SAPS     N 9343   1.349   4.015   6.212 -0.3055 -0.0312  0.6663
   95SAPS   HN1 9344   1.256   3.987   6.248 -0.7009  1.9324  1.2965
   95SAPS   HN2 9345   1.392   4.076   6.284 -2.0423  0.3674  1.4100
   95SAPS   HN3 9346   1.348   4.060   6.119  2.0812 -0.5433  0.3241
   95SAPS   C12 9347   1.449   3.902   6.197  0.0190 -0.1137  0.4960
   95SAPS  H12A 9348   1.448   3.857   6.295  0.1449  0.3845  0.7319
   95SAPS   C13 9349   1.413   3.785   6.097 -0.3209  0.2574  0.4239
   95SAPS  O13A 9350   1.318   3.796   6.020  0.1682  0.4686 -0.0393
   95SAPS  O13B 9351   1.497   3.692   6.086  0.0750 -0.1853 -0.2031
   95SAPS   C11 9352   1.590   3.968   6.165 -0.5435  0.2405  0.8255
   95SAPS  H11A 9353   1.590   4.008   6.061 -1.0775  1.5611  1.3194
   95SAPS  H11B 9354   1.666   3.887   6.164 -0.5732  0.1785 -1.1778
   95SAPS     P 9355   1.774   4.112   6.288 -0.2148 -0.2224 -0.2652
   95SAPS   O13 9356   1.861   4.048   6.182  0.6380 -0.5047 -0.4489
   95SAPS   O14 9357   1.777   4.257   6.305 -0.5727  0.4028 -0.0798
   95SAPS   O12 9358   1.627   4.067   6.259 -0.0840 -0.5328  0.6122
   95SAPS   O11 9359   1.799   4.047   6.429  0.6712 -0.0189  0.1118
   95SAPS    C1 9360   1.703   4.065   6.540  0.1535  0.5160  0.0758
   95SAPS    HA 9361   1.716   4.169   6.577  0.2731  0.6582 -0.3643
   95SAPS    HB 9362   1.602   4.039   6.503  0.7009 -0.4682 -0.8109
   95SAPS    C2 9363   1.728   3.973   6.662  0.5419  0.4392  0.3060
   95SAPS    HS 9364   1.652   3.991   6.741  0.9462  1.6691  0.4349
   95SAPS   O21 9365   1.857   4.008   6.716  0.9413  0.5198 -0.0637
   95SAPS   C21 9366   1.859   4.113   6.796 -0.2561  0.6128 -0.0324
   95SAPS   O22 9367   1.762   4.169   6.843 -0.1349 -0.4439 -0.6772
   95SAPS   C22 9368   2.004   4.141   6.848  0.1740 -0.0731  0.2124
   95SAPS   H2R 9369   2.067   4.162   6.758  0.8562 -0.0810  0.6805
   95SAPS   H2S 9370   1.991   4.229   6.914  0.8217 -0.4910  0.9071
   95SAPS    C3 9371   1.727   3.825   6.619  0.2403 -0.5686 -0.2394
   95SAPS    HX 9372   1.797   3.815   6.533 -2.0311  0.3662 -2.3103
   95SAPS    HY 9373   1.625   3.797   6.586  1.1012 -3.5194 -0.6837
   95SAPS   O31 9374   1.756   3.744   6.730 -0.1465  0.1359  0.2566
   95SAPS   C31 9375   1.825   3.632   6.694  0.0906  0.4961  0.0834
   95SAPS   O32 9376   1.853   3.601   6.582  0.1826 -0.2297 -0.6290
   95SAPS   C32 9377   1.842   3.545   6.815 -0.6105  0.8537 -0.9590
   95SAPS   H2X 9378   1.768   3.463   6.822 -0.2004  0.5953  1.2116
   95SAPS   H2Y 9379   1.813   3.607   6.903 -1.3367 -0.5684 -0.1565
   95SAPS   C23 9380   2.055   4.023   6.928 -0.2685 -0.6395 -0.0891
   95SAPS   H3R 9381   2.158   4.053   6.957 -1.3231 -0.4814  4.1106
   95SAPS   H3S 9382   2.063   3.932   6.863 -0.4897 -1.2567  0.7323
   95SAPS   C24 9383   1.986   4.007   7.065 -0.4447 -0.2413 -0.2660
   95SAPS   H4R 9384   1.875   4.016   7.063 -0.5408 -1.2296 -1.8897
   95SAPS   H4S 9385   2.023   4.081   7.139  1.1923 -1.1179 -0.1636
   95SAPS   C25 9386   2.041   3.871   7.104 -0.3266 -0.1023 -0.5652
   95SAPS   H5R 9387   2.062   3.795   7.028  2.2487  0.2534 -0.3010
   95SAPS   C26 9388   2.064   3.836   7.234 -0.5344 -0.2450  0.2185
   95SAPS   H6R 9389   2.097   3.734   7.258 -1.6354 -0.6851 -0.0521
   95SAPS   C27 9390   2.036   3.913   7.357 -0.3944  0.1174 -0.6612
   95SAPS   H7R 9391   2.037   4.023   7.345  1.1736  0.1210 -0.8037
   95SAPS   H7S 9392   2.113   3.890   7.434  1.3070  2.3794 -1.5698
   95SAPS   C28 9393   1.891   3.867   7.392  0.1173  0.1710 -0.0951
   95SAPS   H8R 9394   1.815   3.931   7.345  2.2006  2.3080 -0.7407
   95SAPS   C29 9395   1.856   3.782   7.489  0.3271 -0.3768  0.1113
   95SAPS   H9R 9396   1.753   3.745   7.502  0.7417 -1.1228  1.4334
   95SAPS  C210 9397   1.935   3.710   7.591 -0.3069  0.7459  0.0527
   95SAPS  H10R 9398   2.035   3.757   7.597 -0.2631  0.5857  0.6478
   95SAPS  H10S 9399   1.957   3.609   7.549 -0.7308  0.8930 -0.5390
   95SAPS  C211 9400   1.874   3.716   7.731  0.0433  0.1806  0.7368
   95SAPS  H11R 9401   1.891   3.817   7.773 -0.7104  1.2073 -1.3140
   95SAPS  C212 9402   1.804   3.622   7.795  0.2795  0.4910 -0.3761
   95SAPS  H12R 9403   1.772   3.654   7.895 -2.4014 -2.0526 -0.2767
   95SAPS  C213 9404   1.760   3.482   7.758  0.0538  0.3547  0.6018
   95SAPS  H13R 9405   1.782   3.406   7.836 -0.0352 -0.0412  0.2378
   95SAPS  H13S 9406   1.810   3.452   7.664 -1.2800 -2.0023  0.5792
   95SAPS  C214 9407   1.616   3.484   7.728  0.2144  0.1957  0.2990
   95SAPS  H14R 9408   1.546   3.491   7.813  0.2042  0.4484  0.2697
   95SAPS  C215 9409   1.565   3.482   7.606  0.0986  0.3165  0.5541
   95SAPS  H15R 9410   1.457   3.495   7.593 -0.1926 -1.4675  0.8719
   95SAPS  C216 9411   1.636   3.486   7.474 -0.4702  0.4701  0.1631
   95SAPS  H16R 9412   1.739   3.446   7.481 -0.2872  0.3340 -2.3807
   95SAPS  H16S 9413   1.649   3.589   7.434  3.2927 -0.4816 -1.4884
   95SAPS  C217 9414   1.569   3.383   7.383 -0.0804 -0.3651  0.0102
   95SAPS  H17R 9415   1.459   3.395   7.372 -0.0376 -1.1564 -1.4034
   95SAPS  H17S 9416   1.578   3.281   7.426 -1.3199 -0.5629 -0.1732
   95SAPS  C218 9417   1.628   3.378   7.234 -0.8343  0.5105 -0.4248
   95SAPS  H18R 9418   1.594   3.284   7.186 -1.0596 -0.1134  0.8983
   95SAPS  H18S 9419   1.738   3.376   7.248 -0.7032 -3.1654 -0.9404
   95SAPS  C219 9420   1.597   3.492   7.140  0.0519 -0.3652 -0.0782
   95SAPS  H19R 9421   1.618   3.465   7.034 -1.8196  1.5659 -1.0151
   95SAPS  H19S 9422   1.664   3.577   7.167 -0.3325  0.0384 -0.3814
   95SAPS  C220 9423   1.452   3.532   7.153 -0.8912 -0.1665 -0.0150
   95SAPS  H20R 9424   1.417   3.609   7.081 -1.2057  0.2147  0.5431
   95SAPS  H20S 9425   1.419   3.552   7.257  0.2547 -0.6848  0.4641
   95SAPS  H20T 9426   1.387   3.443   7.137  0.8720 -1.7260  1.0591
   95SAPS   C33 9427   1.987   3.490   6.808 -0.2778  0.3282  0.2414
   95SAPS   H3X 9428   2.077   3.555   6.810  1.6289 -1.6963 -4.4162
   95SAPS   H3Y 9429   1.998   3.432   6.714  3.7786 -0.6422  1.1171
   95SAPS   C34 9430   2.010   3.390   6.919 -0.5764 -0.7310 -0.4728
   95SAPS   H4X 9431   2.110   3.343   6.908 -0.5465 -0.6672 -0.4695
   95SAPS   H4Y 9432   1.935   3.308   6.919 -0.5922 -0.7236 -1.3630
   95SAPS   C35 9433   2.014   3.461   7.059 -0.3627 -0.1033  0.0683
   95SAPS   H5X 9434   1.928   3.531   7.066  1.4271  2.4381 -1.5424
   95SAPS   H5Y 9435   2.110   3.514   7.073 -0.9427  1.4349 -1.4659
   95SAPS   C36 9436   2.016   3.347   7.168 -0.1813 -0.2767  0.0001
   95SAPS   H6X 9437   2.103   3.281   7.146  0.0748 -0.0387  0.2927
   95SAPS   H6Y 9438   1.918   3.294   7.161 -0.1481 -0.6182  1.7230
   95SAPS   C37 9439   2.036   3.390   7.313 -0.0795 -0.2467  0.9049
   95SAPS   H7X 9440   1.958   3.460   7.351  0.4627  0.5940  0.4846
   95SAPS   H7Y 9441   2.130   3.448   7.329 -1.1454  1.6062  0.7527
   95SAPS   C38 9442   2.045   3.270   7.412 -0.0912  0.1723 -0.1148
   95SAPS   H8X 9443   2.128   3.204   7.380 -1.6615 -2.1078  0.2714
   95SAPS   H8Y 9444   1.950   3.214   7.399 -1.6958  2.6244  0.4390
   95SAPS   C39 9445   2.076   3.316   7.560  0.6779  0.0672 -0.1197
   95SAPS   H9X 9446   1.993   3.385   7.586  0.4673 -0.4353  0.5875
   95SAPS   H9Y 9447   2.172   3.372   7.567  0.1757  0.8199  1.1185
   95SAPS  C310 9448   2.074   3.199   7.655 -0.1741 -0.2001 -0.6477
   95SAPS  H10X 9449   2.146   3.119   7.626 -1.0466 -1.2830  0.0957
   95SAPS  H10Y 9450   1.971   3.159   7.659 -0.3455  0.2007  3.0439
   95SAPS  C311 9451   2.112   3.247   7.799 -0.4533  1.1102  0.1056
   95SAPS  H11X 9452   2.048   3.327   7.842  1.1656  3.1362 -1.0602
   95SAPS  H11Y 9453   2.218   3.280   7.805  0.2016 -0.9174  0.6047
   95SAPS  C312 9454   2.118   3.135   7.901  0.8508  0.6084 -0.1360
   95SAPS  H12X 9455   2.209   3.074   7.884  1.3361  1.2436  0.1379
   95SAPS  H12Y 9456   2.029   3.070   7.886 -0.7408  2.8138 -0.6160
   95SAPS  C313 9457   2.108   3.183   8.046 -0.5561 -0.0819  0.4392
   95SAPS  H13X 9458   2.003   3.210   8.070 -1.6313 -2.8322 -0.7481
   95SAPS  H13Y 9459   2.151   3.286   8.046 -1.1083  0.2302  3.4785
   95SAPS  C314 9460   2.162   3.082   8.147  0.2627  0.0589 -0.3551
   95SAPS  H14X 9461   2.271   3.069   8.127  0.7486  2.1333  0.6655
   95SAPS  H14Y 9462   2.115   2.982   8.134  0.1128  0.0889 -0.0550
   95SAPS  C315 9463   2.140   3.128   8.294  0.0368 -0.0689  0.5447
   95SAPS  H15X 9464   2.031   3.148   8.305  0.0654 -0.5263  1.7842
   95SAPS  H15Y 9465   2.199   3.218   8.321 -1.3746  0.9248  0.4410
   95SAPS  C316 9466   2.165   3.007   8.396 -0.1129 -0.1188 -0.0931
   95SAPS  H16X 9467   2.274   3.013   8.416  0.1452 -1.4107 -0.9854
   95SAPS  H16Y 9468   2.151   2.906   8.351 -0.3756 -0.7542  1.3516
   95SAPS  C317 9469   2.079   3.012   8.520  0.0978 -0.3825  0.0463
   95SAPS  H17X 9470   2.113   2.930   8.587  0.6032  0.3412  0.6874
   95SAPS  H17Y 9471   1.977   2.988   8.482  1.7165 -1.1054 -4.5627
   95SAPS  C318 9472   2.081   3.142   8.597 -0.3084  0.2847 -0.2326
   95SAPS  H18X 9473   2.009   3.207   8.544 -0.2646  0.6605  0.1619
   95SAPS  H18Y 9474   2.186   3.175   8.582 -0.2539 -0.6253 -2.2025
   95SAPS  H18Z 9475   2.048   3.132   8.703 -2.7115  2.2224 -0.7036
   96SAPS     N 9476   4.106   6.240   6.170  0.0102 -0.0074 -1.0345
   96SAPS   HN1 9477   4.111   6.222   6.273  2.3616  1.7886 -0.7455
   96SAPS   HN2 9478   4.060   6.333   6.157  3.3832  1.8286 -0.9817
   96SAPS   HN3 9479   4.059   6.158   6.127 -2.4970  1.0666 -0.5488
   96SAPS   C12 9480   4.247   6.262   6.134  0.0814  1.0412  0.1634
   96SAPS  H12A 9481   4.308   6.198   6.195 -0.2241  1.5659  1.0436
   96SAPS   C13 9482   4.270   6.231   5.983 -0.7346 -0.6238  0.9841
   96SAPS  O13A 9483   4.175   6.201   5.911  0.7687 -0.2685  0.1972
   96SAPS  O13B 9484   4.390   6.240   5.939  0.2581  0.3164  0.0137
   96SAPS   C11 9485   4.291   6.400   6.173  0.7109 -0.9593  0.2924
   96SAPS  H11A 9486   4.253   6.469   6.094  1.5988 -2.9274 -1.9625
   96SAPS  H11B 9487   4.402   6.410   6.169  0.6679 -0.5021 -2.6778
   96SAPS     P 9488   4.353   6.454   6.429  0.1419 -0.1926 -0.0948
   96SAPS   O13 9489   4.429   6.327   6.422 -0.2647  0.4790 -0.2747
   96SAPS   O14 9490   4.421   6.587   6.413 -0.2741  0.3448 -0.5782
   96SAPS   O12 9491   4.240   6.438   6.306 -0.2401  0.3759  0.4028
   96SAPS   O11 9492   4.266   6.455   6.555 -0.3365 -0.0482 -0.0042
   96SAPS    C1 9493   4.150   6.540   6.566  0.3240 -0.2591 -0.4906
   96SAPS    HA 9494   4.179   6.645   6.544 -0.4245  0.0499 -0.0387
   96SAPS    HB 9495   4.076   6.509   6.490 -0.8330 -0.0002  0.4857
   96SAPS    C2 9496   4.087   6.525   6.712 -0.6482 -0.0864  0.1384
   96SAPS    HS 9497   4.015   6.609   6.713 -1.1500 -0.3546 -2.7613
   96SAPS   O21 9498   4.190   6.528   6.810  0.7580 -0.1120 -0.2001
   96SAPS   C21 9499   4.243   6.648   6.836 -0.6230 -0.1540 -0.4198
   96SAPS   O22 9500   4.205   6.750   6.780 -0.7198 -0.2573  0.3850
   96SAPS   C22 9501   4.363   6.642   6.932  0.0963  0.6160  0.5105
   96SAPS   H2R 9502   4.451   6.600   6.880  0.6107  1.5122  0.6498
   96SAPS   H2S 9503   4.395   6.746   6.955  1.6370  0.8297 -2.1692
   96SAPS    C3 9504   3.998   6.401   6.738  0.4273  0.4037 -0.5096
   96SAPS    HX 9505   4.055   6.307   6.727 -0.3935 -0.1192 -0.4085
   96SAPS    HY 9506   3.928   6.388   6.652  2.1791 -0.0813 -1.9213
   96SAPS   O31 9507   3.943   6.403   6.868  0.3584  0.1180  0.0223
   96SAPS   C31 9508   4.012   6.358   6.973  0.2168 -0.6748  0.0403
   96SAPS   O32 9509   4.104   6.280   6.971 -0.5288  0.1233  0.2708
   96SAPS   C32 9510   3.953   6.413   7.101 -0.4094 -0.0988 -0.9737
   96SAPS   H2X 9511   3.842   6.410   7.090 -0.4673 -0.7315 -0.3151
   96SAPS   H2Y 9512   3.984   6.517   7.126 -1.0861 -0.4951  1.9553
   96SAPS   C23 9513   4.333   6.563   7.063  0.2582  0.2641  0.4454
   96SAPS   H3R 9514   4.285   6.466   7.035  0.1507  0.5300 -0.3010
   96SAPS   H3S 9515   4.265   6.627   7.123  1.9334  2.1307  0.4567
   96SAPS   C24 9516   4.465   6.529   7.129 -0.1996  0.5113  0.4620
   96SAPS   H4R 9517   4.532   6.491   7.049 -1.0383  0.7252 -0.3580
   96SAPS   H4S 9518   4.451   6.445   7.200  2.2315 -2.3762 -2.2037
   96SAPS   C25 9519   4.526   6.642   7.205  0.4770 -0.5922 -0.0163
   96SAPS   H5R 9520   4.601   6.695   7.143 -0.7278  0.3257 -0.7412
   96SAPS   C26 9521   4.516   6.678   7.329 -0.1741 -0.1751 -0.0192
   96SAPS   H6R 9522   4.579   6.760   7.366 -1.6893  0.8206  0.4574
   96SAPS   C27 9523   4.431   6.616   7.440  0.1063  1.1285 -0.0904
   96SAPS   H7R 9524   4.493   6.587   7.527  0.2060  0.8967 -0.2377
   96SAPS   H7S 9525   4.380   6.523   7.407  0.2557  1.7234 -2.1533
   96SAPS   C28 9526   4.320   6.707   7.484  0.3146  0.1453  0.2015
   96SAPS   H8R 9527   4.262   6.744   7.398  2.1635 -0.8741 -1.5878
   96SAPS   C29 9528   4.297   6.747   7.608 -0.7597 -0.0557  0.4321
   96SAPS   H9R 9529   4.220   6.824   7.624 -0.4179  0.6191 -1.0406
   96SAPS  C210 9530   4.367   6.717   7.740 -0.2494  0.2043 -0.8441
   96SAPS  H10R 9531   4.327   6.787   7.817 -0.6800 -1.0497  0.1062
   96SAPS  H10S 9532   4.471   6.757   7.735 -0.1774  0.1012 -0.2895
   96SAPS  C211 9533   4.362   6.573   7.783 -0.8586  0.0909 -0.1730
   96SAPS  H11R 9534   4.338   6.496   7.708  1.3614 -0.1250 -0.7355
   96SAPS  C212 9535   4.358   6.528   7.909  0.6497  0.7632 -0.8536
   96SAPS  H12R 9536   4.337   6.421   7.926  0.8567  0.7826 -0.4872
   96SAPS  C213 9537   4.379   6.612   8.025 -0.3688  0.1058 -0.1851
   96SAPS  H13R 9538   4.277   6.608   8.069 -0.1503 -0.2465  0.3084
   96SAPS  H13S 9539   4.405   6.716   7.996  0.8728 -0.2594 -0.4599
   96SAPS  C214 9540   4.490   6.567   8.119  0.3338  0.8207  0.3464
   96SAPS  H14R 9541   4.568   6.505   8.072 -2.0977 -1.2625 -1.1877
   96SAPS  C215 9542   4.493   6.576   8.255 -0.4612 -0.1431  0.0137
   96SAPS  H15R 9543   4.581   6.537   8.309 -0.5527 -0.7107 -0.2466
   96SAPS  C216 9544   4.388   6.633   8.339 -0.3087 -0.7145  0.2235
   96SAPS  H16R 9545   4.312   6.566   8.384 -2.7084  2.2743  0.9255
   96SAPS  H16S 9546   4.330   6.709   8.282  1.6604  0.3940 -0.4115
   96SAPS  C217 9547   4.449   6.718   8.459 -0.8099 -0.0874  0.0066
   96SAPS  H17R 9548   4.530   6.778   8.411 -1.5031  0.4064 -0.5661
   96SAPS  H17S 9549   4.491   6.646   8.532 -1.5064  0.0824  0.5770
   96SAPS  C218 9550   4.350   6.812   8.536  0.4511 -0.1952  0.1030
   96SAPS  H18R 9551   4.275   6.750   8.590  2.2313 -1.0216  1.7723
   96SAPS  H18S 9552   4.306   6.876   8.457  0.6564 -2.9560 -2.4162
   96SAPS  C219 9553   4.432   6.891   8.641 -0.5998  0.2639  0.3410
   96SAPS  H19R 9554   4.506   6.953   8.585  1.1505 -0.7402  1.4567
   96SAPS  H19S 9555   4.486   6.812   8.697 -0.2161 -0.0025 -0.3942
   96SAPS  C220 9556   4.353   6.973   8.744 -0.5419 -0.1299  0.0835
   96SAPS  H20R 9557   4.285   6.911   8.806  0.0617  1.6106  2.6599
   96SAPS  H20S 9558   4.295   7.053   8.695 -0.6888 -0.8310 -0.9163
   96SAPS  H20T 9559   4.414   7.021   8.824 -1.5749 -0.3104  1.0032
   96SAPS   C33 9560   4.005   6.331   7.217 -0.4066  0.3442 -0.0634
   96SAPS   H3X 9561   4.114   6.338   7.238 -0.2750  0.6728 -0.8183
   96SAPS   H3Y 9562   3.995   6.223   7.196 -1.6130  0.2978  0.6138
   96SAPS   C34 9563   3.928   6.369   7.345 -0.1477 -0.2502 -0.2150
   96SAPS   H4X 9564   3.955   6.300   7.428 -2.4576 -1.1177 -0.1284
   96SAPS   H4Y 9565   3.822   6.352   7.318 -0.2515  0.7647 -0.4978
   96SAPS   C35 9566   3.946   6.517   7.387 -0.3052 -0.0588 -0.4759
   96SAPS   H5X 9567   3.864   6.580   7.347 -0.4087 -0.0204 -0.2056
   96SAPS   H5Y 9568   4.043   6.558   7.352 -0.1022  1.3739  1.5767
   96SAPS   C36 9569   3.938   6.522   7.536  0.0032 -0.4814  0.4044
   96SAPS   H6X 9570   4.020   6.464   7.585 -0.2104  0.1686  1.5573
   96SAPS   H6Y 9571   3.842   6.480   7.571 -0.1166  2.0253  3.5029
   96SAPS   C37 9572   3.951   6.668   7.592 -0.0026  0.4415 -0.8529
   96SAPS   H7X 9573   3.862   6.729   7.567 -0.0648  0.7066 -0.0302
   96SAPS   H7Y 9574   4.041   6.720   7.552  0.4776  1.4492  1.3424
   96SAPS   C38 9575   3.979   6.683   7.742 -0.1263 -0.0011 -0.0046
   96SAPS   H8X 9576   4.072   6.626   7.763  0.9481  0.3240 -3.2241
   96SAPS   H8Y 9577   3.889   6.634   7.785 -0.6807  1.1410  0.1870
   96SAPS   C39 9578   3.979   6.825   7.798  0.2431 -0.6631  0.6485
   96SAPS   H9X 9579   3.888   6.881   7.767  1.1221  1.4679  1.6893
   96SAPS   H9Y 9580   4.067   6.885   7.763  0.8841 -0.9128  1.7846
   96SAPS  C310 9581   3.998   6.821   7.953  0.3019  0.1173  0.2917
   96SAPS  H10X 9582   4.083   6.753   7.974 -0.1002 -0.3163  0.5500
   96SAPS  H10Y 9583   3.906   6.780   7.999 -0.1564  1.5358  0.6856
   96SAPS  C311 9584   4.018   6.962   8.012 -0.0046  0.0848  0.0618
   96SAPS  H11X 9585   3.927   7.022   7.993  0.7108  0.6551 -1.7133
   96SAPS  H11Y 9586   4.099   7.022   7.965 -1.0044  2.0877  0.8042
   96SAPS  C312 9587   4.053   6.962   8.167  0.5778 -0.8259  0.6224
   96SAPS  H12X 9588   4.158   6.929   8.186  1.0297 -0.0531 -0.3991
   96SAPS  H12Y 9589   3.990   6.884   8.215  2.9984 -1.9080  2.2438
   96SAPS  C313 9590   4.034   7.104   8.221  0.4830  0.2086  0.1222
   96SAPS  H13X 9591   3.929   7.140   8.212 -0.7061 -2.5027  1.6568
   96SAPS  H13Y 9592   4.114   7.169   8.181  0.5727 -0.1014 -0.2040
   96SAPS  C314 9593   4.057   7.108   8.377  0.6396 -0.6920 -0.2818
   96SAPS  H14X 9594   4.155   7.068   8.411  0.6107  0.6247  1.5295
   96SAPS  H14Y 9595   3.980   7.045   8.427 -1.2362  1.7654  0.1532
   96SAPS  C315 9596   4.043   7.257   8.421 -0.3388  0.2283  0.3724
   96SAPS  H15X 9597   3.935   7.283   8.430 -0.8056 -0.2377 -2.9101
   96SAPS  H15Y 9598   4.104   7.319   8.352 -1.0989  2.7226  1.8137
   96SAPS  C316 9599   4.099   7.285   8.559  1.0775 -0.1875  0.2417
   96SAPS  H16X 9600   4.206   7.256   8.558  1.5823  1.5759 -0.4285
   96SAPS  H16Y 9601   4.038   7.219   8.625 -1.6234  0.9309 -0.9961
   96SAPS  C317 9602   4.065   7.429   8.609 -0.4262 -0.0904  0.2865
   96SAPS  H17X 9603   3.956   7.444   8.626 -0.3424  0.8667  0.0053
   96SAPS  H17Y 9604   4.103   7.504   8.537  0.1089  0.8540  1.5189
   96SAPS  C318 9605   4.141   7.458   8.740 -0.3964  0.1127 -0.8385
   96SAPS  H18X 9606   4.094   7.398   8.821 -0.1670  0.8790 -0.1200
   96SAPS  H18Y 9607   4.112   7.562   8.767 -2.1810 -0.6274  0.2203
   96SAPS  H18Z 9608   4.249   7.436   8.725 -0.0783  0.6673  0.5092
   97SAPS     N 9609   4.648   5.004   6.708 -0.0548  0.7360 -0.0960
   97SAPS   HN1 9610   4.569   5.072   6.716  1.0476  1.8532  2.6928
   97SAPS   HN2 9611   4.616   4.914   6.749  0.3510  0.2090 -0.9150
   97SAPS   HN3 9612   4.714   5.041   6.779 -1.8566 -0.4424  2.3534
   97SAPS   C12 9613   4.707   5.008   6.574 -0.4004  0.0928  0.7566
   97SAPS  H12A 9614   4.646   4.951   6.505  0.5850  0.5490 -0.5550
   97SAPS   C13 9615   4.721   5.145   6.509 -0.0486 -0.0794  1.1795
   97SAPS  O13A 9616   4.653   5.248   6.545  0.7746  0.1611 -0.6080
   97SAPS  O13B 9617   4.760   5.136   6.386 -0.6585  0.0836 -0.3186
   97SAPS   C11 9618   4.839   4.934   6.577 -0.1400  0.1790 -0.8198
   97SAPS  H11A 9619   4.902   4.967   6.662 -3.2477  2.0474  0.9048
   97SAPS  H11B 9620   4.899   4.951   6.484  1.7730 -0.6087  0.2174
   97SAPS     P 9621   4.925   4.681   6.580 -0.0484 -0.3282 -0.4918
   97SAPS   O13 9622   4.875   4.571   6.498  0.1039  0.2155 -0.1676
   97SAPS   O14 9623   5.053   4.738   6.535  0.1156 -0.2551 -0.4037
   97SAPS   O12 9624   4.816   4.793   6.599 -0.0621  0.3205  0.1231
   97SAPS   O11 9625   4.937   4.630   6.730 -0.6990  0.3552  0.3278
   97SAPS    C1 9626   4.922   4.732   6.824  0.6552  1.1654 -0.7655
   97SAPS    HA 9627   4.988   4.820   6.807 -1.8010  3.3440  0.1719
   97SAPS    HB 9628   4.816   4.762   6.840  0.5449  0.9258 -1.0505
   97SAPS    C2 9629   4.962   4.679   6.962 -0.5081 -0.8194  0.2579
   97SAPS    HS 9630   4.880   4.613   6.996  0.4143 -3.8271 -2.7586
   97SAPS   O21 9631   4.987   4.790   7.042  0.2898 -0.0158 -0.3429
   97SAPS   C21 9632   4.892   4.820   7.132 -0.6153 -0.3698  0.0955
   97SAPS   O22 9633   4.783   4.762   7.148  0.2623  0.0013  0.0833
   97SAPS   C22 9634   4.938   4.943   7.223  0.8482  0.2196  0.2251
   97SAPS   H2R 9635   5.022   4.910   7.287 -0.3783  1.5011  2.6027
   97SAPS   H2S 9636   4.976   5.023   7.156  0.8487  0.0867  0.0659
   97SAPS    C3 9637   5.097   4.604   6.951 -0.0843  0.3155 -0.1555
   97SAPS    HX 9638   5.175   4.663   6.899 -0.2514  2.9767  2.3686
   97SAPS    HY 9639   5.073   4.519   6.883  0.0521  1.8783 -2.2884
   97SAPS   O31 9640   5.141   4.576   7.085  0.2088  0.4661 -0.1277
   97SAPS   C31 9641   5.085   4.469   7.144 -0.5155  1.1409  0.2202
   97SAPS   O32 9642   5.012   4.385   7.089  0.1363 -0.1038 -0.2122
   97SAPS   C32 9643   5.123   4.462   7.293 -0.1811 -0.1219  0.3423
   97SAPS   H2X 9644   5.223   4.509   7.300  0.2541 -0.1999 -3.5162
   97SAPS   H2Y 9645   5.135   4.355   7.321  4.6028  0.3507  0.7703
   97SAPS   C23 9646   4.824   4.992   7.313  0.5613 -0.5572  0.2120
   97SAPS   H3R 9647   4.731   4.992   7.251  2.3036 -1.2391 -2.6212
   97SAPS   H3S 9648   4.853   5.095   7.340  0.3422 -0.5888  0.5697
   97SAPS   C24 9649   4.814   4.896   7.437  0.2082  0.1234  0.6676
   97SAPS   H4R 9650   4.910   4.886   7.491  1.0088 -0.2314 -0.7662
   97SAPS   H4S 9651   4.778   4.795   7.407  1.4116  0.3082 -1.5618
   97SAPS   C25 9652   4.713   4.965   7.526 -0.5530  0.2025 -0.3432
   97SAPS   H5R 9653   4.609   4.974   7.491 -0.9353 -0.4599  0.5717
   97SAPS   C26 9654   4.741   5.030   7.642 -0.6262 -0.2168 -0.2074
   97SAPS   H6R 9655   4.659   5.073   7.702  0.7189  1.6020  0.4031
   97SAPS   C27 9656   4.880   5.037   7.703 -0.0432  1.0579 -0.0498
   97SAPS   H7R 9657   4.898   5.147   7.701 -5.5395  2.2442 -0.2643
   97SAPS   H7S 9658   4.954   4.974   7.650 -1.7624  0.1817 -1.5501
   97SAPS   C28 9659   4.873   4.975   7.844  0.1674 -0.3568  0.5272
   97SAPS   H8R 9660   4.830   4.874   7.845 -0.0655 -0.2665  2.3123
   97SAPS   C29 9661   4.888   5.037   7.964  0.4620  0.0045 -0.4970
   97SAPS   H9R 9662   4.870   4.978   8.055  0.4962  1.2881  0.3630
   97SAPS  C210 9663   4.936   5.178   7.987 -0.2355  0.3103 -0.7136
   97SAPS  H10R 9664   5.001   5.207   7.902  1.2199  0.2911  0.3607
   97SAPS  H10S 9665   4.997   5.166   8.079  0.8261 -1.7545 -1.6144
   97SAPS  C211 9666   4.818   5.269   8.000  0.4024  0.3092  0.3439
   97SAPS  H11R 9667   4.761   5.261   7.907 -0.2241 -1.2749  0.8294
   97SAPS  C212 9668   4.801   5.367   8.085 -0.1985  0.3059  0.3912
   97SAPS  H12R 9669   4.702   5.415   8.085 -1.4949 -2.2112  0.0981
   97SAPS  C213 9670   4.905   5.393   8.201  0.0811  0.4201  0.7985
   97SAPS  H13R 9671   4.928   5.294   8.247  1.3517  0.7997  1.0281
   97SAPS  H13S 9672   4.854   5.449   8.283  0.6831 -0.6492  1.9462
   97SAPS  C214 9673   5.028   5.477   8.170 -0.5830 -0.1141 -0.8597
   97SAPS  H14R 9674   5.068   5.479   8.068  3.0142  1.2948  0.4147
   97SAPS  C215 9675   5.095   5.556   8.258  0.2643  0.3486 -0.9002
   97SAPS  H15R 9676   5.190   5.597   8.221  0.9488  0.7903  1.2113
   97SAPS  C216 9677   5.065   5.581   8.404 -0.0461 -0.6791  0.2278
   97SAPS  H16R 9678   5.154   5.571   8.470  0.4379 -0.3937 -0.3693
   97SAPS  H16S 9679   4.988   5.517   8.452  0.1368 -2.3305 -1.5873
   97SAPS  C217 9680   5.021   5.732   8.425  0.1357 -0.8447 -0.1357
   97SAPS  H17R 9681   5.104   5.804   8.405  0.1363 -0.6509  0.5413
   97SAPS  H17S 9682   4.991   5.744   8.531  3.3535  0.3563  0.7548
   97SAPS  C218 9683   4.897   5.755   8.343  0.1571 -1.0374  0.5800
   97SAPS  H18R 9684   4.823   5.674   8.361  0.2850 -1.7864 -2.0101
   97SAPS  H18S 9685   4.912   5.765   8.234 -2.1007 -2.3783  0.0770
   97SAPS  C219 9686   4.830   5.891   8.370 -0.5650 -0.9646  0.2828
   97SAPS  H19R 9687   4.878   5.982   8.327  1.4551 -1.7958  0.6760
   97SAPS  H19S 9688   4.846   5.895   8.480 -0.7999  0.3906  0.2930
   97SAPS  C220 9689   4.681   5.892   8.352 -0.5813 -0.7764 -0.1298
   97SAPS  H20R 9690   4.642   5.803   8.407  0.0144 -1.5341 -0.9009
   97SAPS  H20S 9691   4.642   5.864   8.252 -0.1600  0.0356 -0.5275
   97SAPS  H20T 9692   4.634   5.983   8.395 -1.5487 -1.4030  0.1844
   97SAPS   C33 9693   5.003   4.522   7.365 -0.2568 -0.2562 -0.0043
   97SAPS   H3X 9694   4.910   4.479   7.323 -1.0679  1.7820 -0.4330
   97SAPS   H3Y 9695   5.005   4.631   7.344  0.2172 -0.4531 -1.0191
   97SAPS   C34 9696   4.998   4.526   7.525 -0.0952  0.2137 -0.1539
   97SAPS   H4X 9697   4.979   4.423   7.560  0.0045  0.7479  1.5493
   97SAPS   H4Y 9698   4.907   4.579   7.561 -0.6560 -0.7157 -0.1825
   97SAPS   C35 9699   5.131   4.575   7.587  0.3975  0.7474  0.1340
   97SAPS   H5X 9700   5.147   4.678   7.547 -0.0246  0.9325  0.4329
   97SAPS   H5Y 9701   5.220   4.519   7.551  0.6408 -0.5607  2.5684
   97SAPS   C36 9702   5.128   4.575   7.746 -0.4219  0.1150  0.6807
   97SAPS   H6X 9703   5.233   4.579   7.781  0.4588 -1.1110 -1.5601
   97SAPS   H6Y 9704   5.097   4.476   7.785  6.4982 -3.0794 -0.4322
   97SAPS   C37 9705   5.045   4.690   7.797 -0.2104  0.1649 -0.5393
   97SAPS   H7X 9706   4.946   4.677   7.747 -0.2850 -0.9970 -0.1416
   97SAPS   H7Y 9707   5.087   4.791   7.783  2.2256 -0.5306  1.0136
   97SAPS   C38 9708   5.027   4.680   7.953 -0.2051  0.6538  0.3253
   97SAPS   H8X 9709   4.989   4.576   7.965  0.6027  0.4471  1.1594
   97SAPS   H8Y 9710   4.943   4.743   7.988 -1.0909 -0.0726 -0.4181
   97SAPS   C39 9711   5.151   4.693   8.038 -0.0860  0.0583 -0.1864
   97SAPS   H9X 9712   5.211   4.778   8.000  0.7898 -0.5011 -0.0890
   97SAPS   H9Y 9713   5.210   4.599   8.026  0.2188 -0.0548  1.7961
   97SAPS  C310 9714   5.135   4.716   8.197  0.4865  0.5499  0.1964
   97SAPS  H10X 9715   5.238   4.726   8.239  1.8521 -2.2250 -2.1443
   97SAPS  H10Y 9716   5.081   4.628   8.236  0.7121 -1.8077 -4.1227
   97SAPS  C311 9717   5.068   4.840   8.236  1.0873 -0.0287 -0.2416
   97SAPS  H11X 9718   4.971   4.853   8.184 -1.0981 -1.2932  3.1720
   97SAPS  H11Y 9719   5.131   4.923   8.198  1.2379  0.6942  1.4766
   97SAPS  C312 9720   5.051   4.866   8.392 -0.5704  0.2532  0.2687
   97SAPS  H12X 9721   5.021   4.972   8.402 -0.0977  0.6107 -1.7025
   97SAPS  H12Y 9722   5.151   4.852   8.440  0.8561  0.2331 -2.4799
   97SAPS  C313 9723   4.949   4.768   8.445  0.3534 -0.0510 -0.5171
   97SAPS  H13X 9724   4.992   4.667   8.430 -0.0550 -1.3493  4.9577
   97SAPS  H13Y 9725   4.859   4.793   8.386  0.4858  1.1043 -0.2542
   97SAPS  C314 9726   4.909   4.769   8.595  0.2649 -0.2756 -0.1468
   97SAPS  H14X 9727   4.877   4.871   8.627  0.2175  0.0132 -1.0824
   97SAPS  H14Y 9728   5.000   4.737   8.651 -0.8155  1.1611  2.6351
   97SAPS  C315 9729   4.791   4.672   8.622 -0.1467 -0.2243  0.2378
   97SAPS  H15X 9730   4.826   4.566   8.622 -0.3261 -0.3618  2.9753
   97SAPS  H15Y 9731   4.720   4.701   8.542  1.4307 -0.2853 -1.2322
   97SAPS  C316 9732   4.719   4.700   8.754 -0.5446  0.4829 -1.0499
   97SAPS  H16X 9733   4.621   4.648   8.745 -0.1677 -0.1143 -1.8773
   97SAPS  H16Y 9734   4.690   4.807   8.759  0.5015  0.7787 -0.9989
   97SAPS  C317 9735   4.788   4.653   8.885 -0.0779 -1.0292  0.2297
   97SAPS  H17X 9736   4.888   4.702   8.894 -0.1243 -0.9024  0.0526
   97SAPS  H17Y 9737   4.812   4.545   8.887  1.5053 -0.7162 -0.3950
   97SAPS  C318 9738   4.703   4.689   9.008 -0.6471 -0.2647  0.3279
   97SAPS  H18X 9739   4.601   4.645   9.016 -0.3886 -1.0692 -0.6363
   97SAPS  H18Y 9740   4.698   4.800   9.019  3.3035 -0.0439  1.1454
   97SAPS  H18Z 9741   4.760   4.657   9.098 -0.0073 -4.2611 -1.3164
   98SAPS     N 9742   3.871   3.182   6.254  0.4622 -0.0155 -0.4921
   98SAPS   HN1 9743   3.868   3.286   6.246  1.4204 -0.0314 -1.2880
   98SAPS   HN2 9744   3.776   3.141   6.252 -0.0208  1.0524 -2.5744
   98SAPS   HN3 9745   3.937   3.162   6.331  2.0007  0.0730 -1.7402
   98SAPS   C12 9746   3.941   3.137   6.128 -0.8222 -0.2698 -0.2801
   98SAPS  H12A 9747   3.875   3.135   6.042  2.6337  0.7548 -3.2211
   98SAPS   C13 9748   4.042   3.252   6.081  0.0663  0.4775  0.3384
   98SAPS  O13A 9749   4.041   3.363   6.136  0.1567 -0.2676  0.2951
   98SAPS  O13B 9750   4.129   3.225   5.995 -0.3542 -0.1555  0.5552
   98SAPS   C11 9751   4.023   3.007   6.153  0.3643  0.8322  0.8410
   98SAPS  H11A 9752   4.093   3.023   6.237  0.8520  0.5123  0.4990
   98SAPS  H11B 9753   4.086   2.977   6.067 -1.5821 -0.7562 -0.1325
   98SAPS     P 9754   3.991   2.761   6.248 -0.4895 -0.0126  0.2511
   98SAPS   O13 9755   3.897   2.646   6.213 -0.9491  0.3672  1.0307
   98SAPS   O14 9756   4.129   2.746   6.196  0.0654 -0.0242 -0.4140
   98SAPS   O12 9757   3.932   2.903   6.192 -0.6351  0.4488  0.5422
   98SAPS   O11 9758   3.988   2.782   6.398 -0.7205 -0.0051  0.4568
   98SAPS    C1 9759   3.848   2.793   6.448  0.0851 -0.4431 -0.1147
   98SAPS    HA 9760   3.765   2.793   6.373 -1.6051 -1.0856  1.6506
   98SAPS    HB 9761   3.833   2.710   6.521 -0.1614  1.1289  1.6753
   98SAPS    C2 9762   3.822   2.921   6.538 -0.0677  0.6459  0.1632
   98SAPS    HS 9763   3.796   3.010   6.476  0.2904  2.2337  2.1623
   98SAPS   O21 9764   3.928   2.951   6.626 -0.2070  0.1967  0.2552
   98SAPS   C21 9765   4.012   3.039   6.573 -0.2061  0.0286 -0.1829
   98SAPS   O22 9766   3.994   3.103   6.470 -0.4089  0.4469  0.3472
   98SAPS   C22 9767   4.135   3.061   6.666  0.0860 -0.4255  0.1378
   98SAPS   H2R 9768   4.109   3.014   6.764  0.2022  2.0942  1.4443
   98SAPS   H2S 9769   4.213   2.993   6.624  0.0911 -0.5551  0.3491
   98SAPS    C3 9770   3.690   2.906   6.627 -0.6343 -0.0434  0.6977
   98SAPS    HX 9771   3.692   2.807   6.678  0.2494  0.6094  1.9626
   98SAPS    HY 9772   3.600   2.898   6.563 -1.5826 -3.3696  2.1950
   98SAPS   O31 9773   3.672   3.010   6.726 -0.2699  0.4225  0.1681
   98SAPS   C31 9774   3.632   3.130   6.682  0.4238  0.5686 -0.3479
   98SAPS   O32 9775   3.602   3.161   6.567  0.6602  0.1515 -0.4873
   98SAPS   C32 9776   3.646   3.230   6.794  0.5697 -0.4837 -0.6632
   98SAPS   H2X 9777   3.749   3.231   6.835  0.0483 -0.3062  0.6722
   98SAPS   H2Y 9778   3.590   3.185   6.878  1.5760 -1.5624 -0.5442
   98SAPS   C23 9779   4.164   3.213   6.684  0.0069 -0.7021 -0.0294
   98SAPS   H3R 9780   4.210   3.247   6.589 -0.7815 -2.0350 -0.9266
   98SAPS   H3S 9781   4.242   3.211   6.764 -0.8294  1.3255  0.9093
   98SAPS   C24 9782   4.047   3.301   6.738  0.5217  0.0592 -0.3743
   98SAPS   H4R 9783   3.991   3.245   6.816 -1.1466  0.7321 -1.0348
   98SAPS   H4S 9784   3.967   3.305   6.661 -0.0837  1.5531  0.2911
   98SAPS   C25 9785   4.080   3.442   6.783 -0.2183 -0.3388 -0.1264
   98SAPS   H5R 9786   4.117   3.514   6.708 -1.7457  2.3515  1.5391
   98SAPS   C26 9787   4.102   3.487   6.911  0.0468  0.2358 -0.8886
   98SAPS   H6R 9788   4.126   3.592   6.928  0.3636 -0.2920  2.8732
   98SAPS   C27 9789   4.090   3.414   7.040 -0.2494  0.2648 -0.4937
   98SAPS   H7R 9790   4.135   3.472   7.124 -1.3637 -0.6632  0.7814
   98SAPS   H7S 9791   4.156   3.326   7.029  1.2273  1.1621  0.8096
   98SAPS   C28 9792   3.946   3.383   7.066 -0.0367  0.2240  0.8507
   98SAPS   H8R 9793   3.874   3.465   7.059  0.9800  1.0685 -0.0837
   98SAPS   C29 9794   3.888   3.268   7.103 -0.9367  0.0205 -0.3727
   98SAPS   H9R 9795   3.778   3.264   7.102 -0.9492 -0.0798  0.3929
   98SAPS  C210 9796   3.958   3.140   7.121 -0.2819 -0.3811 -0.9312
   98SAPS  H10R 9797   3.941   3.114   7.228  3.9463 -0.0267  0.0042
   98SAPS  H10S 9798   4.069   3.139   7.120 -0.1998 -2.5107  1.0950
   98SAPS  C211 9799   3.913   3.021   7.040  0.1177 -0.2109  0.9905
   98SAPS  H11R 9800   3.918   3.039   6.931  2.5945  2.9183  1.4838
   98SAPS  C212 9801   3.868   2.906   7.095  0.1620 -0.3855 -0.3893
   98SAPS  H12R 9802   3.831   2.833   7.022 -4.3782 -0.4178  1.6261
   98SAPS  C213 9803   3.841   2.872   7.241 -0.2418  0.2371  0.0014
   98SAPS  H13R 9804   3.773   2.786   7.258  1.4588 -0.6916  3.1090
   98SAPS  H13S 9805   3.803   2.966   7.287  1.6081  1.6908 -1.2716
   98SAPS  C214 9806   3.968   2.848   7.308 -1.1684  0.2228  0.0112
   98SAPS  H14R 9807   4.044   2.808   7.240 -0.4641  1.1706  0.2322
   98SAPS  C215 9808   4.014   2.887   7.425  0.2325  0.1727  0.5166
   98SAPS  H15R 9809   4.113   2.843   7.446  0.1504 -1.5316 -2.1473
   98SAPS  C216 9810   3.943   2.961   7.539  0.0930  0.3078 -0.1460
   98SAPS  H16R 9811   3.964   2.914   7.638  0.9179  0.0233 -0.4495
   98SAPS  H16S 9812   3.834   2.952   7.518 -0.5903  0.7208  2.6990
   98SAPS  C217 9813   3.979   3.108   7.549 -0.5735  0.3291  0.2710
   98SAPS  H17R 9814   3.901   3.162   7.607 -1.5660 -0.2508 -0.4747
   98SAPS  H17S 9815   3.970   3.149   7.446  2.4971 -0.6628 -0.4709
   98SAPS  C218 9816   4.116   3.138   7.614 -0.2890 -0.0966  0.6631
   98SAPS  H18R 9817   4.197   3.082   7.563 -0.7569 -0.0787 -0.1145
   98SAPS  H18S 9818   4.110   3.111   7.722  1.3364  0.5567  0.9324
   98SAPS  C219 9819   4.169   3.286   7.609  0.5200 -0.2193  0.0542
   98SAPS  H19R 9820   4.262   3.287   7.670  1.6756  1.3807 -1.6080
   98SAPS  H19S 9821   4.102   3.362   7.654  1.1783 -0.1177  0.8858
   98SAPS  C220 9822   4.205   3.335   7.470  0.3731 -0.1434  1.0238
   98SAPS  H20R 9823   4.276   3.420   7.477 -0.9266  0.8495  3.8856
   98SAPS  H20S 9824   4.116   3.366   7.411  2.5827  0.8512 -2.0239
   98SAPS  H20T 9825   4.246   3.257   7.403 -1.6914 -2.1926  2.0160
   98SAPS   C33 9826   3.604   3.375   6.755 -0.6501  0.4564 -0.2245
   98SAPS   H3X 9827   3.504   3.365   6.708 -1.8843  0.5263  2.1959
   98SAPS   H3Y 9828   3.678   3.421   6.687 -0.0127  0.3157  0.3521
   98SAPS   C34 9829   3.602   3.457   6.887  0.0296  0.1946  0.1763
   98SAPS   H4X 9830   3.577   3.560   6.854 -2.3954  0.0698  1.3760
   98SAPS   H4Y 9831   3.701   3.465   6.935  0.5063  3.4235 -1.0955
   98SAPS   C35 9832   3.501   3.428   7.003  0.0047 -0.0124  0.4426
   98SAPS   H5X 9833   3.537   3.333   7.049 -0.3870  0.7550  2.4503
   98SAPS   H5Y 9834   3.401   3.412   6.958 -0.0535 -0.2149  0.6388
   98SAPS   C36 9835   3.511   3.540   7.105 -0.1899 -0.8802  0.0112
   98SAPS   H6X 9836   3.436   3.620   7.092  1.7618  0.8134 -1.6593
   98SAPS   H6Y 9837   3.609   3.591   7.120 -2.0826  2.8028  1.0528
   98SAPS   C37 9838   3.502   3.483   7.251 -0.5453  1.1350 -0.4192
   98SAPS   H7X 9839   3.545   3.562   7.318  1.5413 -1.2159  1.2069
   98SAPS   H7Y 9840   3.574   3.399   7.259 -0.3507  1.2644 -0.7885
   98SAPS   C38 9841   3.361   3.454   7.293  0.6324 -0.6282 -0.2708
   98SAPS   H8X 9842   3.303   3.402   7.213 -0.0715 -0.9167  0.4168
   98SAPS   H8Y 9843   3.306   3.549   7.276 -0.6254 -1.5933 -1.9403
   98SAPS   C39 9844   3.323   3.398   7.429  0.2016  0.2037 -0.1868
   98SAPS   H9X 9845   3.340   3.289   7.444  0.1290  0.2841  0.5370
   98SAPS   H9Y 9846   3.212   3.398   7.439  0.1331 -0.6919 -0.8233
   98SAPS  C310 9847   3.390   3.466   7.545  0.4983 -0.4214 -0.0535
   98SAPS  H10X 9848   3.362   3.573   7.533 -0.0814 -0.4542  0.9334
   98SAPS  H10Y 9849   3.499   3.453   7.527  0.2643 -1.5298 -0.8289
   98SAPS  C311 9850   3.355   3.409   7.681 -1.0347  0.3782  0.1426
   98SAPS  H11X 9851   3.411   3.314   7.696 -1.0384  0.4843  0.8670
   98SAPS  H11Y 9852   3.248   3.381   7.688 -2.0004  3.2043 -1.6249
   98SAPS  C312 9853   3.388   3.495   7.803 -0.6219 -0.6326 -0.4770
   98SAPS  H12X 9854   3.355   3.600   7.788  2.1076  0.1617 -1.5611
   98SAPS  H12Y 9855   3.498   3.505   7.797 -0.7096 -0.5121 -2.5970
   98SAPS  C313 9856   3.338   3.439   7.936 -0.3325 -0.5567 -0.7668
   98SAPS  H13X 9857   3.385   3.339   7.950 -0.9718 -0.8023 -0.2897
   98SAPS  H13Y 9858   3.227   3.432   7.925 -0.3667 -0.0150 -0.7947
   98SAPS  C314 9859   3.384   3.537   8.044  0.0554 -0.9113 -0.0646
   98SAPS  H14X 9860   3.318   3.626   8.041  2.7772  1.3174  0.8708
   98SAPS  H14Y 9861   3.485   3.563   8.006 -0.4962 -1.1901 -1.7840
   98SAPS  C315 9862   3.390   3.468   8.181  0.2242 -0.0263 -0.4457
   98SAPS  H15X 9863   3.476   3.399   8.185 -0.4785 -0.9166 -0.3077
   98SAPS  H15Y 9864   3.300   3.405   8.198  0.3603 -0.3853 -1.0081
   98SAPS  C316 9865   3.391   3.570   8.303  0.0582  0.3875 -0.1324
   98SAPS  H16X 9866   3.294   3.624   8.291 -0.7370 -0.6913  1.2311
   98SAPS  H16Y 9867   3.476   3.641   8.296 -0.6281  1.3037  0.4771
   98SAPS  C317 9868   3.398   3.483   8.433  0.5971 -0.7885  0.3029
   98SAPS  H17X 9869   3.412   3.556   8.515  0.3238 -2.7948  2.2052
   98SAPS  H17Y 9870   3.497   3.432   8.423  1.7841  1.0220  2.1144
   98SAPS  C318 9871   3.286   3.385   8.468  0.1185 -0.1298  0.1287
   98SAPS  H18X 9872   3.275   3.304   8.393  1.5241 -1.0818  0.9071
   98SAPS  H18Y 9873   3.191   3.443   8.468 -0.3638 -0.8434 -2.0979
   98SAPS  H18Z 9874   3.312   3.337   8.565 -1.0012  0.0451  0.5300
   99SAPS     N 9875   2.947   1.631   6.366 -0.0970 -0.7217  0.6956
   99SAPS   HN1 9876   2.894   1.559   6.419 -2.0038 -0.8800 -1.2499
   99SAPS   HN2 9877   2.935   1.721   6.417  0.4985 -0.7608  0.9050
   99SAPS   HN3 9878   2.905   1.632   6.270  0.5301  0.3366  0.4109
   99SAPS   C12 9879   3.096   1.597   6.365 -0.4690 -0.0825 -0.6049
   99SAPS  H12A 9880   3.116   1.576   6.469 -4.8158  0.2385  0.5046
   99SAPS   C13 9881   3.137   1.464   6.295 -0.7214  0.0608  0.0735
   99SAPS  O13A 9882   3.049   1.380   6.274  0.2605  0.2124  0.9149
   99SAPS  O13B 9883   3.253   1.421   6.314 -0.5903  0.7646  0.3332
   99SAPS   C11 9884   3.191   1.720   6.312  0.5783  0.1238 -0.0851
   99SAPS  H11A 9885   3.167   1.741   6.206 -1.9044 -0.3006  0.3251
   99SAPS  H11B 9886   3.299   1.693   6.318  0.7495  0.3386 -1.8164
   99SAPS     P 9887   3.259   1.963   6.380 -0.0169 -0.2662  0.2524
   99SAPS   O13 9888   3.319   1.971   6.247 -0.7876 -0.2260  0.3811
   99SAPS   O14 9889   3.182   2.083   6.420  0.8984 -0.6176  0.1878
   99SAPS   O12 9890   3.166   1.836   6.392  0.4483 -0.2768  0.7599
   99SAPS   O11 9891   3.363   1.933   6.492 -0.2314 -0.0465 -0.0635
   99SAPS    C1 9892   3.346   1.859   6.611 -0.1144 -0.1164 -0.7405
   99SAPS    HA 9893   3.328   1.752   6.585 -2.3341  0.4411 -1.7179
   99SAPS    HB 9894   3.442   1.866   6.668  0.0009 -1.2442 -0.7763
   99SAPS    C2 9895   3.227   1.895   6.702 -0.0337  0.2640  0.7167
   99SAPS    HS 9896   3.135   1.873   6.643 -0.1746  1.1675  0.5916
   99SAPS   O21 9897   3.221   2.028   6.751 -1.2668 -0.5054 -0.4132
   99SAPS   C21 9898   3.094   2.077   6.774  0.1919  0.2906 -0.3244
   99SAPS   O22 9899   2.998   2.008   6.740  0.5648 -0.4581  0.2774
   99SAPS   C22 9900   3.081   2.206   6.846 -0.5326  0.6029 -0.2163
   99SAPS   H2R 9901   3.128   2.290   6.791 -1.3476  1.1414 -0.0990
   99SAPS   H2S 9902   2.975   2.222   6.873 -0.2327 -1.0694  2.3205
   99SAPS    C3 9903   3.232   1.801   6.819  0.0353  0.2014 -0.3003
   99SAPS    HX 9904   3.229   1.698   6.777 -1.8696  0.7436 -1.5904
   99SAPS    HY 9905   3.135   1.813   6.871  0.4809  1.5495  0.2678
   99SAPS   O31 9906   3.352   1.823   6.909 -0.3015  0.1312  0.0370
   99SAPS   C31 9907   3.324   1.874   7.034 -0.3286 -0.1788  0.3424
   99SAPS   O32 9908   3.217   1.887   7.081  0.2351  0.1671  0.0992
   99SAPS   C32 9909   3.450   1.926   7.110  0.2900  0.4643 -0.4492
   99SAPS   H2X 9910   3.439   2.037   7.108  1.6160  0.6088 -0.5235
   99SAPS   H2Y 9911   3.544   1.897   7.058  0.9342 -1.6239  1.7129
   99SAPS   C23 9912   3.153   2.203   6.985  0.3587 -0.4072  1.1454
   99SAPS   H3R 9913   3.260   2.196   6.958  0.1777  0.2326  0.2090
   99SAPS   H3S 9914   3.114   2.112   7.036 -1.0148  0.0706  0.9795
   99SAPS   C24 9915   3.130   2.328   7.069 -0.4083  0.5116  1.0345
   99SAPS   H4R 9916   3.019   2.340   7.072 -0.6005 -0.3518 -0.9090
   99SAPS   H4S 9917   3.153   2.417   7.006 -2.0114 -0.3632 -0.9057
   99SAPS   C25 9918   3.203   2.314   7.203  0.3035  0.6622  0.4206
   99SAPS   H5R 9919   3.288   2.244   7.208 -0.9467 -0.9776 -0.3077
   99SAPS   C26 9920   3.159   2.376   7.317 -0.2893 -0.4186  0.0703
   99SAPS   H6R 9921   3.197   2.351   7.418 -1.6197  0.1894  0.7486
   99SAPS   C27 9922   3.046   2.474   7.322 -0.0889 -0.1915 -0.2869
   99SAPS   H7R 9923   3.008   2.460   7.425  2.6572  0.3094  0.8849
   99SAPS   H7S 9924   2.962   2.446   7.255 -0.7972 -0.2806  0.6120
   99SAPS   C28 9925   3.090   2.613   7.285  0.5872  0.6787 -0.3034
   99SAPS   H8R 9926   3.104   2.636   7.179 -2.0227 -0.0974 -0.8849
   99SAPS   C29 9927   3.100   2.716   7.372  0.3876  0.8504  0.2912
   99SAPS   H9R 9928   3.126   2.815   7.332 -0.2689 -0.0849 -2.6837
   99SAPS  C210 9929   3.081   2.724   7.518 -0.1765 -0.1008  1.5424
   99SAPS  H10R 9930   3.099   2.622   7.560  1.0193 -0.8387 -0.5806
   99SAPS  H10S 9931   2.976   2.754   7.533 -0.0769  0.7984  0.5339
   99SAPS  C211 9932   3.182   2.815   7.588 -0.3747  0.7025  0.1796
   99SAPS  H11R 9933   3.204   2.910   7.536  0.2539 -0.2941 -1.4614
   99SAPS  C212 9934   3.243   2.794   7.709 -0.2612 -0.0094 -0.4313
   99SAPS  H12R 9935   3.308   2.878   7.738 -2.4442  1.2059  1.1914
   99SAPS  C213 9936   3.249   2.675   7.801  0.6049  0.2630 -0.4471
   99SAPS  H13R 9937   3.346   2.667   7.853  0.2627  1.6850  0.4843
   99SAPS  H13S 9938   3.237   2.580   7.745 -0.1364  0.5380 -0.7622
   99SAPS  C214 9939   3.135   2.669   7.897  0.1284  0.1910  0.0261
   99SAPS  H14R 9940   3.034   2.706   7.873 -0.1111  0.8316  1.9068
   99SAPS  C215 9941   3.150   2.643   8.029 -1.0280 -0.1322  0.3530
   99SAPS  H15R 9942   3.060   2.640   8.093 -0.9061 -0.8838  0.5026
   99SAPS  C216 9943   3.272   2.604   8.099  0.0582  0.5477  0.2266
   99SAPS  H16R 9944   3.330   2.695   8.125 -0.3981  0.5706  1.2246
   99SAPS  H16S 9945   3.334   2.540   8.034 -1.2548  0.1026 -0.6367
   99SAPS  C217 9946   3.237   2.520   8.227 -0.4422  0.1967  0.2660
   99SAPS  H17R 9947   3.208   2.415   8.203  2.1538 -0.7753  1.0277
   99SAPS  H17S 9948   3.152   2.564   8.282  0.9278  0.0132  2.6698
   99SAPS  C218 9949   3.361   2.504   8.320  0.4122  0.6260 -0.2392
   99SAPS  H18R 9950   3.410   2.604   8.320  1.4733  0.1370 -1.2983
   99SAPS  H18S 9951   3.433   2.443   8.260 -0.6589 -0.3107 -0.6102
   99SAPS  C219 9952   3.322   2.458   8.465 -0.3905 -0.3760  0.7924
   99SAPS  H19R 9953   3.248   2.377   8.451 -0.1490 -0.6985  1.3747
   99SAPS  H19S 9954   3.278   2.538   8.528  0.5314  1.1648 -0.4249
   99SAPS  C220 9955   3.436   2.399   8.547  0.4729  0.7788 -0.1018
   99SAPS  H20R 9956   3.511   2.344   8.485  0.5052  0.7832 -0.0662
   99SAPS  H20S 9957   3.393   2.327   8.619 -0.2193 -0.4175 -1.6512
   99SAPS  H20T 9958   3.493   2.473   8.608  1.8410  0.1725 -0.6013
   99SAPS   C33 9959   3.462   1.879   7.257 -0.5662 -1.2988 -0.7308
   99SAPS   H3X 9960   3.520   1.784   7.257  1.2929 -0.2192 -0.2511
   99SAPS   H3Y 9961   3.361   1.867   7.301  0.2987 -2.6513  0.9895
   99SAPS   C34 9962   3.530   1.987   7.346  0.2378 -0.4184 -0.0353
   99SAPS   H4X 9963   3.479   2.085   7.354  0.9231 -0.0348 -0.2557
   99SAPS   H4Y 9964   3.622   2.000   7.285 -1.0412  0.6993 -1.8106
   99SAPS   C35 9965   3.572   1.951   7.491 -0.9405 -0.3708  0.2511
   99SAPS   H5X 9966   3.655   2.014   7.528  0.5408 -2.3246  0.4262
   99SAPS   H5Y 9967   3.618   1.850   7.490  0.8858  0.4120  1.3537
   99SAPS   C36 9968   3.460   1.962   7.589 -0.4577  0.3905 -0.3440
   99SAPS   H6X 9969   3.377   1.898   7.550 -1.3033  0.3603  1.4064
   99SAPS   H6Y 9970   3.421   2.065   7.605 -1.8330 -0.1565 -0.0456
   99SAPS   C37 9971   3.505   1.908   7.725 -0.0401 -0.2356  0.4906
   99SAPS   H7X 9972   3.580   1.974   7.776 -0.1869 -0.9128  1.6180
   99SAPS   H7Y 9973   3.553   1.809   7.715  0.0944 -0.2141  0.8977
   99SAPS   C38 9974   3.378   1.892   7.809 -0.1887  0.7984  0.5766
   99SAPS   H8X 9975   3.301   1.832   7.755 -1.1915  0.6068  2.1662
   99SAPS   H8Y 9976   3.348   1.997   7.827  0.0728  0.9066  0.3878
   99SAPS   C39 9977   3.409   1.830   7.951  0.3683 -0.3553  1.4706
   99SAPS   H9X 9978   3.495   1.885   7.995  0.6920 -1.7950  2.7069
   99SAPS   H9Y 9979   3.430   1.722   7.938 -0.1112 -0.1658 -1.8655
   99SAPS  C310 9980   3.288   1.837   8.044 -1.0395  0.1528  0.0344
   99SAPS  H10X 9981   3.207   1.779   7.994  0.6918 -0.7628 -1.8478
   99SAPS  H10Y 9982   3.252   1.942   8.052 -0.3999  0.2969  1.2446
   99SAPS  C311 9983   3.328   1.772   8.180 -0.3773  0.3907 -0.7650
   99SAPS  H11X 9984   3.423   1.805   8.228  0.6216 -3.3263  0.1622
   99SAPS  H11Y 9985   3.361   1.666   8.168 -0.5389  0.3843 -1.1668
   99SAPS  C312 9986   3.215   1.773   8.285  0.4823  0.0915  0.5891
   99SAPS  H12X 9987   3.258   1.712   8.367  2.1174  0.2893 -0.0854
   99SAPS  H12Y 9988   3.129   1.725   8.234  1.6928  0.1612 -1.6249
   99SAPS  C313 9989   3.183   1.916   8.324  0.0466  0.0463 -0.8192
   99SAPS  H13X 9990   3.147   1.960   8.228  2.4571  1.1201 -1.2932
   99SAPS  H13Y 9991   3.274   1.976   8.344 -0.3288 -0.4068  3.2504
   99SAPS  C314 9992   3.081   1.938   8.442  0.2688  0.4052 -0.5913
   99SAPS  H14X 9993   2.986   1.881   8.431  0.2546  0.1551  0.6661
   99SAPS  H14Y 9994   3.067   2.047   8.457  0.5177  0.5973 -1.7077
   99SAPS  C315 9995   3.142   1.876   8.576  0.8522 -0.2259  0.0795
   99SAPS  H15X 9996   3.238   1.923   8.605  0.2167 -0.2537  2.3998
   99SAPS  H15Y 9997   3.164   1.771   8.547  0.6128 -0.4288  0.6229
   99SAPS  C316 9998   3.041   1.870   8.699 -0.7593 -0.3778  0.1843
   99SAPS  H16X 9999   3.088   1.792   8.762  0.6739  1.7850  1.9205
   99SAPS  H16Y10000   2.940   1.834   8.670 -1.5684  1.7623  0.1460
   99SAPS  C31710001   3.025   2.004   8.770  0.1713 -0.1177 -0.2204
   99SAPS  H17X10002   3.001   2.083   8.697  0.5748 -0.8948 -1.2224
   99SAPS  H17Y10003   3.129   2.018   8.809  0.0781  2.3574 -0.7461
   99SAPS  C31810004   2.913   2.007   8.873 -0.4740 -0.1145 -0.6039
   99SAPS  H18X10005   2.923   1.924   8.946 -0.6164 -0.5270 -1.0514
   99SAPS  H18Y10006   2.810   2.002   8.831 -0.6982  0.0271 -0.0864
   99SAPS  H18Z10007   2.918   2.105   8.926  1.6905  0.6343 -2.0718
  100SAPS     N10008   6.146   3.007   6.226  0.5934  0.0540  0.3937
  100SAPS   HN110009   6.143   2.938   6.304  0.7877 -0.7302 -0.2791
  100SAPS   HN210010   6.215   2.970   6.158 -0.3098 -2.1899  0.6129
  100SAPS   HN310011   6.185   3.098   6.259  1.3330  0.4983 -1.5520
  100SAPS   C1210012   6.008   3.028   6.180  0.1843  0.3065 -0.3870
  100SAPS  H12A10013   6.000   3.119   6.121 -3.1496  0.8475  0.6703
  100SAPS   C1310014   5.940   2.913   6.100 -0.0359  0.8354  0.4186
  100SAPS  O13A10015   6.009   2.815   6.061  0.0048  0.5518  0.0478
  100SAPS  O13B10016   5.817   2.927   6.066  0.0980 -0.0462  0.5422
  100SAPS   C1110017   5.922   3.052   6.312  0.0994  0.0363  0.6666
  100SAPS  H11A10018   5.938   2.962   6.375 -1.1809 -0.7891 -0.1493
  100SAPS  H11B10019   5.820   3.068   6.270  1.2069  1.3625 -1.7131
  100SAPS     P10020   5.876   3.291   6.416  0.2867 -0.1592  0.2909
  100SAPS   O1310021   5.955   3.404   6.471 -0.5818  0.1474  0.3391
  100SAPS   O1410022   5.798   3.320   6.292  0.2280 -0.1251  0.4092
  100SAPS   O1210023   5.965   3.163   6.393  0.4383  0.3929  0.3306
  100SAPS   O1110024   5.781   3.229   6.527 -0.5696 -0.6120 -0.8712
  100SAPS    C110025   5.847   3.193   6.649 -0.1896 -0.3905 -0.1904
  100SAPS    HA10026   5.832   3.086   6.675  0.2172  0.2923  3.3286
  100SAPS    HB10027   5.957   3.204   6.655 -0.2738 -0.2268  1.7621
  100SAPS    C210028   5.785   3.271   6.764  0.2885 -0.4334 -0.2953
  100SAPS    HS10029   5.827   3.236   6.861 -1.2531 -1.3073  0.0858
  100SAPS   O2110030   5.636   3.259   6.765 -0.0216  0.6186  0.2999
  100SAPS   C2110031   5.599   3.126   6.779 -1.1660  0.3399  0.1233
  100SAPS   O2210032   5.674   3.035   6.813 -0.1770 -0.1179  0.4034
  100SAPS   C2210033   5.448   3.125   6.745 -0.0978 -0.3000  0.1937
  100SAPS   H2R10034   5.420   3.212   6.808  0.3878 -0.7908  1.1081
  100SAPS   H2S10035   5.437   3.140   6.635  2.7213  1.4507  0.0243
  100SAPS    C310036   5.816   3.426   6.756 -0.1561  0.7978  0.9087
  100SAPS    HX10037   5.757   3.480   6.679  1.2570  0.4656 -0.4615
  100SAPS    HY10038   5.924   3.428   6.728  0.0028 -0.4613  1.3655
  100SAPS   O3110039   5.797   3.492   6.884 -0.5031 -0.6252  0.2079
  100SAPS   C3110040   5.906   3.500   6.968 -0.1348 -0.3795  0.2759
  100SAPS   O3210041   6.007   3.432   6.944 -0.1597  0.0042 -0.5620
  100SAPS   C3210042   5.873   3.578   7.085  0.0052  0.6222 -0.1815
  100SAPS   H2X10043   5.788   3.526   7.133 -0.7590 -0.2339 -2.3221
  100SAPS   H2Y10044   5.842   3.681   7.058  0.2739  1.0106  0.9493
  100SAPS   C2310045   5.403   2.993   6.797  0.9864 -0.0119  0.8540
  100SAPS   H3R10046   5.443   2.983   6.900  1.9977 -0.2861  0.4443
  100SAPS   H3S10047   5.440   2.899   6.751 -0.6999 -0.4151  0.2340
  100SAPS   C2410048   5.250   2.977   6.794 -0.0725  0.3615  0.5045
  100SAPS   H4R10049   5.193   3.057   6.848 -0.1688  0.0467  0.8703
  100SAPS   H4S10050   5.221   2.881   6.841 -0.0837 -0.1538 -0.5466
  100SAPS   C2510051   5.187   2.976   6.656 -0.2637 -0.2679  0.4081
  100SAPS   H5R10052   5.209   2.883   6.602 -0.9075  0.6097 -1.4310
  100SAPS   C2610053   5.117   3.070   6.594  0.7643  0.2531  0.7922
  100SAPS   H6R10054   5.086   3.057   6.490  0.0864 -0.9051  1.1173
  100SAPS   C2710055   5.080   3.203   6.652  0.7655  0.1984  0.2495
  100SAPS   H7R10056   5.036   3.274   6.579 -0.8908  0.2772  1.2621
  100SAPS   H7S10057   5.173   3.244   6.696  0.7595 -1.3830  1.8468
  100SAPS   C2810058   4.975   3.193   6.764  0.2869  0.0319 -0.5128
  100SAPS   H8R10059   4.922   3.097   6.761  1.4430 -0.7087  1.0138
  100SAPS   C2910060   4.943   3.265   6.871 -1.1135  0.1423  0.2561
  100SAPS   H9R10061   4.877   3.221   6.947 -1.0360 -0.2730  0.0864
  100SAPS  C21010062   5.011   3.398   6.905 -0.0925 -0.4163 -0.6265
  100SAPS  H10R10063   4.946   3.483   6.873 -1.7650 -0.9191  1.2059
  100SAPS  H10S10064   5.100   3.415   6.841  0.5140  0.7231  0.4795
  100SAPS  C21110065   5.043   3.419   7.056  0.2345  0.4715  0.4615
  100SAPS  H11R10066   4.973   3.492   7.099 -1.3818 -1.6476  1.6319
  100SAPS  C21210067   5.149   3.373   7.122 -0.1917  0.4466  0.0606
  100SAPS  H12R10068   5.154   3.407   7.227  0.4149 -0.2577  0.2649
  100SAPS  C21310069   5.264   3.293   7.072  0.1962  0.5536 -0.2522
  100SAPS  H13R10070   5.228   3.227   6.990  0.1579 -0.3354  0.4657
  100SAPS  H13S10071   5.305   3.220   7.145  0.9673  0.7411 -0.4870
  100SAPS  C21410072   5.381   3.373   7.015  0.2879  0.3794  0.2525
  100SAPS  H14R10073   5.366   3.428   6.921  0.5440 -1.1038 -0.6949
  100SAPS  C21510074   5.499   3.384   7.073 -0.9043  1.1027  0.2527
  100SAPS  H15R10075   5.572   3.450   7.024 -1.5086  4.4773  3.4714
  100SAPS  C21610076   5.553   3.326   7.201 -0.7608 -0.3342 -0.2004
  100SAPS  H16R10077   5.472   3.282   7.263  1.4711 -2.0494  1.6456
  100SAPS  H16S10078   5.606   3.405   7.259  0.1671 -0.5351 -0.7565
  100SAPS  C21710079   5.667   3.224   7.174 -0.4974  0.4063  0.6052
  100SAPS  H17R10080   5.740   3.277   7.109  1.6587 -2.0622  0.8651
  100SAPS  H17S10081   5.638   3.129   7.125 -0.4974  1.2060 -0.9848
  100SAPS  C21810082   5.741   3.195   7.305 -0.5446  0.5390 -0.1331
  100SAPS  H18R10083   5.667   3.170   7.384 -0.3499  0.2657 -0.0359
  100SAPS  H18S10084   5.793   3.288   7.336 -0.1124  0.3055 -0.1507
  100SAPS  C21910085   5.853   3.091   7.296  1.1253  0.2195  0.4685
  100SAPS  H19R10086   5.808   2.999   7.253  0.8727  1.3735 -1.9623
  100SAPS  H19S10087   5.887   3.071   7.399  0.1495  1.1318  0.9913
  100SAPS  C22010088   5.962   3.133   7.200 -0.0711  0.0090  0.0402
  100SAPS  H20R10089   6.001   3.235   7.220  1.9851 -0.7273  0.1030
  100SAPS  H20S10090   5.930   3.127   7.094 -0.8464  1.7999  0.1476
  100SAPS  H20T10091   6.058   3.079   7.215  1.1374  2.0979  0.1912
  100SAPS   C3310092   5.997   3.596   7.179  0.8486 -0.2642 -0.0755
  100SAPS   H3X10093   6.077   3.643   7.119 -0.4882  0.5323 -1.3047
  100SAPS   H3Y10094   6.029   3.498   7.221 -0.7004  0.1077  2.1510
  100SAPS   C3410095   5.981   3.696   7.293  0.1645  0.9054 -0.0532
  100SAPS   H4X10096   5.977   3.797   7.247  0.3329  0.4705 -1.0407
  100SAPS   H4Y10097   6.070   3.696   7.359 -0.6141  0.5434  1.0319
  100SAPS   C3510098   5.853   3.685   7.381 -0.0780  0.1556  0.5438
  100SAPS   H5X10099   5.837   3.584   7.424 -0.6570 -0.0057 -0.0372
  100SAPS   H5Y10100   5.763   3.713   7.322 -0.1377  3.3373  1.8962
  100SAPS   C3610101   5.859   3.790   7.492 -0.8964 -0.0046  1.0167
  100SAPS   H6X10102   5.869   3.894   7.456 -1.7961 -0.8173 -1.8889
  100SAPS   H6Y10103   5.948   3.772   7.555  2.0787  3.0985 -1.8766
  100SAPS   C3710104   5.734   3.790   7.584 -0.9120  1.0618  0.5059
  100SAPS   H7X10105   5.741   3.709   7.659  0.3433  0.1283 -0.5949
  100SAPS   H7Y10106   5.642   3.765   7.527 -0.7859  1.1343  0.2735
  100SAPS   C3810107   5.713   3.912   7.668 -0.1833  0.0533  0.1424
  100SAPS   H8X10108   5.699   3.999   7.600  1.3788 -0.0320 -0.3370
  100SAPS   H8Y10109   5.811   3.932   7.716  0.3391  1.6197 -1.4481
  100SAPS   C3910110   5.603   3.912   7.773 -0.3698  0.6267  0.1988
  100SAPS   H9X10111   5.503   3.892   7.730 -1.3078 -1.9915  3.2445
  100SAPS   H9Y10112   5.607   4.014   7.817 -1.4384 -0.1991  2.3380
  100SAPS  C31010113   5.599   3.804   7.878  0.3963  0.1027 -0.0211
  100SAPS  H10X10114   5.705   3.793   7.909  0.6883 -0.5588 -1.1991
  100SAPS  H10Y10115   5.575   3.699   7.853 -2.1102  0.3041  1.2200
  100SAPS  C31110116   5.491   3.840   7.985 -0.7790  0.7587 -0.7191
  100SAPS  H11X10117   5.396   3.797   7.947 -0.8758 -0.8257  1.1943
  100SAPS  H11Y10118   5.479   3.949   8.002 -0.8419  0.2773  3.4786
  100SAPS  C31210119   5.516   3.764   8.120 -0.2287 -0.4462 -0.1528
  100SAPS  H12X10120   5.625   3.780   8.135 -0.6764  1.9686  1.0189
  100SAPS  H12Y10121   5.500   3.655   8.106  1.2346 -0.3983 -2.8267
  100SAPS  C31310122   5.433   3.827   8.231  0.1900 -0.3203  0.7210
  100SAPS  H13X10123   5.451   3.935   8.212  0.9844 -0.2910  1.5262
  100SAPS  H13Y10124   5.468   3.806   8.335 -2.9087 -1.1223  1.6895
  100SAPS  C31410125   5.287   3.789   8.223 -0.3499 -1.4132  0.6206
  100SAPS  H14X10126   5.285   3.678   8.225 -0.6928 -1.4087  2.5512
  100SAPS  H14Y10127   5.240   3.840   8.136  0.5949  1.6758  1.8026
  100SAPS  C31510128   5.223   3.833   8.355 -0.0133 -0.5460 -0.4430
  100SAPS  H15X10129   5.270   3.798   8.449 -1.1822  1.7940  1.1156
  100SAPS  H15Y10130   5.126   3.778   8.355 -0.1211 -0.4084 -2.0329
  100SAPS  C31610131   5.207   3.983   8.369 -0.5850 -0.6506 -0.1176
  100SAPS  H16X10132   5.157   4.019   8.276 -0.3304  1.6277  0.5486
  100SAPS  H16Y10133   5.306   4.033   8.366 -1.9128  2.1516 -0.9327
  100SAPS  C31710134   5.136   4.039   8.490  0.7500  0.6657  0.4714
  100SAPS  H17X10135   5.040   3.985   8.505  1.7560 -1.8001 -1.2558
  100SAPS  H17Y10136   5.117   4.147   8.472  0.4760  0.2931 -1.8244
  100SAPS  C31810137   5.230   4.045   8.607  0.2306 -0.0173 -0.1379
  100SAPS  H18X10138   5.183   4.089   8.698 -1.2877 -0.6486 -0.5925
  100SAPS  H18Y10139   5.327   4.094   8.583  0.9485 -0.2823  1.9518
  100SAPS  H18Z10140   5.272   3.946   8.632  4.1440  1.5083  0.1142
  101OSM      N10141   4.073   4.827  11.198 -0.3264  1.1266 -0.1934
  101OSM    C1510142   4.098   4.727  11.081  1.2802 -0.2141  0.5820
  101OSM   H15A10143   4.089   4.622  11.106 -1.6551 -0.1145  0.2781
  101OSM   H15B10144   4.191   4.751  11.031  0.1397 -0.0682 -1.5473
  101OSM   H15C10145   4.014   4.749  11.018  1.0235  0.4008  1.1248
  101OSM    C1410146   3.936   4.799  11.252  0.4720  0.5329  0.5787
  101OSM   H14A10147   3.935   4.704  11.304 -0.8783 -1.5630 -2.8771
  101OSM   H14B10148   3.868   4.786  11.168  1.2908 -1.5564  0.1671
  101OSM   H14C10149   3.909   4.885  11.312  0.6272  1.6294 -0.8620
  101OSM    C1310150   4.173   4.802  11.303 -0.0293 -0.5622  0.4615
  101OSM   H13A10151   4.175   4.869  11.388 -0.3904  1.7827 -1.2666
  101OSM   H13B10152   4.277   4.817  11.276 -0.4864  0.0717 -1.0577
  101OSM   H13C10153   4.169   4.701  11.340 -0.4144 -0.1312  1.6221
  101OSM    C1210154   4.088   4.966  11.146 -0.4633  0.4503 -0.0249
  101OSM   H12A10155   4.193   4.983  11.130 -0.6429  1.4080 -0.2370
  101OSM   H12B10156   4.067   5.039  11.223  0.0163  0.7118 -0.1424
  101OSM    C1110157   4.024   5.004  11.013  0.6961 -0.6741  0.2212
  101OSM   H11A10158   4.041   4.927  10.935  0.4845 -0.7464  0.2453
  101OSM   H11B10159   4.057   5.105  10.978 -0.4335  0.2118  1.5724
  101OSM      P10160   3.772   4.989  10.928  0.2800  0.5666  0.1791
  101OSM    O1310161   3.759   4.843  10.935  0.0935  0.1163 -0.3228
  101OSM    O1410162   3.646   5.063  10.948  0.2125 -0.1569 -0.0336
  101OSM    O1110163   3.837   5.028  10.788  0.1963  0.1660 -0.3565
  101OSM    O1210164   3.885   5.037  11.031  0.1794 -0.5289 -0.5238
  101OSM    C1S10165   3.860   5.165  10.752  0.2156  0.3997  0.9303
  101OSM    H1S10166   3.959   5.207  10.782  0.1282  0.7346  0.7607
  101OSM    H1T10167   3.785   5.234  10.795  0.0880  0.3792  0.7413
  101OSM     NF10168   3.863   5.328  10.561  0.6699  0.6693  0.4465
  101OSM    HNF10169   3.774   5.374  10.565  1.6567  2.7144  0.2940
  101OSM    C2S10170   3.850   5.186  10.598  0.1376 -0.4210  0.1296
  101OSM    H2S10171   3.937   5.145  10.543 -0.8262 -1.8259 -0.4362
  101OSM    C3S10172   3.707   5.120  10.543  0.0458  0.5759  0.0836
  101OSM    H3S10173   3.629   5.181  10.593  0.6539  2.4886 -1.1692
  101OSM     O310174   3.676   4.989  10.582 -0.5850  0.2612  0.1465
  101OSM    HO310175   3.734   4.978  10.658 -1.6813  1.1636  1.1670
  101OSM    C4S10176   3.704   5.138  10.395  0.4337  0.3176 -0.5323
  101OSM    H4S10177   3.639   5.221  10.364  0.0244  1.2743  2.5856
  101OSM    C5S10178   3.748   5.047  10.307  0.7299  0.4715  1.0019
  101OSM    H5S10179   3.788   4.950  10.339  1.0689  0.1253 -0.4146
  101OSM    C6S10180   3.743   5.076  10.155  0.6548 -0.2646 -0.8811
  101OSM    H6S10181   3.764   4.980  10.103 -0.5201 -1.3181  0.5212
  101OSM    H6T10182   3.830   5.140  10.128  0.6902 -0.5405 -1.4389
  101OSM    C7S10183   3.610   5.143  10.106 -0.0521  0.7644  0.8395
  101OSM    H7S10184   3.633   5.251  10.097  3.5984  0.1656  1.4480
  101OSM    H7T10185   3.528   5.125  10.179 -0.8720  1.4262  0.0994
  101OSM    C8S10186   3.573   5.096   9.965 -0.5817  0.5401 -0.6445
  101OSM    H8S10187   3.548   4.987   9.966  1.0468  0.1425 -0.7608
  101OSM    H8T10188   3.668   5.109   9.911 -0.8089 -0.4891 -1.3280
  101OSM    C9S10189   3.475   5.180   9.888  0.8540  0.5698 -0.0824
  101OSM    H9S10190   3.521   5.281   9.891  3.4525 -0.4869 -1.2880
  101OSM    H9T10191   3.379   5.176   9.943  1.6908 -0.3264  1.4185
  101OSM   C10S10192   3.457   5.135   9.745 -0.1697 -0.3274  0.7341
  101OSM   H10S10193   3.406   5.037   9.739  1.1287 -1.2202  2.9393
  101OSM   H10T10194   3.556   5.119   9.698  0.4583 -1.8702  2.4661
  101OSM   C11S10195   3.375   5.228   9.659  0.0384 -0.0937  0.2189
  101OSM   H11S10196   3.412   5.331   9.680  2.4570 -0.4536 -1.7841
  101OSM   H11T10197   3.266   5.224   9.681 -0.2555  1.8616 -0.6988
  101OSM   C12S10198   3.395   5.186   9.513  0.5494 -0.5556  0.2549
  101OSM   H12S10199   3.359   5.080   9.506  2.8506 -1.3163 -0.8719
  101OSM   H12T10200   3.501   5.170   9.487  0.6470 -1.2930  1.0340
  101OSM   C13S10201   3.324   5.273   9.408 -0.3363  0.2079  0.0569
  101OSM   H13S10202   3.379   5.368   9.425  0.9002 -0.6918  1.4062
  101OSM   H13T10203   3.222   5.306   9.437 -0.7856 -0.0982 -1.1169
  101OSM   C14S10204   3.333   5.229   9.263 -0.1623 -0.2036 -0.1138
  101OSM   H14S10205   3.320   5.119   9.261 -1.4786 -0.1070 -2.8659
  101OSM   H14T10206   3.440   5.239   9.234  0.4474 -2.5383  1.1155
  101OSM   C15S10207   3.242   5.300   9.156  0.6242  0.7160 -0.4840
  101OSM   H15S10208   3.284   5.403   9.159  0.4809  0.7486  1.9419
  101OSM   H15T10209   3.137   5.314   9.190  1.4691  2.5144  1.5973
  101OSM   C16S10210   3.254   5.231   9.014  0.6117 -0.2626  0.0351
  101OSM   H16S10211   3.361   5.220   8.982 -0.0794  0.7262 -2.9981
  101OSM   H16T10212   3.212   5.303   8.940  1.6372  0.2376 -0.0778
  101OSM   C17S10213   3.191   5.096   9.014  0.1998 -0.0980 -0.5703
  101OSM   H17S10214   3.087   5.103   9.050 -0.8543 -1.2535 -3.1627
  101OSM   H17T10215   3.246   5.024   9.079 -0.6733  0.1778  0.4868
  101OSM   C18S10216   3.176   5.045   8.868  0.1047 -0.0065  0.3183
  101OSM   H18S10217   3.125   4.947   8.868  0.4113 -0.1688  1.0699
  101OSM   H18T10218   3.272   5.019   8.820  0.0373 -3.3556  1.7793
  101OSM   H18U10219   3.118   5.121   8.811  1.1099  1.1657  0.7992
  101OSM    C1F10220   3.974   5.403  10.567 -0.0039 -0.5064 -0.0190
  101OSM     OF10221   4.082   5.358  10.603 -0.0771 -0.4061 -0.6944
  101OSM    C2F10222   3.944   5.551  10.548  0.3242  0.0881 -0.2193
  101OSM    H2F10223   3.951   5.602  10.646 -2.0850 -0.3872  0.2777
  101OSM    H2G10224   3.842   5.572  10.509  0.6325  0.0439 -1.0836
  101OSM    C3F10225   4.039   5.607  10.443 -0.6256  0.9018  0.3082
  101OSM    H3F10226   4.142   5.604  10.483 -0.8491 -1.5308  0.8167
  101OSM    H3G10227   4.021   5.717  10.435  3.7080  1.7879  0.3540
  101OSM    C4F10228   4.011   5.549  10.306 -0.7212 -0.5250  0.7359
  101OSM    H4F10229   3.905   5.577  10.287 -0.8183  0.5648  2.6257
  101OSM    H4G10230   4.009   5.437  10.306  0.2424 -0.5618 -0.3273
  101OSM    C5F10231   4.101   5.611  10.195  0.4272  0.5132  0.3564
  101OSM    H5F10232   4.206   5.577  10.206  1.1882  3.3944  3.3899
  101OSM    H5G10233   4.095   5.720  10.214 -0.4001  0.3438  1.1526
  101OSM    C6F10234   4.052   5.574  10.057  0.0719 -0.7840 -0.0407
  101OSM    H6F10235   3.952   5.620  10.040  0.4333  0.4886  1.1255
  101OSM    H6G10236   4.024   5.466  10.054  2.1721 -1.3708  0.3017
  101OSM    C7F10237   4.145   5.605   9.945 -0.4876  0.0159 -0.0892
  101OSM    H7F10238   4.224   5.527   9.941  1.1270  1.5528  0.3426
  101OSM    H7G10239   4.197   5.700   9.969  1.6914 -0.7553 -1.4149
  101OSM    C8F10240   4.081   5.599   9.805  0.1568  0.1988  0.2938
  101OSM    H8F10241   3.999   5.674   9.807 -0.5668 -0.5392 -0.6894
  101OSM    H8G10242   4.024   5.504   9.795 -1.6883  1.4267 -1.9975
  101OSM    C9F10243   4.175   5.617   9.683 -0.4435 -0.0459 -0.4112
  101OSM    H9F10244   4.252   5.541   9.660 -0.1981  0.6886 -2.2205
  101OSM   C10F10245   4.161   5.717   9.589  0.9267 -0.5750 -0.4681
  101OSM   H10F10246   4.240   5.735   9.516  1.1424  3.2680  0.4915
  101OSM   C11F10247   4.054   5.825   9.587  0.6664  0.6709  2.0060
  101OSM   H11F10248   4.069   5.899   9.669  2.9974  1.9293  0.5721
  101OSM   H11G10249   3.951   5.787   9.577  0.0127  2.5562  1.0985
  101OSM   C12F10250   4.068   5.909   9.456 -0.4454 -0.0269 -0.5750
  101OSM   H12F10251   4.158   5.973   9.465 -0.1225 -0.6410  0.9167
  101OSM   H12G10252   3.988   5.986   9.453 -0.8856 -0.4781 -0.5502
  101OSM   C13F10253   4.095   5.814   9.334  0.3950 -0.5437 -0.0668
  101OSM   H13F10254   4.025   5.728   9.338 -1.0148  0.5718  0.4988
  101OSM   H13G10255   4.198   5.775   9.333  0.6737 -0.1975 -4.2477
  101OSM   C14F10256   4.049   5.898   9.211 -0.4507 -0.0585  0.3798
  101OSM   H14F10257   4.084   6.002   9.224 -0.9744  0.0026  1.4411
  101OSM   H14G10258   3.938   5.896   9.223 -0.3209 -1.5535  1.8461
  101OSM   C15F10259   4.086   5.847   9.074 -0.2071  0.3680  0.6467
  101OSM   H15F10260   4.085   5.736   9.076  2.3420  0.2658  0.1369
  101OSM   H15G10261   4.192   5.877   9.061 -0.0959  0.7390  2.1563
  101OSM   C16F10262   4.000   5.899   8.960  0.3049 -0.2386  0.1739
  101OSM   H16F10263   3.971   5.996   9.006 -0.8296 -1.3538  1.9220
  101OSM   H16G10264   3.903   5.850   8.937 -1.2074  1.8696  1.6322
  101OSM   C17F10265   4.073   5.916   8.826  0.0164  0.5360 -0.6350
  101OSM   H17F10266   4.134   6.008   8.833  0.0910  0.5719 -1.7106
  101OSM   H17G10267   4.005   5.938   8.741  1.2260 -0.2486 -1.8355
  101OSM   C18F10268   4.153   5.791   8.785 -0.1634  0.1447 -0.4591
  101OSM   H18F10269   4.078   5.710   8.778  0.7552 -0.6705 -1.2437
  101OSM   H18G10270   4.229   5.750   8.855 -0.5096 -2.3188 -1.4341
  101OSM   H18H10271   4.200   5.793   8.684 -0.5630 -1.6001 -0.7115
  102OSM      N10272   3.351   6.066  11.266  0.1378  0.4360 -0.0595
  102OSM    C1510273   3.500   6.056  11.235 -0.8561  0.4235  0.2419
  102OSM   H15A10274   3.529   6.108  11.145  1.8298 -0.6341  0.4166
  102OSM   H15B10275   3.530   5.954  11.213 -1.8436  0.3030 -0.6631
  102OSM   H15C10276   3.554   6.097  11.319 -0.0020 -1.7391  0.8227
  102OSM    C1410277   3.325   5.976  11.387 -0.6440  0.4176 -0.4369
  102OSM   H14A10278   3.222   5.964  11.417 -0.3416  2.3118  1.6395
  102OSM   H14B10279   3.382   6.022  11.467  0.9266  1.0915 -1.8886
  102OSM   H14C10280   3.359   5.877  11.363 -1.8459  0.1444 -1.0355
  102OSM    C1310281   3.315   6.199  11.309  0.5754  0.3166 -0.1072
  102OSM   H13A10282   3.366   6.265  11.240 -0.2635  0.9140 -0.1731
  102OSM   H13B10283   3.341   6.211  11.413 -1.4493 -1.9404  0.7376
  102OSM   H13C10284   3.210   6.222  11.298 -0.0563 -2.7939 -2.1472
  102OSM    C1210285   3.270   6.017  11.141 -0.2854 -0.0993 -0.4357
  102OSM   H12A10286   3.167   6.038  11.167 -0.6678 -1.5818 -0.6563
  102OSM   H12B10287   3.288   5.912  11.127  0.2757  0.0640 -1.0071
  102OSM    C1110288   3.294   6.088  11.011 -0.3541 -0.5759  0.0526
  102OSM   H11A10289   3.237   6.040  10.929  1.3443 -1.2773 -0.7743
  102OSM   H11B10290   3.401   6.071  10.986 -0.7913 -0.0953 -2.4165
  102OSM      P10291   3.130   6.292  10.985  0.5889 -0.0060  0.2537
  102OSM    O1310292   3.027   6.248  11.087 -0.0856  0.5821  0.6065
  102OSM    O1410293   3.137   6.438  10.965  0.0240  0.3351 -0.1872
  102OSM    O1110294   3.099   6.218  10.845 -0.1043  0.1292 -0.0412
  102OSM    O1210295   3.273   6.234  11.017 -0.7585  0.8460 -0.0029
  102OSM    C1S10296   2.976   6.243  10.772 -0.0247  0.3256 -0.2645
  102OSM    H1S10297   2.900   6.292  10.835 -0.0659  1.4428 -1.1533
  102OSM    H1T10298   2.936   6.154  10.718 -0.6733  0.5622 -0.1833
  102OSM     NF10299   2.896   6.397  10.600  0.0644 -0.1466 -0.0733
  102OSM    HNF10300   2.844   6.363  10.522  0.4562 -1.6119  0.2797
  102OSM    C2S10301   3.019   6.335  10.662 -0.4807  0.2315  0.3181
  102OSM    H2S10302   3.085   6.412  10.707  1.4811 -0.7995 -0.6889
  102OSM    C3S10303   3.115   6.267  10.554  0.0665 -0.2110  0.9193
  102OSM    H3S10304   3.068   6.173  10.516 -0.4062  1.1520 -2.1955
  102OSM     O310305   3.237   6.217  10.606 -0.0155  0.1079  0.5469
  102OSM    HO310306   3.224   6.217  10.701  1.4168  0.0058  0.7711
  102OSM    C4S10307   3.127   6.350  10.430 -0.1378 -0.3039 -0.1338
  102OSM    H4S10308   3.031   6.356  10.378  0.8192 -0.1741 -1.9766
  102OSM    C5S10309   3.232   6.428  10.389  0.6456 -0.4016 -1.0063
  102OSM    H5S10310   3.321   6.435  10.454  0.5239 -5.5857  0.1092
  102OSM    C6S10311   3.233   6.511  10.262 -0.1274 -0.1432 -0.1246
  102OSM    H6S10312   3.336   6.535  10.227 -0.1167  1.9550  1.1856
  102OSM    H6T10313   3.191   6.613  10.274  0.1506  0.3174 -2.5805
  102OSM    C7S10314   3.140   6.469  10.143 -0.0406 -0.0854  0.3213
  102OSM    H7S10315   3.037   6.467  10.183 -0.3603  0.3651 -0.4461
  102OSM    H7T10316   3.160   6.366  10.105  1.6159 -0.0669  1.0393
  102OSM    C8S10317   3.142   6.555  10.013  0.2034  0.1617  0.3163
  102OSM    H8S10318   3.120   6.660  10.045 -1.1463 -0.5768  1.9528
  102OSM    H8T10319   3.059   6.522   9.948  2.4661  0.7187 -3.1357
  102OSM    C9S10320   3.265   6.556   9.919 -0.0605  0.1915 -0.0512
  102OSM    H9S10321   3.286   6.447   9.915  0.2022  0.1796  1.3789
  102OSM    H9T10322   3.353   6.604   9.967  1.0693  0.3407 -2.1563
  102OSM   C10S10323   3.237   6.602   9.776 -0.4553  0.2152  0.2073
  102OSM   H10S10324   3.232   6.713   9.780  1.0361  0.2660  1.7885
  102OSM   H10T10325   3.132   6.577   9.750  0.1500 -0.9188 -1.2635
  102OSM   C11S10326   3.346   6.548   9.681 -0.7460 -0.0661 -0.5368
  102OSM   H11S10327   3.327   6.439   9.671  0.3583 -0.2226 -1.1104
  102OSM   H11T10328   3.447   6.579   9.715 -0.9971  1.1624 -0.8675
  102OSM   C12S10329   3.339   6.610   9.537  0.4264  0.9501 -0.1569
  102OSM   H12S10330   3.348   6.721   9.543  0.0185  0.9457  0.6631
  102OSM   H12T10331   3.241   6.576   9.496  0.6174 -2.0914  1.6165
  102OSM   C13S10332   3.458   6.554   9.454  0.1800 -0.5239 -0.5587
  102OSM   H13S10333   3.441   6.447   9.429  0.0995 -0.5352 -0.4579
  102OSM   H13T10334   3.550   6.559   9.516 -0.0657  1.1040 -0.2808
  102OSM   C14S10335   3.479   6.638   9.334  0.2616  0.7115 -0.3742
  102OSM   H14S10336   3.531   6.734   9.358  2.7841 -0.3414 -1.3211
  102OSM   H14T10337   3.372   6.652   9.309  0.4759  3.7850  0.0337
  102OSM   C15S10338   3.552   6.569   9.224 -0.1518  0.0599  0.5679
  102OSM   H15S10339   3.505   6.471   9.200  0.9921 -0.3104 -0.2924
  102OSM   H15T10340   3.652   6.544   9.267 -0.0260  1.7410  1.3258
  102OSM   C16S10341   3.567   6.655   9.100 -0.2967  0.4336  0.8442
  102OSM   H16S10342   3.624   6.596   9.025 -2.3731 -0.2533 -0.2584
  102OSM   H16T10343   3.624   6.747   9.125 -0.0832  0.5901 -0.1619
  102OSM   C17S10344   3.446   6.691   9.018  0.4405 -0.7399 -1.0628
  102OSM   H17S10345   3.477   6.769   8.946  0.0932  0.8709  0.4800
  102OSM   H17T10346   3.384   6.744   9.093  3.1245 -1.5358  1.9456
  102OSM   C18S10347   3.378   6.571   8.953 -0.0571 -0.5009  0.4205
  102OSM   H18S10348   3.284   6.602   8.902  0.0347  0.5179  0.8503
  102OSM   H18T10349   3.362   6.498   9.036  1.8517  0.9834  2.1880
  102OSM   H18U10350   3.446   6.524   8.878 -0.0318 -0.2154  0.2626
  102OSM    C1F10351   2.834   6.494  10.670  0.4525 -0.0628 -1.0983
  102OSM     OF10352   2.886   6.554  10.765  0.0734 -0.5402 -0.1487
  102OSM    C2F10353   2.693   6.535  10.630 -0.0350 -0.0909 -0.3571
  102OSM    H2F10354   2.630   6.548  10.721 -0.6092 -1.7175 -0.4922
  102OSM    H2G10355   2.649   6.455  10.567 -0.9442  0.7779 -0.8603
  102OSM    C3F10356   2.704   6.678  10.561  0.7648 -0.6178  0.3002
  102OSM    H3F10357   2.766   6.746  10.624  0.8793 -1.6600  1.3411
  102OSM    H3G10358   2.602   6.722  10.555  0.8346 -0.6737 -1.9176
  102OSM    C4F10359   2.770   6.663  10.425 -0.3104  0.7202 -1.1322
  102OSM    H4F10360   2.700   6.596  10.371 -0.7881  1.3120 -1.2614
  102OSM    H4G10361   2.865   6.609  10.442 -1.7429 -1.7715 -0.5334
  102OSM    C5F10362   2.792   6.791  10.357 -0.0215  1.0403  0.4296
  102OSM    H5F10363   2.863   6.858  10.411 -0.7749  0.9863  1.5301
  102OSM    H5G10364   2.704   6.858  10.345  0.0362  0.8528 -1.2172
  102OSM    C6F10365   2.834   6.759  10.208  0.0695 -0.3828 -0.4945
  102OSM    H6F10366   2.748   6.712  10.155  0.9909 -1.9566 -0.6785
  102OSM    H6G10367   2.919   6.688  10.200  1.2063  0.1824  4.0306
  102OSM    C7F10368   2.862   6.895  10.138  0.7336 -0.0864 -0.6931
  102OSM    H7F10369   2.916   6.965  10.204  0.4530 -1.7272  1.3711
  102OSM    H7G10370   2.759   6.929  10.113  0.7120 -0.5267 -1.2455
  102OSM    C8F10371   2.944   6.882   9.999  0.2084 -0.2224 -0.4672
  102OSM    H8F10372   3.050   6.856  10.020  1.1251  3.3017 -0.1346
  102OSM    H8G10373   2.946   6.981   9.949 -2.9225  1.3622  2.1101
  102OSM    C9F10374   2.867   6.786   9.909 -0.1773 -0.4810 -0.1833
  102OSM    H9F10375   2.830   6.690   9.948 -1.7774  0.6285  1.1521
  102OSM   C10F10376   2.843   6.802   9.775 -0.1904  0.4232 -0.2875
  102OSM   H10F10377   2.777   6.731   9.722  2.0476 -0.8007 -1.5627
  102OSM   C11F10378   2.889   6.913   9.685  1.0306  0.5686  1.1696
  102OSM   H11F10379   2.982   6.959   9.725  1.1774  1.4120 -0.0809
  102OSM   H11G10380   2.813   6.993   9.682  1.2051  0.8857  3.5646
  102OSM   C12F10381   2.912   6.852   9.546 -0.4777 -0.7652  0.5804
  102OSM   H12F10382   2.815   6.823   9.501  0.9408 -4.1911 -0.6011
  102OSM   H12G10383   2.986   6.769   9.557 -0.1945 -0.5421  0.3778
  102OSM   C13F10384   2.984   6.941   9.442 -0.2083 -0.6819  0.6428
  102OSM   H13F10385   3.057   6.993   9.507  1.6303 -1.3619 -0.7942
  102OSM   H13G10386   2.911   7.005   9.389 -0.0412 -0.3865  0.7697
  102OSM   C14F10387   3.085   6.869   9.340  0.4031 -0.2506 -0.9978
  102OSM   H14F10388   3.138   6.795   9.403 -1.0909 -0.7471 -0.2643
  102OSM   H14G10389   3.154   6.945   9.299  1.7037 -1.8209 -1.8584
  102OSM   C15F10390   3.011   6.794   9.227 -0.0029  0.6161 -0.3178
  102OSM   H15F10391   2.982   6.864   9.145 -0.8193  0.0182 -0.5485
  102OSM   H15G10392   2.929   6.745   9.283  1.8015 -2.5636 -0.2515
  102OSM   C16F10393   3.097   6.681   9.172 -0.1058  0.1763  0.3546
  102OSM   H16F10394   3.150   6.621   9.249  0.5622  1.0326  0.5760
  102OSM   H16G10395   3.177   6.726   9.109  0.0030 -1.0840 -0.4499
  102OSM   C17F10396   3.026   6.601   9.063 -0.3161 -0.1797  0.2395
  102OSM   H17F10397   2.931   6.554   9.098 -0.0693 -2.0608 -1.4051
  102OSM   H17G10398   3.081   6.514   9.023 -1.3948 -0.5128 -0.5619
  102OSM   C18F10399   3.003   6.689   8.935  0.2459  0.1810 -0.1907
  102OSM   H18F10400   3.098   6.719   8.887 -0.5130  2.3930 -0.4470
  102OSM   H18G10401   2.936   6.775   8.957 -2.2116 -2.1414  2.2724
  102OSM   H18H10402   2.952   6.626   8.859 -0.4128 -0.1134  0.4830
  103OSM      N10403   5.309   0.091  11.387 -0.1350  0.1227  0.2058
  103OSM    C1510404   5.234  -0.033  11.375  0.5367 -0.2991  0.5381
  103OSM   H15A10405   5.291  -0.119  11.342 -1.2305 -0.4069 -2.7300
  103OSM   H15B10406   5.163  -0.027  11.293  0.8962  1.1234  0.3065
  103OSM   H15C10407   5.173  -0.039  11.464  1.7735 -0.6912  1.3854
  103OSM    C1410408   5.217   0.205  11.417 -0.5101 -0.1492  0.3033
  103OSM   H14A10409   5.185   0.197  11.520 -1.6113  0.2936  0.0155
  103OSM   H14B10410   5.125   0.215  11.362 -2.8917  0.4670  4.0472
  103OSM   H14C10411   5.262   0.303  11.405 -0.6913  0.0633  1.2765
  103OSM    C1310412   5.410   0.079  11.502 -0.6170  0.2075 -0.0325
  103OSM   H13A10413   5.470  -0.010  11.491 -0.9498  0.0176 -0.2924
  103OSM   H13B10414   5.367   0.057  11.599 -1.3243  1.6000  0.0033
  103OSM   H13C10415   5.478   0.163  11.505  1.6168 -1.4759 -0.9693
  103OSM    C1210416   5.382   0.124  11.260 -0.4156  0.3303  0.7365
  103OSM   H12A10417   5.467   0.059  11.243 -1.0930 -0.2591 -0.5494
  103OSM   H12B10418   5.425   0.222  11.276 -0.3855  0.5965 -0.8703
  103OSM    C1110419   5.307   0.116  11.122  0.9835 -0.4037 -0.2771
  103OSM   H11A10420   5.372   0.160  11.043  0.9450  1.7927  0.8312
  103OSM   H11B10421   5.218   0.183  11.123  0.8652 -0.3818 -3.0659
  103OSM      P10422   5.343  -0.108  10.985  0.5176 -0.6126 -0.1103
  103OSM    O1310423   5.490  -0.107  11.017  0.1137 -0.1608  0.5409
  103OSM    O1410424   5.282  -0.239  10.969 -0.1033  0.4713  0.4357
  103OSM    O1110425   5.313  -0.020  10.857  0.4293  0.1231  0.1944
  103OSM    O1210426   5.264  -0.009  11.086 -0.1517  0.2392 -0.7698
  103OSM    C1S10427   5.428  -0.029  10.762  0.3672 -0.3285  0.0669
  103OSM    H1S10428   5.448  -0.132  10.727  2.6681  0.1281 -0.1733
  103OSM    H1T10429   5.516   0.020  10.810  0.3711  0.7397 -0.9759
  103OSM     NF10430   5.508   0.029  10.531  0.3353 -0.2979  0.1758
  103OSM    HNF10431   5.559   0.106  10.495 -1.0749  0.4333 -0.3497
  103OSM    C2S10432   5.404   0.051  10.632  0.3774 -0.4852  0.0025
  103OSM    H2S10433   5.309   0.017  10.585 -0.0775  1.5363 -0.6623
  103OSM    C3S10434   5.381   0.202  10.676  0.1166  0.0534 -0.2902
  103OSM    H3S10435   5.466   0.220  10.745 -0.2703  0.3883  0.1054
  103OSM     O310436   5.260   0.215  10.754  0.5537 -0.0185 -0.0487
  103OSM    HO310437   5.236   0.127  10.783 -2.8591  0.9776  0.5938
  103OSM    C4S10438   5.369   0.296  10.565 -0.8604 -0.0661  0.1979
  103OSM    H4S10439   5.301   0.267  10.484  1.3789 -0.7426 -1.5318
  103OSM    C5S10440   5.443   0.406  10.553 -0.3029  0.6689  0.0313
  103OSM    H5S10441   5.502   0.439  10.640 -2.6504 -0.4499  2.1914
  103OSM    C6S10442   5.436   0.497  10.433  0.3861  0.9792 -0.0080
  103OSM    H6S10443   5.427   0.432  10.343  1.8544 -0.9098  1.1451
  103OSM    H6T10444   5.531   0.554  10.419 -0.2397  2.0534  0.0327
  103OSM    C7S10445   5.309   0.578  10.449 -0.5840  0.0949 -1.1490
  103OSM    H7S10446   5.316   0.637  10.543  1.1411 -3.0368  0.8522
  103OSM    H7T10447   5.217   0.518  10.463  0.2181 -0.8125  0.4659
  103OSM    C8S10448   5.293   0.689  10.346  0.5961 -0.1063  0.8065
  103OSM    H8S10449   5.250   0.646  10.253  1.3753  0.4974  0.1440
  103OSM    H8T10450   5.395   0.726  10.320 -0.5550  0.9682 -2.7594
  103OSM    C9S10451   5.206   0.810  10.383 -0.0553  0.0253 -0.2178
  103OSM    H9S10452   5.260   0.850  10.472  1.9039  0.6560 -1.6153
  103OSM    H9T10453   5.105   0.772  10.409  0.8503 -1.4721  1.4161
  103OSM   C10S10454   5.203   0.926  10.290 -0.3793 -0.2843  0.1410
  103OSM   H10S10455   5.306   0.963  10.274 -0.5277 -0.5381 -1.5233
  103OSM   H10T10456   5.152   1.015  10.334  2.3758  1.5551 -0.1444
  103OSM   C11S10457   5.148   0.893  10.150 -0.0651  0.0701  0.0122
  103OSM   H11S10458   5.066   0.818  10.160 -0.4723 -0.3678 -4.5508
  103OSM   H11T10459   5.227   0.843  10.090  0.1137  1.9142 -1.3564
  103OSM   C12S10460   5.095   1.020  10.087  0.0657 -0.3879  0.0053
  103OSM   H12S10461   5.173   1.098  10.082  1.8746 -2.1524 -0.6560
  103OSM   H12T10462   5.025   1.060  10.163  0.4410  1.7258 -0.7146
  103OSM   C13S10463   5.030   0.997   9.951 -0.0531 -0.1073  0.1330
  103OSM   H13S10464   4.977   1.090   9.921 -1.6771 -1.4231 -1.3749
  103OSM   H13T10465   4.949   0.923   9.968 -2.3118  1.5671 -2.4179
  103OSM   C14S10466   5.118   0.954   9.833 -0.1166 -0.0359  0.1245
  103OSM   H14S10467   5.178   0.861   9.840 -0.3057 -0.1463  0.2723
  103OSM   H14T10468   5.200   1.026   9.810  1.0428 -1.3236  0.1347
  103OSM   C15S10469   5.019   0.939   9.707  0.0446  0.6531 -0.8591
  103OSM   H15S10470   4.972   1.039   9.702 -1.6243 -0.1412 -2.3409
  103OSM   H15T10471   4.940   0.865   9.734  1.3611 -0.3775  0.3268
  103OSM   C16S10472   5.088   0.886   9.587 -0.2575  0.5889 -0.4286
  103OSM   H16S10473   5.126   0.786   9.616 -0.0442  0.7315 -0.2199
  103OSM   H16T10474   5.176   0.950   9.566  1.1827 -1.2226 -0.2753
  103OSM   C17S10475   5.007   0.840   9.468 -0.6481 -0.3993  1.2368
  103OSM   H17S10476   4.940   0.755   9.492  0.6678 -1.2027  2.2119
  103OSM   H17T10477   5.078   0.799   9.394 -2.7337 -0.8346 -0.6380
  103OSM   C18S10478   4.926   0.952   9.396  0.2074  0.1031 -0.7418
  103OSM   H18S10479   4.964   1.055   9.413 -1.4626  0.5117  0.8862
  103OSM   H18T10480   4.817   0.951   9.418  0.1412  0.1061 -1.0699
  103OSM   H18U10481   4.930   0.929   9.288  0.7838 -0.8508 -0.5318
  103OSM    C1F10482   5.536  -0.091  10.476  0.3344  0.0772  0.5876
  103OSM     OF10483   5.475  -0.191  10.507  0.1777 -0.1627 -0.3037
  103OSM    C2F10484   5.650  -0.104  10.377 -0.1622 -0.8627 -0.2433
  103OSM    H2F10485   5.722  -0.158  10.442  0.1656  1.1226  1.1196
  103OSM    H2G10486   5.684  -0.003  10.344 -2.4392  1.1056  2.8632
  103OSM    C3F10487   5.616  -0.199  10.262 -0.6917 -0.3218  0.5105
  103OSM    H3F10488   5.531  -0.157  10.204 -0.6448 -2.8456 -1.5729
  103OSM    H3G10489   5.573  -0.291  10.308 -2.0637  0.2830  0.4915
  103OSM    C4F10490   5.726  -0.243  10.172 -0.5376  0.7102  0.4344
  103OSM    H4F10491   5.805  -0.288  10.236 -1.5131 -1.3223  0.2974
  103OSM    H4G10492   5.770  -0.148  10.136 -2.5089  1.0629 -1.2315
  103OSM    C5F10493   5.676  -0.325  10.056 -0.7038 -0.5606 -0.2057
  103OSM    H5F10494   5.582  -0.287  10.012  0.1693  0.7037 -1.0465
  103OSM    H5G10495   5.665  -0.432  10.085 -0.6090 -0.8908 -1.3286
  103OSM    C6F10496   5.772  -0.319   9.942 -0.2931  0.0385 -0.9249
  103OSM    H6F10497   5.876  -0.344   9.973  0.7523  0.7845 -3.5237
  103OSM    H6G10498   5.774  -0.211   9.918  1.2487  0.4527  0.8548
  103OSM    C7F10499   5.739  -0.407   9.828 -0.2423  1.0446 -0.3898
  103OSM    H7F10500   5.634  -0.384   9.798 -0.9993 -1.4445  0.1111
  103OSM    H7G10501   5.734  -0.509   9.870 -0.1236  0.9217 -0.6688
  103OSM    C8F10502   5.841  -0.400   9.712 -0.7227  0.1981 -0.5679
  103OSM    H8F10503   5.815  -0.479   9.638 -2.5729  0.1728  0.0586
  103OSM    H8G10504   5.943  -0.429   9.746 -1.0218 -0.4498 -0.2062
  103OSM    C9F10505   5.829  -0.269   9.647  0.2547 -0.3012 -0.0457
  103OSM    H9F10506   5.844  -0.174   9.702 -0.3001 -0.4408  0.3537
  103OSM   C10F10507   5.802  -0.252   9.517 -0.4717  0.7963 -0.1943
  103OSM   H10F10508   5.810  -0.151   9.474  1.3552  0.8173  0.1274
  103OSM   C11F10509   5.785  -0.357   9.410  0.5616 -0.3437 -0.3201
  103OSM   H11F10510   5.714  -0.427   9.459  1.8662 -0.5106  1.4596
  103OSM   H11G10511   5.882  -0.411   9.404  0.5227 -0.4754  0.1508
  103OSM   C12F10512   5.728  -0.302   9.279  0.4806  0.1775  0.0912
  103OSM   H12F10513   5.800  -0.229   9.235  0.9603 -0.6508 -0.5162
  103OSM   H12G10514   5.637  -0.241   9.297  0.4719  0.1264  0.2182
  103OSM   C13F10515   5.698  -0.411   9.173 -0.1160  0.2700  0.6004
  103OSM   H13F10516   5.796  -0.436   9.128  0.4099  1.9825  0.7261
  103OSM   H13G10517   5.652  -0.497   9.226  0.4136 -1.0308 -0.9719
  103OSM   C14F10518   5.620  -0.370   9.046 -0.0640  0.5243  0.0863
  103OSM   H14F10519   5.522  -0.328   9.075  0.2443  0.8508  0.6827
  103OSM   H14G10520   5.624  -0.445   8.965 -4.3108 -0.1649  0.3180
  103OSM   C15F10521   5.685  -0.242   8.976 -0.4545 -0.4792  0.6539
  103OSM   H15F10522   5.781  -0.269   8.929 -0.2983  0.6699  0.2765
  103OSM   H15G10523   5.705  -0.172   9.060 -1.1968  0.6277 -0.0454
  103OSM   C16F10524   5.579  -0.183   8.872  0.1738  0.4475 -0.0922
  103OSM   H16F10525   5.489  -0.138   8.921  0.2208  2.2788 -1.6045
  103OSM   H16G10526   5.556  -0.251   8.787  0.5794  0.0091  0.1440
  103OSM   C17F10527   5.640  -0.067   8.799 -0.1676  0.3969 -0.3340
  103OSM   H17F10528   5.735  -0.093   8.748  0.1419 -0.3148  0.5762
  103OSM   H17G10529   5.674   0.001   8.880 -0.2032 -3.1187  2.9389
  103OSM   C18F10530   5.560  -0.002   8.697  0.3551  0.2704  0.2405
  103OSM   H18F10531   5.629   0.079   8.666  0.0938 -0.1991 -1.7070
  103OSM   H18G10532   5.463   0.038   8.733 -0.2022 -2.3692  1.9598
  103OSM   H18H10533   5.551  -0.078   8.616 -1.4151  0.9975 -0.2969
  104OSM      N10534   2.354   0.928  11.072  0.3784 -0.1790 -0.8533
  104OSM    C1510535   2.274   0.812  11.124 -0.6198  0.4738  0.6143
  104OSM   H15A10536   2.244   0.831  11.226 -1.3933 -2.5616  1.0395
  104OSM   H15B10537   2.329   0.720  11.119 -0.4367  0.6499 -2.1331
  104OSM   H15C10538   2.187   0.793  11.062  2.5170 -1.5149 -3.7468
  104OSM    C1410539   2.288   1.054  11.115 -0.2101 -0.2257 -0.5327
  104OSM   H14A10540   2.243   1.037  11.212 -0.4167  2.1789 -0.1375
  104OSM   H14B10541   2.210   1.076  11.045 -1.7520 -1.7747  0.6218
  104OSM   H14C10542   2.358   1.137  11.113 -0.4567  0.0075  0.2193
  104OSM    C1310543   2.484   0.912  11.149  0.2296 -0.7888 -0.1249
  104OSM   H13A10544   2.541   0.832  11.106 -1.1203 -0.7424 -2.1471
  104OSM   H13B10545   2.464   0.888  11.252 -0.0795  1.7168  0.4756
  104OSM   H13C10546   2.543   1.002  11.151  0.0922 -0.6863  2.3475
  104OSM    C1210547   2.371   0.923  10.921 -0.2410  0.5360  0.5643
  104OSM   H12A10548   2.427   0.833  10.901 -1.2765 -0.1770  0.7665
  104OSM   H12B10549   2.438   1.000  10.887  0.7251 -0.8338 -0.7488
  104OSM    C1110550   2.239   0.923  10.839 -0.3360  0.2469 -0.0031
  104OSM   H11A10551   2.277   0.938  10.736  0.6943 -1.9284  0.0198
  104OSM   H11B10552   2.181   1.013  10.870 -0.0040  0.4886 -0.0771
  104OSM      P10553   2.232   0.663  10.798 -0.0976 -0.1825  0.1307
  104OSM    O1310554   2.367   0.689  10.750 -0.0031  0.5234 -0.3450
  104OSM    O1410555   2.222   0.564  10.910  0.9978  0.7602  0.0826
  104OSM    O1110556   2.138   0.627  10.681  0.2486  0.3128 -0.2751
  104OSM    O1210557   2.162   0.799  10.853 -0.1270  0.2093 -0.6346
  104OSM    C1S10558   2.137   0.706  10.562 -0.5537  0.0535 -0.9217
  104OSM    H1S10559   2.223   0.776  10.558 -1.0903  0.9085  1.1431
  104OSM    H1T10560   2.044   0.766  10.572 -0.6896 -0.0725 -1.3964
  104OSM     NF10561   2.138   0.701  10.323 -0.2913 -0.7981 -0.4072
  104OSM    HNF10562   2.052   0.702  10.273 -1.2855 -1.4486  1.2105
  104OSM    C2S10563   2.132   0.618  10.438 -0.2916  0.2183 -0.5908
  104OSM    H2S10564   2.225   0.557  10.440 -0.4521 -0.1474  2.9353
  104OSM    C3S10565   2.015   0.522  10.451  0.2417  0.1638  0.3031
  104OSM    H3S10566   1.919   0.572  10.476  0.3303  0.2496  0.4663
  104OSM     O310567   2.042   0.419  10.545 -0.4238 -0.0767 -0.3039
  104OSM    HO310568   2.105   0.463  10.604 -0.6682 -0.0382 -0.0657
  104OSM    C4S10569   1.992   0.458  10.314 -0.1021 -0.9481  0.2096
  104OSM    H4S10570   1.905   0.505  10.266  0.5412  0.7202  0.5819
  104OSM    C5S10571   2.051   0.359  10.251 -0.4697  0.4229  0.1009
  104OSM    H5S10572   2.138   0.302  10.287 -1.3844 -0.2060  1.4164
  104OSM    C6S10573   2.006   0.315  10.112 -0.0191 -0.8014 -0.3444
  104OSM    H6S10574   1.900   0.342  10.097  0.7403  4.2776  1.4911
  104OSM    H6T10575   2.027   0.210  10.081  2.9006 -0.7711  1.1576
  104OSM    C7S10576   2.075   0.389   9.998  0.0315  0.2889 -0.7479
  104OSM    H7S10577   2.181   0.398  10.029 -0.5170  3.6968  0.4871
  104OSM    H7T10578   2.039   0.492  10.017 -2.4243 -0.6612  0.2068
  104OSM    C8S10579   2.055   0.344   9.853 -0.7673 -0.8131 -0.6615
  104OSM    H8S10580   1.952   0.316   9.820 -1.2430  1.1648 -1.0205
  104OSM    H8T10581   2.118   0.255   9.835 -1.6478 -1.5014 -0.4255
  104OSM    C9S10582   2.078   0.443   9.748  0.5502 -0.1956  0.8028
  104OSM    H9S10583   2.173   0.492   9.781  1.0580 -1.0296  0.5873
  104OSM    H9T10584   1.992   0.512   9.735 -0.4916 -1.4692  0.7369
  104OSM   C10S10585   2.077   0.388   9.598 -0.3672  0.2833  0.2725
  104OSM   H10S10586   1.979   0.342   9.573 -0.1462  0.5099 -1.0413
  104OSM   H10T10587   2.138   0.295   9.592  0.9819  1.2525 -3.0394
  104OSM   C11S10588   2.100   0.496   9.489  0.2239 -0.7078 -0.0806
  104OSM   H11S10589   2.203   0.532   9.509  0.4530 -0.9996 -0.6940
  104OSM   H11T10590   2.036   0.587   9.488  1.6396  0.3163 -0.0419
  104OSM   C12S10591   2.104   0.423   9.351  0.3012  0.4102  0.1404
  104OSM   H12S10592   2.010   0.365   9.342 -0.5099  1.8519 -1.2447
  104OSM   H12T10593   2.196   0.362   9.354 -0.3904 -0.6318  1.7306
  104OSM   C13S10594   2.121   0.518   9.230  0.2209  0.1559 -0.3125
  104OSM   H13S10595   2.226   0.554   9.227  0.1372  0.7351  1.8670
  104OSM   H13T10596   2.060   0.607   9.255  1.8925  1.0439  0.8069
  104OSM   C14S10597   2.102   0.483   9.084 -0.4102  0.2558  0.2310
  104OSM   H14S10598   2.109   0.583   9.035  2.3108  0.3868  0.7267
  104OSM   H14T10599   2.000   0.443   9.066 -0.1496 -0.4876  0.3959
  104OSM   C15S10600   2.205   0.381   9.027 -0.1613 -0.2086 -0.7403
  104OSM   H15S10601   2.163   0.284   9.062  1.7315 -0.9449 -0.3881
  104OSM   H15T10602   2.302   0.381   9.080 -1.0513 -0.2523  0.9586
  104OSM   C16S10603   2.199   0.367   8.873 -0.2219 -0.8008  0.2884
  104OSM   H16S10604   2.112   0.328   8.817  0.3786  0.8647 -1.9445
  104OSM   H16T10605   2.277   0.294   8.843 -0.8527 -1.4607  0.2426
  104OSM   C17S10606   2.228   0.504   8.798  0.3207 -0.4037 -0.1800
  104OSM   H17S10607   2.328   0.542   8.827 -0.3760  1.9807 -0.7157
  104OSM   H17T10608   2.158   0.586   8.822  0.3354  0.0143 -1.4514
  104OSM   C18S10609   2.232   0.498   8.647  0.2097  0.7973 -0.0337
  104OSM   H18S10610   2.136   0.453   8.613  0.5456  2.0184 -2.7724
  104OSM   H18T10611   2.315   0.434   8.612 -0.6671 -0.0461 -0.6328
  104OSM   H18U10612   2.248   0.590   8.587  2.5345 -0.2292 -1.0858
  104OSM    C1F10613   2.249   0.770  10.295  0.6651  0.0537 -0.7298
  104OSM     OF10614   2.352   0.764  10.361 -0.0654 -0.2572 -0.4010
  104OSM    C2F10615   2.244   0.853  10.161 -0.0472 -0.0978  0.5231
  104OSM    H2F10616   2.323   0.816  10.093 -1.4026  0.8331 -1.6881
  104OSM    H2G10617   2.280   0.950  10.201  1.4590 -0.0154 -0.9306
  104OSM    C3F10618   2.117   0.850  10.081 -0.0852 -0.5790 -0.2275
  104OSM    H3F10619   2.028   0.903  10.122  0.0842 -0.9699  0.6617
  104OSM    H3G10620   2.089   0.743  10.069 -0.2701 -0.4352 -1.1598
  104OSM    C4F10621   2.137   0.906   9.942 -0.0792  1.0696  0.3195
  104OSM    H4F10622   2.216   0.855   9.883  1.0446  3.6207 -0.5380
  104OSM    H4G10623   2.184   1.007   9.951  1.1248  0.5268  0.3920
  104OSM    C5F10624   2.007   0.903   9.855  0.0911 -0.1229 -0.1307
  104OSM    H5F10625   1.924   0.946   9.915  1.5708  0.2460  1.7804
  104OSM    H5G10626   1.960   0.803   9.847 -1.1874  0.6166 -3.4880
  104OSM    C6F10627   2.005   0.964   9.713  0.1367 -0.6207  0.5996
  104OSM    H6F10628   2.023   1.073   9.723  0.0305 -0.3349 -1.7311
  104OSM    H6G10629   1.902   0.955   9.675  1.0310  0.5579 -2.3767
  104OSM    C7F10630   2.085   0.891   9.610 -0.3182  0.0484 -0.0922
  104OSM    H7F10631   2.064   0.782   9.614 -0.4397  0.0937  1.1650
  104OSM    H7G10632   2.194   0.904   9.630 -0.4410  1.3428 -0.1948
  104OSM    C8F10633   2.068   0.938   9.465 -0.4866 -0.2508 -0.1336
  104OSM    H8F10634   2.147   0.893   9.401  2.0611  0.7888  2.0666
  104OSM    H8G10635   2.097   1.042   9.489  0.5578 -1.2124  3.4878
  104OSM    C9F10636   1.929   0.913   9.412 -0.2669 -0.0461  0.1862
  104OSM    H9F10637   1.896   0.809   9.427 -0.8197  0.0920 -0.0590
  104OSM   C10F10638   1.838   1.005   9.362  0.1117 -0.1097  0.2217
  104OSM   H10F10639   1.742   0.964   9.328 -1.2348  2.3917  0.8020
  104OSM   C11F10640   1.865   1.156   9.343 -0.2034 -0.0535 -0.4552
  104OSM   H11F10641   1.944   1.193   9.412 -2.2542  1.3912  1.3018
  104OSM   H11G10642   1.770   1.207   9.371  1.4956  3.2068 -0.0992
  104OSM   C12F10643   1.905   1.183   9.200 -0.2606 -0.8322 -1.0939
  104OSM   H12F10644   1.975   1.107   9.159  2.3297 -0.4585  2.1660
  104OSM   H12G10645   1.963   1.277   9.186  1.3908 -1.3836  1.3775
  104OSM   C13F10646   1.782   1.203   9.112  0.2290 -0.0028  0.2568
  104OSM   H13F10647   1.715   1.279   9.156 -0.9265 -1.6566  1.4888
  104OSM   H13G10648   1.724   1.108   9.106 -1.0142  0.6848  0.8276
  104OSM   C14F10649   1.825   1.258   8.972 -0.5177  0.2473  0.9692
  104OSM   H14F10650   1.876   1.174   8.921 -0.6273 -0.8831  2.6231
  104OSM   H14G10651   1.900   1.337   8.990 -0.6905  1.1727 -1.8969
  104OSM   C15F10652   1.712   1.310   8.881 -0.2712  0.2228 -1.0103
  104OSM   H15F10653   1.658   1.394   8.931  0.6122  0.3047 -0.1636
  104OSM   H15G10654   1.632   1.235   8.863  0.4616 -0.6798 -0.5686
  104OSM   C16F10655   1.779   1.345   8.749  0.0449 -0.3814 -0.0782
  104OSM   H16F10656   1.806   1.245   8.708  0.8256 -1.2490  2.3666
  104OSM   H16G10657   1.872   1.404   8.759  0.6729 -1.3551 -0.0764
  104OSM   C17F10658   1.696   1.427   8.651 -0.0268  0.4700 -0.2109
  104OSM   H17F10659   1.589   1.397   8.655  0.3768 -1.3870 -1.5715
  104OSM   H17G10660   1.735   1.380   8.557  2.1685 -1.0919  1.3715
  104OSM   C18F10661   1.717   1.579   8.649  0.0344  0.7053  0.9729
  104OSM   H18F10662   1.681   1.623   8.554  1.8239  0.8764  0.3363
  104OSM   H18G10663   1.826   1.601   8.657  0.4973 -1.1070  0.1892
  104OSM   H18H10664   1.666   1.616   8.741  2.5796 -0.4200  2.9784
  105OSM      N10665   6.710   6.537  10.681 -0.9334 -0.3049 -0.0727
  105OSM    C1510666   6.586   6.532  10.761  0.1455 -0.0763  0.5241
  105OSM   H15A10667   6.552   6.432  10.787 -1.1751  0.0785 -0.5046
  105OSM   H15B10668   6.504   6.576  10.707 -0.2187 -2.0553 -0.6504
  105OSM   H15C10669   6.586   6.597  10.847 -0.5756 -0.7874  1.0697
  105OSM    C1410670   6.695   6.460  10.550 -0.3960  0.4986 -0.5200
  105OSM   H14A10671   6.780   6.477  10.487  0.6545 -1.3340  0.3368
  105OSM   H14B10672   6.597   6.484  10.512 -1.2695 -1.1366  0.5988
  105OSM   H14C10673   6.684   6.353  10.564 -1.4926  0.6817  0.2288
  105OSM    C1310674   6.747   6.680  10.643  0.1694  0.4140  0.0005
  105OSM   H13A10675   6.672   6.757  10.637 -1.5171 -1.1658 -0.0917
  105OSM   H13B10676   6.781   6.674  10.541 -0.1159  0.9741 -0.1238
  105OSM   H13C10677   6.824   6.714  10.711  1.9577 -3.2400  0.0733
  105OSM    C1210678   6.824   6.468  10.753 -0.0134  0.0133  0.1675
  105OSM   H12A10679   6.906   6.463  10.682  0.0104 -0.9403  0.2445
  105OSM   H12B10680   6.797   6.364  10.763 -3.0214  0.7671  0.7219
  105OSM    C1110681   6.878   6.525  10.889  1.0918  0.6560 -0.6282
  105OSM   H11A10682   6.938   6.447  10.940 -1.3744 -0.6380  0.4593
  105OSM   H11B10683   6.798   6.534  10.964  2.9618 -1.0231  1.7257
  105OSM      P10684   7.103   6.658  10.851  0.0723  0.2454  0.6915
  105OSM    O1310685   7.163   6.769  10.931 -0.2011  0.4223  0.1980
  105OSM    O1410686   7.165   6.527  10.868  0.4284 -0.1444 -0.3398
  105OSM    O1110687   7.105   6.695  10.699 -0.1361  0.4335  0.1909
  105OSM    O1210688   6.949   6.653  10.881 -0.0998  0.6344  0.2410
  105OSM    C1S10689   7.115   6.604  10.594  0.2997 -0.1724  1.2456
  105OSM    H1S10690   7.014   6.563  10.569 -1.3002  1.8223  3.9086
  105OSM    H1T10691   7.173   6.511  10.610 -0.8221 -0.7757  2.0215
  105OSM     NF10692   7.152   6.582  10.344 -0.0305 -0.0836  0.2957
  105OSM    HNF10693   7.235   6.536  10.314  0.1171  0.0546  0.4940
  105OSM    C2S10694   7.166   6.674  10.460  1.0531  0.6330  0.1724
  105OSM    H2S10695   7.108   6.765  10.436  0.0729 -0.3154 -1.2065
  105OSM    C3S10696   7.314   6.713  10.481 -0.2083  0.2050 -0.0702
  105OSM    H3S10697   7.381   6.626  10.497 -0.5327 -0.1236 -0.4585
  105OSM     O310698   7.333   6.795  10.595  0.0976 -0.6336  0.5760
  105OSM    HO310699   7.258   6.775  10.651 -1.3660  0.3743 -0.9304
  105OSM    C4S10700   7.367   6.779  10.355  0.0012  0.2444 -0.8482
  105OSM    H4S10701   7.287   6.840  10.310  0.2689  0.5496 -0.9187
  105OSM    C5S10702   7.482   6.758  10.283  0.1970 -0.4123 -0.4864
  105OSM    H5S10703   7.553   6.679  10.310  0.1394 -0.3393 -0.1193
  105OSM    C6S10704   7.516   6.821  10.153 -0.0379 -0.0452 -0.5453
  105OSM    H6S10705   7.609   6.878  10.170  0.4779 -1.0158 -0.0166
  105OSM    H6T10706   7.435   6.892  10.124  1.1718  1.5175 -0.2348
  105OSM    C7S10707   7.530   6.721  10.040 -0.3431  0.2413 -0.1343
  105OSM    H7S10708   7.431   6.678  10.013 -1.3052  1.3380  1.4819
  105OSM    H7T10709   7.603   6.641  10.064 -0.4908  0.2767  0.4378
  105OSM    C8S10710   7.564   6.790   9.903 -0.2911  0.0521  0.0501
  105OSM    H8S10711   7.668   6.828   9.909 -0.0291 -0.7858  0.9928
  105OSM    H8T10712   7.494   6.877   9.898 -1.0248 -0.5370 -0.0646
  105OSM    C9S10713   7.552   6.711   9.778 -0.0219  0.0618  0.8037
  105OSM    H9S10714   7.458   6.651   9.777  1.0785 -1.8902 -2.3477
  105OSM    H9T10715   7.638   6.641   9.777 -0.4899 -0.5281 -0.0521
  105OSM   C10S10716   7.559   6.804   9.655 -0.2414 -0.3952 -0.1419
  105OSM   H10S10717   7.629   6.887   9.675 -0.8537  0.3910 -1.1469
  105OSM   H10T10718   7.458   6.845   9.634 -0.1728 -0.4751 -0.6459
  105OSM   C11S10719   7.603   6.717   9.531  0.3906 -0.4316  0.1433
  105OSM   H11S10720   7.539   6.626   9.537  0.0399 -0.2710 -0.8993
  105OSM   H11T10721   7.711   6.692   9.535  0.4207 -0.1563  1.9660
  105OSM   C12S10722   7.582   6.799   9.401 -0.8452 -0.3204 -0.3143
  105OSM   H12S10723   7.664   6.872   9.386  0.0274 -1.1675  0.2263
  105OSM   H12T10724   7.489   6.860   9.408 -0.6006 -0.1482  2.9777
  105OSM   C13S10725   7.577   6.710   9.282 -0.7319 -0.1242 -0.0256
  105OSM   H13S10726   7.494   6.636   9.282  1.3625 -2.6862 -2.0680
  105OSM   H13T10727   7.665   6.643   9.282  0.4291  1.3328 -1.2906
  105OSM   C14S10728   7.569   6.783   9.144  0.4297 -0.1662  0.0329
  105OSM   H14S10729   7.653   6.856   9.135  1.0072 -0.5677  1.7321
  105OSM   H14T10730   7.476   6.839   9.119  0.5556 -0.1282 -0.3622
  105OSM   C15S10731   7.577   6.679   9.029  0.0827  0.1635  0.6712
  105OSM   H15S10732   7.483   6.620   9.031 -0.0094  0.3087  0.5550
  105OSM   H15T10733   7.658   6.603   9.042 -0.0922 -0.1610 -0.0844
  105OSM   C16S10734   7.598   6.758   8.902  0.0311 -0.4961  0.4221
  105OSM   H16S10735   7.644   6.696   8.823  0.0262  1.1987 -0.9576
  105OSM   H16T10736   7.668   6.842   8.919  0.4650 -0.6815 -0.4068
  105OSM   C17S10737   7.468   6.810   8.838 -0.5889 -0.7998  0.1830
  105OSM   H17S10738   7.404   6.884   8.891  1.0884 -0.4211  1.7690
  105OSM   H17T10739   7.413   6.715   8.819 -0.4854 -1.0389  1.0524
  105OSM   C18S10740   7.492   6.859   8.691  0.1862 -0.1685 -0.2582
  105OSM   H18S10741   7.564   6.803   8.627  1.0968 -0.0325  0.6173
  105OSM   H18T10742   7.519   6.965   8.676 -1.2180  0.5054  1.5974
  105OSM   H18U10743   7.401   6.852   8.628 -0.0705  3.2472 -0.4291
  105OSM    C1F10744   7.039   6.538  10.299  0.3751  0.7800 -0.2351
  105OSM     OF10745   6.932   6.575  10.345 -0.4200  0.6075 -0.0019
  105OSM    C2F10746   7.033   6.435  10.188  0.5441 -0.2284 -0.0557
  105OSM    H2F10747   6.933   6.390  10.175  1.1431 -1.7292  0.2666
  105OSM    H2G10748   7.108   6.357  10.216  0.6080 -0.7085 -1.5003
  105OSM    C3F10749   7.076   6.500  10.060 -0.9120  0.0598  0.2968
  105OSM    H3F10750   7.179   6.541  10.070 -0.9346  0.3731 -0.6528
  105OSM    H3G10751   7.016   6.591  10.038  0.0411  0.3026 -1.4884
  105OSM    C4F10752   7.095   6.408   9.936 -0.0788  0.6081  1.2939
  105OSM    H4F10753   7.008   6.340   9.923 -0.1199  1.0275 -1.2913
  105OSM    H4G10754   7.188   6.349   9.952 -0.5313 -0.5510 -0.0420
  105OSM    C5F10755   7.120   6.487   9.808 -1.4080  0.5342  0.5316
  105OSM    H5F10756   7.201   6.560   9.829  0.9989 -1.9180  0.4682
  105OSM    H5G10757   7.028   6.539   9.775 -0.9528  0.7901 -0.3675
  105OSM    C6F10758   7.156   6.393   9.693  0.1782  0.0059 -0.4771
  105OSM    H6F10759   7.085   6.312   9.664  3.0144 -2.5993 -0.6986
  105OSM    H6G10760   7.242   6.329   9.725 -2.6149 -3.3545  0.9570
  105OSM    C7F10761   7.179   6.475   9.564  0.0571  0.8093  0.9356
  105OSM    H7F10762   7.267   6.542   9.576 -1.1275  2.8867 -1.2794
  105OSM    H7G10763   7.086   6.531   9.544 -0.2729  1.1161  3.0846
  105OSM    C8F10764   7.207   6.385   9.447 -0.1492 -0.2388 -0.5480
  105OSM    H8F10765   7.115   6.324   9.441 -0.1857 -0.4482  1.3854
  105OSM    H8G10766   7.294   6.318   9.462  1.4413  1.1580 -2.8497
  105OSM    C9F10767   7.229   6.467   9.319  0.2548 -1.0045 -0.0952
  105OSM    H9F10768   7.316   6.534   9.313 -0.5320  0.3183  2.0174
  105OSM   C10F10769   7.134   6.466   9.220  0.2997 -0.2835 -0.4860
  105OSM   H10F10770   7.143   6.542   9.141  1.0966 -1.6736 -1.7944
  105OSM   C11F10771   6.996   6.405   9.221 -0.2331 -0.1253  0.3129
  105OSM   H11F10772   6.943   6.421   9.318 -1.2291 -0.1034 -0.2253
  105OSM   H11G10773   7.003   6.296   9.204  1.6752 -0.1059  0.7160
  105OSM   C12F10774   6.896   6.468   9.114 -0.0732  0.6057 -0.2428
  105OSM   H12F10775   6.901   6.579   9.110 -0.8154  0.6586  0.1438
  105OSM   H12G10776   6.801   6.438   9.161 -0.1942 -0.2148 -0.9873
  105OSM   C13F10777   6.924   6.414   8.975  0.5310 -0.6839  0.0815
  105OSM   H13F10778   6.899   6.305   8.969 -2.6953  0.0056 -1.7586
  105OSM   H13G10779   7.032   6.426   8.953  0.7220 -0.5495  1.0525
  105OSM   C14F10780   6.838   6.470   8.862 -0.4588  0.1308  0.1120
  105OSM   H14F10781   6.840   6.581   8.863  0.2648  0.1213  1.2828
  105OSM   H14G10782   6.733   6.433   8.870  0.0310 -1.5263 -0.7571
  105OSM   C15F10783   6.880   6.429   8.717 -0.7457 -0.3543  0.1436
  105OSM   H15F10784   6.801   6.453   8.643  0.2861 -1.3300 -1.3292
  105OSM   H15G10785   6.889   6.319   8.703  2.2463 -0.0995 -0.6443
  105OSM   C16F10786   7.015   6.489   8.655  0.5613  0.5818  0.1242
  105OSM   H16F10787   7.066   6.418   8.587  0.9453  1.0156 -0.0458
  105OSM   H16G10788   7.088   6.513   8.736  0.0216 -0.2021  0.8580
  105OSM   C17F10789   6.997   6.619   8.580 -0.2395 -0.3380  0.5803
  105OSM   H17F10790   6.937   6.684   8.648 -0.2924 -0.8586  1.0440
  105OSM   H17G10791   6.928   6.617   8.493 -0.4437  0.1003  0.7274
  105OSM   C18F10792   7.129   6.682   8.548 -0.8011 -0.8572  0.1280
  105OSM   H18F10793   7.191   6.601   8.504  0.8026  0.7768 -0.7500
  105OSM   H18G10794   7.170   6.727   8.641 -0.6929 -0.4060 -0.1370
  105OSM   H18H10795   7.117   6.762   8.472 -1.6624  1.5405  2.6585
  106OSM      N10796   2.529   5.913  11.126  0.7908 -0.0476 -0.4131
  106OSM    C1510797   2.411   5.826  11.159 -0.7712 -0.0111 -0.1980
  106OSM   H15A10798   2.428   5.722  11.139 -0.5126  0.1716 -0.9721
  106OSM   H15B10799   2.324   5.859  11.104 -0.6570  2.2044  0.8180
  106OSM   H15C10800   2.381   5.835  11.263 -2.3066 -1.9049 -0.4171
  106OSM    C1410801   2.494   6.051  11.153 -0.6238 -0.5518  0.0756
  106OSM   H14A10802   2.422   6.087  11.082 -2.3862 -4.3175 -0.3209
  106OSM   H14B10803   2.574   6.122  11.141 -1.1902 -0.1608 -1.6584
  106OSM   H14C10804   2.454   6.037  11.253 -0.2969 -0.8626  0.1643
  106OSM    C1310805   2.641   5.872  11.218  0.0993 -0.0346  0.9577
  106OSM   H13A10806   2.618   5.904  11.319  1.6786  0.8742  1.0708
  106OSM   H13B10807   2.733   5.926  11.198 -1.3081  2.5774  1.1490
  106OSM   H13C10808   2.658   5.766  11.214 -0.1785 -0.1030  1.5538
  106OSM    C1210809   2.562   5.896  10.973  1.0334 -0.5922 -0.1969
  106OSM   H12A10810   2.476   5.942  10.927 -0.6155 -0.6919  2.5385
  106OSM   H12B10811   2.560   5.795  10.937 -1.8302 -0.9149  0.6284
  106OSM    C1110812   2.690   5.965  10.928  0.0014  0.7036  0.4554
  106OSM   H11A10813   2.723   5.929  10.828  3.1480  0.2926  1.5044
  106OSM   H11B10814   2.769   5.930  10.998 -1.2042 -1.9542  0.6201
  106OSM      P10815   2.585   6.176  10.825 -0.1345 -0.0595  0.0752
  106OSM    O1310816   2.446   6.122  10.834 -0.3303  0.7885  0.1908
  106OSM    O1410817   2.588   6.324  10.830 -0.1900  0.1568 -0.2133
  106OSM    O1110818   2.654   6.126  10.691  0.1759 -0.2042  0.3939
  106OSM    O1210819   2.683   6.106  10.937  0.6797 -0.0516 -0.0361
  106OSM    C1S10820   2.587   6.141  10.560 -0.5115 -0.3851  0.0502
  106OSM    H1S10821   2.606   6.244  10.525  0.7811 -0.2595  1.0395
  106OSM    H1T10822   2.481   6.108  10.568 -0.9605  0.9995  0.0968
  106OSM     NF10823   2.625   6.121  10.315  0.6128  0.7359 -0.4386
  106OSM    HNF10824   2.551   6.086  10.258  0.9929  1.3067 -1.2937
  106OSM    C2S10825   2.651   6.058  10.446 -0.6430 -0.4391 -0.4241
  106OSM    H2S10826   2.760   6.069  10.462 -1.0072  0.9116  1.4016
  106OSM    C3S10827   2.617   5.904  10.467  0.0894 -0.1877 -0.6729
  106OSM    H3S10828   2.513   5.900  10.506  0.2840  2.5175  0.3232
  106OSM     O310829   2.697   5.838  10.566  0.1221  0.3873  0.6434
  106OSM    HO310830   2.741   5.906  10.618 -0.2609  1.7134 -0.6789
  106OSM    C4S10831   2.616   5.821  10.338 -0.0485 -0.1842 -0.0986
  106OSM    H4S10832   2.513   5.814  10.302  0.6479 -0.0424 -2.2070
  106OSM    C5S10833   2.716   5.779  10.262 -0.0827  0.7562 -0.1489
  106OSM    H5S10834   2.817   5.810  10.293 -1.0178  1.3627  2.6473
  106OSM    C6S10835   2.696   5.696  10.140 -0.7138  0.3258  0.2915
  106OSM    H6S10836   2.592   5.658  10.140 -0.4142 -0.5214 -0.1274
  106OSM    H6T10837   2.761   5.606  10.132 -0.0840  0.7349  0.7004
  106OSM    C7S10838   2.717   5.773  10.014  0.4314  0.1330  0.7060
  106OSM    H7S10839   2.705   5.700   9.930 -1.0516 -0.5615  1.4692
  106OSM    H7T10840   2.817   5.820  10.011 -0.5055  2.2615  1.4087
  106OSM    C8S10841   2.615   5.886   9.977  0.4706  0.2493  0.2561
  106OSM    H8S10842   2.614   5.974  10.045  2.1758  2.0623 -1.9179
  106OSM    H8T10843   2.512   5.845   9.983  0.7813 -0.3059  3.4528
  106OSM    C9S10844   2.638   5.957   9.844  0.4905 -1.4030  0.5079
  106OSM    H9S10845   2.736   6.008   9.836  1.1183 -2.4926  1.0862
  106OSM    H9T10846   2.558   6.033   9.828 -0.7963 -2.6302  0.8889
  106OSM   C10S10847   2.621   5.858   9.729 -0.2417  0.1987  0.1483
  106OSM   H10S10848   2.547   5.777   9.746 -0.6554 -0.1469 -2.8234
  106OSM   H10T10849   2.717   5.804   9.718 -0.0594  0.7585 -1.1098
  106OSM   C11S10850   2.586   5.919   9.589  0.1544 -0.1194 -0.8402
  106OSM   H11S10851   2.668   5.982   9.548 -1.8356  3.1060 -0.1982
  106OSM   H11T10852   2.506   5.994   9.605  0.1470 -0.6404  1.9490
  106OSM   C12S10853   2.533   5.813   9.489 -0.1248  0.1997 -0.0204
  106OSM   H12S10854   2.441   5.764   9.528 -0.8936 -1.0338 -3.0727
  106OSM   H12T10855   2.619   5.744   9.478 -0.8361 -0.8646  0.8361
  106OSM   C13S10856   2.504   5.879   9.348  0.0227  0.4340  0.6780
  106OSM   H13S10857   2.581   5.923   9.282 -0.8865  0.1600 -0.6065
  106OSM   H13T10858   2.415   5.945   9.360 -0.7356 -0.3667 -0.3320
  106OSM   C14S10859   2.453   5.766   9.256  0.0190 -0.1141 -0.5116
  106OSM   H14S10860   2.359   5.727   9.299 -0.7200 -0.3323 -2.2216
  106OSM   H14T10861   2.522   5.679   9.245 -0.6923 -0.5819 -1.3807
  106OSM   C15S10862   2.414   5.816   9.120 -0.0166  0.2000  0.1309
  106OSM   H15S10863   2.341   5.900   9.123 -2.0038 -1.4558  0.2451
  106OSM   H15T10864   2.354   5.732   9.079  2.0166 -1.2023 -0.0991
  106OSM   C16S10865   2.533   5.837   9.018  0.2422  0.0135  0.7789
  106OSM   H16S10866   2.587   5.741   9.004  0.2720  0.0547  0.6150
  106OSM   H16T10867   2.598   5.913   9.065  1.2195 -0.9893  1.0831
  106OSM   C17S10868   2.481   5.887   8.882  0.0120  0.2216  0.2478
  106OSM   H17S10869   2.419   5.979   8.893 -0.6758 -0.0406 -1.1959
  106OSM   H17T10870   2.420   5.809   8.832  1.6783 -1.8570  1.3091
  106OSM   C18S10871   2.599   5.925   8.781 -0.0570  0.0778 -0.2016
  106OSM   H18S10872   2.650   5.829   8.754  0.1086 -0.5150  2.0451
  106OSM   H18T10873   2.665   6.000   8.829 -0.3698  1.4267 -1.7862
  106OSM   H18U10874   2.556   5.958   8.684  4.1551  1.2730 -1.8775
  106OSM    C1F10875   2.694   6.223  10.266  0.2802 -0.4035 -0.3874
  106OSM     OF10876   2.756   6.292  10.346  0.4018 -0.5714 -0.3195
  106OSM    C2F10877   2.687   6.250  10.124 -0.6127 -0.1975  0.3612
  106OSM    H2F10878   2.582   6.233  10.093 -2.3579  1.8164  4.3529
  106OSM    H2G10879   2.758   6.176  10.080 -0.1427  0.2467  0.3612
  106OSM    C3F10880   2.731   6.398  10.098 -0.1200  0.4010  0.4763
  106OSM    H3F10881   2.842   6.405  10.103  0.0244 -0.8932 -0.3652
  106OSM    H3G10882   2.688   6.465  10.176  2.3202 -0.5643  2.8051
  106OSM    C4F10883   2.675   6.438   9.955  1.2465 -0.2037 -0.3728
  106OSM    H4F10884   2.718   6.539   9.935  1.9783  0.1188  2.4288
  106OSM    H4G10885   2.566   6.456   9.959  1.3050 -0.0684  1.1282
  106OSM    C5F10886   2.702   6.339   9.842 -0.0042 -0.3053 -0.3826
  106OSM    H5F10887   2.649   6.246   9.871 -1.4526  0.2696 -1.0995
  106OSM    H5G10888   2.809   6.310   9.836 -0.5496 -2.0993 -2.2947
  106OSM    C6F10889   2.661   6.377   9.704  0.1367 -0.3746 -0.0309
  106OSM    H6F10890   2.738   6.444   9.659  0.7851 -0.4532  0.9362
  106OSM    H6G10891   2.565   6.432   9.714  0.4210  0.5360 -1.8265
  106OSM    C7F10892   2.637   6.257   9.610 -0.5117 -0.1640  0.0226
  106OSM    H7F10893   2.540   6.221   9.651 -1.0938 -2.0101 -2.7433
  106OSM    H7G10894   2.722   6.186   9.617 -0.8098 -0.4873  0.4217
  106OSM    C8F10895   2.636   6.304   9.469 -0.0837 -0.7185  0.1040
  106OSM    H8F10896   2.582   6.401   9.465 -0.0701 -0.6649  1.1280
  106OSM    H8G10897   2.574   6.227   9.418 -0.3528  0.5607 -1.6130
  106OSM    C9F10898   2.770   6.318   9.400 -1.0259  0.2990 -0.4516
  106OSM    H9F10899   2.835   6.386   9.458 -1.5173  0.5456 -0.1839
  106OSM   C10F10900   2.815   6.272   9.285  0.5722 -0.0944  0.7365
  106OSM   H10F10901   2.921   6.291   9.261  0.0810  0.1422 -1.4374
  106OSM   C11F10902   2.739   6.188   9.189  0.3742  0.7055  0.3696
  106OSM   H11F10903   2.633   6.182   9.221  0.4063 -0.3879  0.3111
  106OSM   H11G10904   2.774   6.083   9.179  2.2752  1.3227  0.0627
  106OSM   C12F10905   2.721   6.248   9.045 -0.3844 -0.0920  0.1856
  106OSM   H12F10906   2.695   6.355   9.039  0.5108  0.2878  2.2238
  106OSM   H12G10907   2.646   6.189   8.988 -0.5177 -0.0991  0.3637
  106OSM   C13F10908   2.842   6.211   8.959  0.2983 -0.2772  0.1775
  106OSM   H13F10909   2.848   6.105   8.928 -2.7775 -0.3856 -0.4345
  106OSM   H13G10910   2.932   6.252   9.009 -0.4616  1.6313  0.0927
  106OSM   C14F10911   2.829   6.283   8.824  0.4856  0.0883  1.0525
  106OSM   H14F10912   2.932   6.270   8.784  0.7247 -3.8242  2.5578
  106OSM   H14G10913   2.814   6.393   8.835 -1.7460 -0.0322 -0.1312
  106OSM   C15F10914   2.727   6.240   8.711  0.2027 -0.4590  0.9158
  106OSM   H15F10915   2.641   6.197   8.767  0.6598 -1.8023  0.6293
  106OSM   H15G10916   2.777   6.158   8.654  1.1361 -0.6095  1.9109
  106OSM   C16F10917   2.688   6.354   8.624 -0.7743 -0.3891  0.1790
  106OSM   H16F10918   2.658   6.441   8.687 -1.4287  0.5953 -1.4497
  106OSM   H16G10919   2.595   6.336   8.566 -0.8147 -1.4976  0.5622
  106OSM   C17F10920   2.797   6.399   8.528  0.3158 -0.0767  0.1992
  106OSM   H17F10921   2.834   6.316   8.464  1.8565  0.9167 -0.2724
  106OSM   H17G10922   2.879   6.435   8.594 -1.8945  1.9373  2.0182
  106OSM   C18F10923   2.750   6.508   8.439  0.5774 -0.3850  0.3292
  106OSM   H18F10924   2.731   6.596   8.504  1.5526 -1.1759  1.7563
  106OSM   H18G10925   2.659   6.476   8.385  2.1687 -2.7475 -1.1395
  106OSM   H18H10926   2.832   6.539   8.371 -0.9421  1.4031 -0.7724
  107OSM      N10927   5.543   2.831  10.852  0.1789 -0.2948 -0.0751
  107OSM    C1510928   5.494   2.966  10.885  0.2527 -0.1930 -0.2427
  107OSM   H15A10929   5.525   2.986  10.987  1.3049  2.8445 -1.0408
  107OSM   H15B10930   5.386   2.968  10.878  0.0192 -3.4849  0.6083
  107OSM   H15C10931   5.536   3.044  10.824 -0.1694  0.1560 -0.0972
  107OSM    C1410932   5.456   2.773  10.744  0.5172 -0.2524  0.4404
  107OSM   H14A10933   5.358   2.751  10.783  0.6114 -0.8816  0.3386
  107OSM   H14B10934   5.498   2.677  10.720  0.7206 -0.1651  0.4478
  107OSM   H14C10935   5.455   2.843  10.661  0.1118 -1.9376 -1.0463
  107OSM    C1310936   5.686   2.846  10.809 -0.4897 -0.1598 -0.1598
  107OSM   H13A10937   5.721   2.750  10.775  0.5353 -0.3112  1.2160
  107OSM   H13B10938   5.743   2.867  10.899  0.4610 -1.2824 -0.4650
  107OSM   H13C10939   5.709   2.933  10.749 -1.8339 -0.3984 -1.0615
  107OSM    C1210940   5.544   2.744  10.982  0.3139 -0.5597  0.0763
  107OSM   H12A10941   5.603   2.792  11.059  1.1790 -1.2737 -0.1307
  107OSM   H12B10942   5.597   2.655  10.952 -0.1530 -0.9311  0.3301
  107OSM    C1110943   5.404   2.690  11.035 -0.2810 -0.1186 -0.5307
  107OSM   H11A10944   5.328   2.771  11.040 -0.0866  0.0647 -0.5279
  107OSM   H11B10945   5.417   2.653  11.138 -0.9574  0.4949 -0.2190
  107OSM      P10946   5.441   2.447  10.948  0.1644 -0.7135  0.2057
  107OSM    O1310947   5.564   2.471  10.862 -0.2701  0.0307 -0.5650
  107OSM    O1410948   5.464   2.389  11.083  0.2436  0.1833  0.0647
  107OSM    O1110949   5.350   2.352  10.861  0.4690 -0.2817 -0.2138
  107OSM    O1210950   5.359   2.583  10.952  0.4099 -0.1737 -0.6377
  107OSM    C1S10951   5.285   2.397  10.734  0.5252  0.2379  0.4756
  107OSM    H1S10952   5.310   2.502  10.709  1.9137  0.1502  1.4244
  107OSM    H1T10953   5.174   2.391  10.741  0.4848 -1.1140 -0.8826
  107OSM     NF10954   5.259   2.352  10.491  0.3653  0.2125 -0.0560
  107OSM    HNF10955   5.177   2.304  10.462  1.1228 -1.0199 -0.2406
  107OSM    C2S10956   5.321   2.304  10.616 -0.1229  0.0871  0.7398
  107OSM    H2S10957   5.430   2.316  10.597 -0.1837 -0.9936 -0.4317
  107OSM    C3S10958   5.275   2.159  10.647  0.4593 -0.2074  0.7477
  107OSM    H3S10959   5.170   2.167  10.684 -0.6320  0.8647 -2.3122
  107OSM     O310960   5.341   2.118  10.769  0.0040 -0.0884 -0.3325
  107OSM    HO310961   5.355   2.199  10.819  1.7730 -1.1332  0.9593
  107OSM    C4S10962   5.286   2.060  10.538 -0.0321 -0.1452 -0.1107
  107OSM    H4S10963   5.194   2.052  10.477  0.4753  1.1594 -1.0907
  107OSM    C5S10964   5.401   2.010  10.498 -0.0888 -0.4470 -0.2519
  107OSM    H5S10965   5.495   2.043  10.545  1.3009 -0.2993 -2.9917
  107OSM    C6S10966   5.427   1.915  10.383 -0.0180 -0.9353  0.1217
  107OSM    H6S10967   5.361   1.826  10.393  1.2139 -1.8929 -0.0602
  107OSM    H6T10968   5.535   1.887  10.387  0.0960 -0.6029 -0.4753
  107OSM    C7S10969   5.410   1.972  10.238  0.0648  0.3635 -0.6013
  107OSM    H7S10970   5.445   2.077  10.237  0.8783  0.0972 -0.6029
  107OSM    H7T10971   5.302   1.966  10.211 -0.6782  1.3034  1.8739
  107OSM    C8S10972   5.503   1.891  10.143 -0.0366  0.4643 -0.2498
  107OSM    H8S10973   5.497   1.780  10.150  1.4319  0.3838  0.1305
  107OSM    H8T10974   5.607   1.930  10.154  0.0279  0.5811 -1.2184
  107OSM    C9S10975   5.464   1.917   9.993  0.1747 -0.3711  0.2553
  107OSM    H9S10976   5.485   2.023   9.966  2.2334 -0.9735 -0.6554
  107OSM    H9T10977   5.355   1.900   9.976 -0.0157  1.4843 -0.6576
  107OSM   C10S10978   5.544   1.824   9.895  0.0366  0.1590 -0.4684
  107OSM   H10S10979   5.471   1.799   9.815 -2.0152  1.1093  0.9935
  107OSM   H10T10980   5.570   1.731   9.949  0.0660  0.8051  0.6707
  107OSM   C11S10981   5.672   1.875   9.844  0.1012 -0.0887  0.1737
  107OSM   H11S10982   5.754   1.865   9.918  1.2538  0.6558 -0.9636
  107OSM   H11T10983   5.668   1.984   9.823  1.7604 -0.2133 -0.9919
  107OSM   C12S10984   5.725   1.800   9.718 -0.2688 -0.7302 -0.5683
  107OSM   H12S10985   5.715   1.690   9.727 -2.3486 -0.6923 -1.7861
  107OSM   H12T10986   5.835   1.818   9.713 -0.4110  0.0571 -0.9759
  107OSM   C13S10987   5.663   1.838   9.589 -0.1091 -0.0273 -0.1277
  107OSM   H13S10988   5.670   1.946   9.565 -1.4275 -0.0308 -0.5954
  107OSM   H13T10989   5.555   1.818   9.607  0.1603 -1.7285 -0.2000
  107OSM   C14S10990   5.712   1.747   9.475  0.4421 -0.1259  0.3534
  107OSM   H14S10991   5.688   1.646   9.516 -0.5581 -0.5856 -1.2893
  107OSM   H14T10992   5.823   1.750   9.471  0.4238 -0.6258 -0.9011
  107OSM   C15S10993   5.659   1.787   9.338 -0.4342  0.2962 -0.0019
  107OSM   H15S10994   5.700   1.885   9.305  2.0575 -0.3966  0.7756
  107OSM   H15T10995   5.548   1.791   9.335 -0.4571 -0.6722 -2.0056
  107OSM   C16S10996   5.706   1.683   9.233  0.0111  0.3814 -0.0067
  107OSM   H16S10997   5.679   1.583   9.274 -1.6722  0.1681 -1.5250
  107OSM   H16T10998   5.814   1.686   9.209 -0.3503  0.5738 -1.7245
  107OSM   C17S10999   5.635   1.703   9.098 -0.4091 -0.5683  0.4826
  107OSM   H17S11000   5.693   1.637   9.029 -1.5375 -0.0447 -1.0200
  107OSM   H17T11001   5.656   1.805   9.061 -0.5232 -0.4486  0.7441
  107OSM   C18S11002   5.491   1.671   9.081 -0.1124  0.3975 -0.6124
  107OSM   H18S11003   5.428   1.721   9.158 -0.4652 -0.4873 -0.3247
  107OSM   H18T11004   5.483   1.567   9.118  0.3887  0.9023  1.0176
  107OSM   H18U11005   5.445   1.690   8.981 -2.3729  0.9439  0.4600
  107OSM    C1F11006   5.286   2.469  10.433 -0.0314  0.5734 -0.6352
  107OSM     OF11007   5.371   2.545  10.479 -0.3888 -0.5588  0.1060
  107OSM    C2F11008   5.224   2.488  10.292 -0.1092  0.0476  0.7854
  107OSM    H2F11009   5.123   2.530  10.311  0.3156  0.7634  1.5532
  107OSM    H2G11010   5.204   2.387  10.248  0.0289  0.0479  0.7228
  107OSM    C3F11011   5.312   2.576  10.203  0.4321  0.1860  0.0428
  107OSM    H3F11012   5.388   2.502  10.171 -0.6016  0.2511 -2.9053
  107OSM    H3G11013   5.356   2.659  10.262 -0.3795  0.4784  0.2542
  107OSM    C4F11014   5.249   2.650  10.085  0.5180 -0.1949  0.7373
  107OSM    H4F11015   5.325   2.722  10.048 -1.9226  1.7918 -0.8132
  107OSM    H4G11016   5.171   2.722  10.121  0.6734  0.6270 -0.4996
  107OSM    C5F11017   5.175   2.552   9.990  0.2198  0.6735 -0.6655
  107OSM    H5F11018   5.120   2.479  10.052 -0.4639  2.6372  1.1720
  107OSM    H5G11019   5.251   2.501   9.927  0.0906  0.3336 -0.5431
  107OSM    C6F11020   5.087   2.632   9.891  0.0055  0.4486 -0.2583
  107OSM    H6F11021   5.154   2.700   9.835  0.1607 -0.3070 -1.0116
  107OSM    H6G11022   5.010   2.695   9.940 -0.5548  1.1345 -1.9730
  107OSM    C7F11023   5.028   2.535   9.788  0.5702 -0.1070  0.2931
  107OSM    H7F11024   4.946   2.482   9.842  1.4646  1.4335  3.4558
  107OSM    H7G11025   5.101   2.451   9.777  1.6029  0.6436  1.1156
  107OSM    C8F11026   5.000   2.600   9.657 -0.5662  0.0032 -0.4492
  107OSM    H8F11027   4.953   2.696   9.687  1.0884  0.7837 -0.2678
  107OSM    H8G11028   4.926   2.534   9.608  1.1501 -0.3195 -2.7294
  107OSM    C9F11029   5.126   2.625   9.572  0.4310 -0.3067 -0.0695
  107OSM    H9F11030   5.222   2.643   9.623 -0.1559  0.9047  0.6497
  107OSM   C10F11031   5.132   2.613   9.436 -0.8495  0.7111  0.0310
  107OSM   H10F11032   5.225   2.644   9.386  0.6942  0.7041  2.7580
  107OSM   C11F11033   5.020   2.566   9.353  0.6418  0.9831  0.2979
  107OSM   H11F11034   4.924   2.601   9.396  0.3164  1.3749 -0.7048
  107OSM   H11G11035   5.012   2.455   9.352  1.3005  0.9149  1.3339
  107OSM   C12F11036   5.020   2.626   9.206  0.4337  0.4756 -0.0920
  107OSM   H12F11037   5.099   2.569   9.152 -0.2546 -2.0121  1.3860
  107OSM   H12G11038   5.040   2.734   9.223  1.8967 -0.0087  1.5139
  107OSM   C13F11039   4.885   2.620   9.135  0.3526  0.0680  0.4165
  107OSM   H13F11040   4.827   2.707   9.175  0.6620  0.7833 -0.6270
  107OSM   H13G11041   4.837   2.523   9.160 -0.0422  0.4706  1.2705
  107OSM   C14F11042   4.877   2.657   8.986  0.1752 -0.1981  0.2668
  107OSM   H14F11043   4.944   2.745   8.976 -0.3301  0.2599  0.8439
  107OSM   H14G11044   4.775   2.683   8.951 -0.5417 -2.4727  0.4734
  107OSM   C15F11045   4.927   2.541   8.898 -0.2200  0.4482 -0.5055
  107OSM   H15F11046   4.863   2.453   8.919 -1.2130  0.8064 -1.8940
  107OSM   H15G11047   5.033   2.520   8.926  0.7910  0.2729 -4.0216
  107OSM   C16F11048   4.923   2.562   8.743 -0.9979 -0.7387 -0.0575
  107OSM   H16F11049   5.002   2.636   8.719 -0.4318 -0.5227  2.2410
  107OSM   H16G11050   4.831   2.622   8.724 -1.4472 -1.3158  0.2491
  107OSM   C17F11051   4.954   2.440   8.662  0.1072  0.0867 -0.0179
  107OSM   H17F11052   4.867   2.375   8.638  0.6983 -0.8631  0.3362
  107OSM   H17G11053   5.029   2.382   8.721  0.7474  1.0839  0.1666
  107OSM   C18F11054   5.013   2.474   8.522 -1.3437  0.1374 -0.0418
  107OSM   H18F11055   5.115   2.516   8.533 -0.2017 -2.3307 -0.4251
  107OSM   H18G11056   4.945   2.545   8.471 -0.8540  1.7773  1.4838
  107OSM   H18H11057   5.014   2.381   8.461  0.3263 -0.4876  0.8819
  108OSM      N11058   5.790   4.911  11.218 -1.0993 -0.1987 -0.5967
  108OSM    C1511059   5.837   5.027  11.298 -0.3173 -0.4605 -0.5620
  108OSM   H15A11060   5.881   5.103  11.235  1.2767  0.1710  1.2204
  108OSM   H15B11061   5.915   5.001  11.367 -1.2391 -0.3247  0.5660
  108OSM   H15C11062   5.757   5.058  11.364 -1.3831 -3.1177 -0.4932
  108OSM    C1411063   5.771   4.800  11.316  0.1811 -0.1825  0.1018
  108OSM   H14A11064   5.664   4.786  11.325  0.3361 -1.7390 -0.2697
  108OSM   H14B11065   5.814   4.816  11.413  0.2758  0.8528 -0.1015
  108OSM   H14C11066   5.807   4.711  11.268 -0.3733 -0.4359  0.1442
  108OSM    C1311067   5.660   4.955  11.159  0.8426  0.4523  0.4710
  108OSM   H13A11068   5.607   4.987  11.248  1.0186 -0.4169  0.8916
  108OSM   H13B11069   5.615   4.872  11.107 -1.6143  1.6474  0.5139
  108OSM   H13C11070   5.688   5.032  11.089 -0.8851 -0.9865 -1.9678
  108OSM    C1211071   5.890   4.872  11.116 -0.8054 -0.1364  0.2616
  108OSM   H12A11072   5.856   4.775  11.084  1.3048 -0.6672 -0.5252
  108OSM   H12B11073   5.982   4.850  11.168 -1.3064 -0.8688  0.8539
  108OSM    C1111074   5.913   4.969  10.997 -0.8587 -0.3026 -0.9259
  108OSM   H11A11075   5.816   5.010  10.962 -0.2998  3.6259  1.4780
  108OSM   H11B11076   5.965   4.921  10.911 -0.1348 -1.7680  0.2982
  108OSM      P11077   6.128   5.099  11.088  0.1236  0.0843 -0.3270
  108OSM    O1311078   6.132   5.201  11.195  0.2172  0.2058 -1.4747
  108OSM    O1411079   6.186   4.964  11.118  0.5994 -0.0921  0.2187
  108OSM    O1111080   6.189   5.163  10.953 -0.0652 -0.0123  0.2110
  108OSM    O1211081   5.974   5.090  11.049 -0.2718  0.3688 -0.3181
  108OSM    C1S11082   6.123   5.183  10.830  0.1655 -0.4326 -0.5486
  108OSM    H1S11083   6.041   5.258  10.826  0.7734  0.1991 -1.7543
  108OSM    H1T11084   6.080   5.084  10.803 -1.3969 -0.8750  3.0554
  108OSM     NF11085   6.178   5.310  10.628  0.8917 -0.3233  0.0640
  108OSM    HNF11086   6.157   5.266  10.541  0.1505  0.6127 -0.2367
  108OSM    C2S11087   6.233   5.221  10.725  0.1598 -0.0615  0.0012
  108OSM    H2S11088   6.323   5.269  10.768  1.9440 -2.5957 -0.6382
  108OSM    C3S11089   6.286   5.076  10.668 -0.0398 -0.8329  0.9437
  108OSM    H3S11090   6.206   5.018  10.618  0.3150  0.0943 -0.8282
  108OSM     O311091   6.336   4.985  10.766 -0.3672 -0.2413  0.1621
  108OSM    HO311092   6.326   5.022  10.854  0.2916  1.2141 -0.3496
  108OSM    C4S11093   6.379   5.098  10.540 -0.1922  0.4879 -0.5967
  108OSM    H4S11094   6.322   5.105  10.446 -2.8693 -1.1664  0.7551
  108OSM    C5S11095   6.508   5.134  10.557 -0.1152  0.0962  0.2590
  108OSM    H5S11096   6.547   5.157  10.657  0.3929  1.6299 -0.2565
  108OSM    C6S11097   6.608   5.176  10.455  1.0314 -0.1571 -0.1666
  108OSM    H6S11098   6.682   5.095  10.438 -0.9102 -1.5397 -2.8556
  108OSM    H6T11099   6.666   5.266  10.486 -1.8414  1.4787  0.8496
  108OSM    C7S11100   6.545   5.205  10.313  0.6451 -0.5837 -0.6788
  108OSM    H7S11101   6.497   5.305  10.313  1.2208 -0.2947  0.5611
  108OSM    H7T11102   6.491   5.117  10.272  0.6266  0.5978 -3.4381
  108OSM    C8S11103   6.652   5.213  10.202  1.0230  0.0382  0.6531
  108OSM    H8S11104   6.716   5.122  10.194 -1.0025 -1.4393  0.5559
  108OSM    H8T11105   6.717   5.301  10.221  3.0375 -1.1074 -0.5370
  108OSM    C9S11106   6.584   5.226  10.063 -0.2371  1.0728 -0.0069
  108OSM    H9S11107   6.488   5.276  10.089 -0.2616 -0.0500  2.2789
  108OSM    H9T11108   6.569   5.126  10.017  3.1326 -0.7528  2.4153
  108OSM   C10S11109   6.671   5.301   9.961 -0.1067  0.3721  0.3944
  108OSM   H10S11110   6.755   5.237   9.926 -2.6050 -2.1744 -1.4060
  108OSM   H10T11111   6.712   5.401   9.989  2.9486 -0.5062 -0.5811
  108OSM   C11S11112   6.595   5.322   9.830  0.7309 -0.2206  0.1241
  108OSM   H11S11113   6.661   5.368   9.753  2.3831 -2.7549 -0.0643
  108OSM   H11T11114   6.503   5.383   9.841 -0.2160 -1.3572 -1.2939
  108OSM   C12S11115   6.540   5.185   9.775 -0.0935  0.0263 -0.5082
  108OSM   H12S11116   6.457   5.140   9.833 -0.0390  0.3185 -0.1978
  108OSM   H12T11117   6.625   5.115   9.782 -0.8374 -0.7850  0.8427
  108OSM   C13S11118   6.491   5.196   9.633  0.5391 -0.2710  0.3166
  108OSM   H13S11119   6.565   5.244   9.565 -2.5167 -0.6437 -3.6836
  108OSM   H13T11120   6.405   5.265   9.644  0.1628 -0.3975 -1.5360
  108OSM   C14S11121   6.458   5.059   9.577 -0.2225 -0.6421 -0.0547
  108OSM   H14S11122   6.379   5.019   9.645 -0.5012  1.2774  0.8522
  108OSM   H14T11123   6.554   5.005   9.590  1.6359  2.0688 -1.5606
  108OSM   C15S11124   6.408   5.058   9.432  1.2401  0.3373 -0.3332
  108OSM   H15S11125   6.301   5.087   9.428  1.5499  1.3558 -2.3778
  108OSM   H15T11126   6.405   4.956   9.388 -0.7534  0.0969  0.2741
  108OSM   C16S11127   6.500   5.139   9.332 -0.9258 -0.2890  0.5723
  108OSM   H16S11128   6.600   5.091   9.335 -1.0131 -0.4697  0.5915
  108OSM   H16T11129   6.506   5.245   9.366 -0.8060  0.1365 -0.7131
  108OSM   C17S11130   6.439   5.128   9.192  0.9242  0.3615 -0.1545
  108OSM   H17S11131   6.355   5.200   9.182  1.0530  0.9146  2.0900
  108OSM   H17T11132   6.396   5.026   9.177  0.3720  1.0359 -4.1716
  108OSM   C18S11133   6.537   5.164   9.082  0.4040 -0.2737  0.2514
  108OSM   H18S11134   6.495   5.141   8.982  0.3475 -3.9867  0.9756
  108OSM   H18T11135   6.630   5.103   9.088 -0.1281 -1.1350 -0.0980
  108OSM   H18U11136   6.570   5.269   9.096  0.3058 -0.0484 -1.0827
  108OSM    C1F11137   6.140   5.437  10.650  0.2125  0.1414  0.9180
  108OSM     OF11138   6.156   5.492  10.757  0.4516 -0.0740 -0.4012
  108OSM    C2F11139   6.090   5.509  10.529  0.1691 -0.5593  0.9739
  108OSM    H2F11140   6.014   5.448  10.475  0.2819  0.4673 -0.3664
  108OSM    H2G11141   6.170   5.522  10.453 -0.7319 -1.2052 -0.1179
  108OSM    C3F11142   6.038   5.650  10.580  0.7027 -0.4045 -0.3185
  108OSM    H3F11143   6.116   5.716  10.624 -0.1004  0.9581 -0.8851
  108OSM    H3G11144   5.950   5.641  10.648  0.3941  4.3552  0.3031
  108OSM    C4F11145   5.971   5.737  10.468 -0.7762 -0.2654 -0.0416
  108OSM    H4F11146   6.049   5.749  10.389  0.8716 -1.5940  1.2836
  108OSM    H4G11147   5.942   5.838  10.505 -0.6911 -0.4112  0.4323
  108OSM    C5F11148   5.836   5.672  10.413 -0.6066 -0.2884  0.4020
  108OSM    H5F11149   5.756   5.682  10.490  0.8639  0.8018  1.8594
  108OSM    H5G11150   5.848   5.568  10.376  0.4882 -0.1966  0.4799
  108OSM    C6F11151   5.783   5.748  10.285 -0.6497  0.8916  0.0045
  108OSM    H6F11152   5.862   5.746  10.208 -0.6298 -0.1999  0.0455
  108OSM    H6G11153   5.774   5.851  10.328  0.4592  1.2758 -0.6335
  108OSM    C7F11154   5.652   5.710  10.215  0.3272  0.0097  0.2025
  108OSM    H7F11155   5.562   5.717  10.279  0.0895 -0.9324 -0.0096
  108OSM    H7G11156   5.656   5.601  10.194 -0.5256  0.0287 -0.1084
  108OSM    C8F11157   5.639   5.779  10.073 -0.5067 -0.1789  0.5346
  108OSM    H8F11158   5.576   5.710  10.012 -0.6778 -0.2076  0.7436
  108OSM    H8G11159   5.741   5.771  10.031 -0.6282 -0.0478  0.2136
  108OSM    C9F11160   5.577   5.915  10.065 -0.0815 -0.1476  0.1535
  108OSM    H9F11161   5.498   5.939  10.137  0.1124 -0.6692  0.5469
  108OSM   C10F11162   5.608   6.005   9.968  0.3088  0.5420  0.0398
  108OSM   H10F11163   5.567   6.107   9.981  1.6269  0.8206  2.5269
  108OSM   C11F11164   5.703   5.979   9.851 -0.3634 -0.7190  0.3654
  108OSM   H11F11165   5.737   5.874   9.852 -0.0252 -0.6126  1.1663
  108OSM   H11G11166   5.799   6.033   9.862  0.0560 -1.6677  1.5704
  108OSM   C12F11167   5.625   5.990   9.719  0.6663  0.3216 -0.2146
  108OSM   H12F11168   5.592   6.096   9.713  0.4748  0.2587 -0.2737
  108OSM   H12G11169   5.541   5.917   9.718 -0.5036  1.5763  1.5114
  108OSM   C13F11170   5.703   5.965   9.590 -0.6705 -0.1520  0.2542
  108OSM   H13F11171   5.763   5.872   9.583 -0.1653  0.1643  0.3131
  108OSM   H13G11172   5.782   6.042   9.577 -0.4889 -0.4946 -0.7649
  108OSM   C14F11173   5.608   5.962   9.468  0.3870  0.3404  0.2841
  108OSM   H14F11174   5.560   6.062   9.468 -0.9784 -0.2705 -1.2578
  108OSM   H14G11175   5.519   5.896   9.476 -1.9832  3.2596 -0.2520
  108OSM   C15F11176   5.671   5.948   9.333  0.4068  0.7681  0.6406
  108OSM   H15F11177   5.711   5.845   9.327  0.3987  0.7083  1.5778
  108OSM   H15G11178   5.750   6.026   9.330  1.5170 -0.3254  1.0862
  108OSM   C16F11179   5.570   5.986   9.221 -0.4556 -0.7771 -0.0194
  108OSM   H16F11180   5.621   5.967   9.124  1.3483 -0.5250  0.8219
  108OSM   H16G11181   5.533   6.090   9.232 -1.3765 -0.9885 -1.0126
  108OSM   C17F11182   5.440   5.910   9.218 -0.2439  0.3476 -0.0950
  108OSM   H17F11183   5.383   5.923   9.123  1.0144  3.5820 -0.5497
  108OSM   H17G11184   5.374   5.930   9.305  1.3382 -0.6231  1.3835
  108OSM   C18F11185   5.466   5.758   9.238  0.2483 -0.0972  0.2474
  108OSM   H18F11186   5.366   5.710   9.233  0.5498 -0.6511 -2.2456
  108OSM   H18G11187   5.519   5.728   9.331 -0.3650 -1.1971  0.2568
  108OSM   H18H11188   5.523   5.720   9.150  2.0139  0.7679  0.9715
  109OSM      N11189   0.287   0.845  10.785  0.4726 -0.4214 -0.3622
  109OSM    C1511190   0.382   0.958  10.799 -0.9311  0.1197 -0.2489
  109OSM   H15A11191   0.447   0.958  10.713 -0.6226  0.8910 -0.0232
  109OSM   H15B11192   0.449   0.948  10.883  2.6079 -2.8762 -3.1260
  109OSM   H15C11193   0.337   1.057  10.792  0.8665  1.0778  1.0182
  109OSM    C1411194   0.188   0.836  10.905 -0.1409  0.0157 -0.1052
  109OSM   H14A11195   0.115   0.761  10.878  0.7307 -0.9580  0.1698
  109OSM   H14B11196   0.132   0.923  10.937 -0.5027 -0.3748  0.3415
  109OSM   H14C11197   0.231   0.800  10.997 -3.7309  0.1701  1.8256
  109OSM    C1311198   0.199   0.876  10.664  0.1703  0.3029  0.0307
  109OSM   H13A11199   0.140   0.966  10.672  2.0627  1.5360  0.7088
  109OSM   H13B11200   0.132   0.793  10.647 -0.4334  0.2901  2.1195
  109OSM   H13C11201   0.268   0.887  10.583 -0.3050  0.7304 -0.3267
  109OSM    C1211202   0.353   0.708  10.764 -0.1371 -0.1986 -0.7467
  109OSM   H12A11203   0.281   0.627  10.772  0.1228 -0.3419  0.4288
  109OSM   H12B11204   0.422   0.690  10.845  0.0217 -0.9550 -1.0381
  109OSM    C1111205   0.443   0.684  10.640 -0.1064  0.6412  0.1299
  109OSM   H11A11206   0.381   0.682  10.547 -2.5364  1.1692  1.6450
  109OSM   H11B11207   0.469   0.576  10.643  0.1731  0.7306  1.6174
  109OSM      P11208   0.695   0.722  10.673  0.0522  0.3310 -0.2780
  109OSM    O1311209   0.788   0.830  10.710  0.1948 -0.1390  0.4271
  109OSM    O1411210   0.694   0.611  10.766  0.5625 -0.1278  0.2227
  109OSM    O1111211   0.740   0.666  10.538  0.4916  0.5750  0.1552
  109OSM    O1211212   0.552   0.770  10.630 -0.6463  0.1952  0.2303
  109OSM    C1S11213   0.776   0.732  10.421 -0.1881 -0.5106  0.0226
  109OSM    H1S11214   0.870   0.789  10.438 -0.9944  0.7556  0.3046
  109OSM    H1T11215   0.699   0.807  10.392 -0.2148 -0.4921  0.1388
  109OSM     NF11216   0.864   0.709  10.187 -0.1572  0.2149  0.4674
  109OSM    HNF11217   0.807   0.753  10.118  0.0543  3.1751  2.0132
  109OSM    C2S11218   0.803   0.640  10.298  0.1337 -0.0079  0.4899
  109OSM    H2S11219   0.882   0.569  10.330  1.1103  0.6683 -0.3702
  109OSM    C3S11220   0.665   0.570  10.262 -0.1598 -0.5078  0.3598
  109OSM    H3S11221   0.597   0.657  10.244 -1.0341 -1.0031  1.1696
  109OSM     O311222   0.630   0.481  10.367  0.2906 -0.8744 -0.1852
  109OSM    HO311223   0.693   0.509  10.433  0.7339 -2.5053  0.1156
  109OSM    C4S11224   0.690   0.494  10.139  0.5627  0.0261 -0.4968
  109OSM    H4S11225   0.783   0.435  10.135  0.0876 -0.8986  0.9646
  109OSM    C5S11226   0.613   0.506  10.030 -0.0388  0.1847 -0.2478
  109OSM    H5S11227   0.534   0.582  10.021 -1.1495 -0.8882  0.2231
  109OSM    C6S11228   0.642   0.420   9.914 -0.6043 -0.6914  1.0288
  109OSM    H6S11229   0.558   0.356   9.880  1.2086 -1.6036 -2.1217
  109OSM    H6T11230   0.735   0.362   9.930  0.3295  1.5287  4.6910
  109OSM    C7S11231   0.678   0.527   9.802  0.2596  0.0429  0.1487
  109OSM    H7S11232   0.768   0.587   9.825 -1.1418  2.0973  0.5874
  109OSM    H7T11233   0.587   0.590   9.785 -0.4249 -0.4454  1.8041
  109OSM    C8S11234   0.713   0.456   9.665  1.0274  0.0614 -0.7130
  109OSM    H8S11235   0.627   0.389   9.646  0.9861 -0.6045  1.5742
  109OSM    H8T11236   0.807   0.395   9.665  0.6016 -0.7245 -3.2021
  109OSM    C9S11237   0.698   0.547   9.544  0.5248 -0.6515 -0.0770
  109OSM    H9S11238   0.769   0.632   9.551  1.5794 -1.3667 -1.5723
  109OSM    H9T11239   0.603   0.605   9.536  0.9508  0.1161  0.3612
  109OSM   C10S11240   0.725   0.481   9.408 -0.6953  0.0366 -0.0334
  109OSM   H10S11241   0.671   0.384   9.407 -1.0867  0.2010  1.5913
  109OSM   H10T11242   0.832   0.453   9.404 -1.2204 -2.0169 -1.3634
  109OSM   C11S11243   0.691   0.555   9.273  0.0844  0.0365 -0.5596
  109OSM   H11S11244   0.765   0.635   9.252 -1.2194  1.1978 -0.8669
  109OSM   H11T11245   0.588   0.596   9.280  0.4043  0.6550  0.8975
  109OSM   C12S11246   0.696   0.450   9.156  0.1418 -0.0823  0.1719
  109OSM   H12S11247   0.614   0.377   9.171  1.5332 -2.2465 -2.0855
  109OSM   H12T11248   0.785   0.385   9.146 -0.4924 -0.6275 -2.7093
  109OSM   C13S11249   0.679   0.515   9.021  0.4103  0.8687  0.1065
  109OSM   H13S11250   0.594   0.586   9.030  0.1544  0.6019 -0.1803
  109OSM   H13T11251   0.642   0.441   8.946 -0.0736  0.3521  0.8490
  109OSM   C14S11252   0.803   0.587   8.970 -0.1567  0.5229  0.0783
  109OSM   H14S11253   0.893   0.532   9.007  1.1593  2.1679 -0.5460
  109OSM   H14T11254   0.799   0.683   9.027  0.0122  0.4773  0.1666
  109OSM   C15S11255   0.817   0.617   8.819 -0.2587  0.4496 -0.7595
  109OSM   H15S11256   0.715   0.637   8.778 -0.9637 -2.1055 -0.4392
  109OSM   H15T11257   0.850   0.524   8.767  1.9343 -0.8858  2.6792
  109OSM   C16S11258   0.905   0.741   8.781  0.6032 -0.5860 -0.1478
  109OSM   H16S11259   1.010   0.719   8.812  1.1921  2.1827  0.1178
  109OSM   H16T11260   0.864   0.831   8.831 -0.3417 -0.4270 -1.1601
  109OSM   C17S11261   0.922   0.764   8.630 -0.0591  0.5041 -0.0874
  109OSM   H17S11262   0.959   0.670   8.583  0.8355 -0.5434  2.5419
  109OSM   H17T11263   0.993   0.844   8.601  0.1742 -0.4662 -2.3682
  109OSM   C18S11264   0.790   0.812   8.569  0.0145  0.0893 -0.1494
  109OSM   H18S11265   0.771   0.914   8.610  4.4874  0.6604  1.0831
  109OSM   H18T11266   0.711   0.740   8.595  0.8788 -0.0799  2.2783
  109OSM   H18U11267   0.813   0.820   8.461  1.0607 -0.6551  0.0063
  109OSM    C1F11268   0.985   0.755  10.195  0.3820  0.1008  0.6065
  109OSM     OF11269   1.052   0.748  10.298 -0.6155  0.1910 -0.2746
  109OSM    C2F11270   1.040   0.817  10.064  0.5680  0.0035 -0.2787
  109OSM    H2F11271   1.133   0.757  10.065  1.1524  0.8753  1.3791
  109OSM    H2G11272   1.061   0.925  10.080  0.2213 -0.0097  0.2948
  109OSM    C3F11273   0.952   0.793   9.935 -0.1534  0.8311  0.0617
  109OSM    H3F11274   0.845   0.821   9.946 -0.4096 -0.8145  2.6357
  109OSM    H3G11275   0.961   0.683   9.922  0.8864  0.4671  2.9994
  109OSM    C4F11276   1.032   0.855   9.813 -0.0495  0.2078 -0.2553
  109OSM    H4F11277   1.132   0.812   9.835 -1.0960 -3.0311 -1.2310
  109OSM    H4G11278   1.026   0.965   9.827 -1.9355  0.1153 -0.1526
  109OSM    C5F11279   0.970   0.803   9.680 -0.2257 -1.0732  0.9278
  109OSM    H5F11280   0.862   0.826   9.686 -0.3386 -1.1414 -0.5647
  109OSM    H5G11281   0.980   0.693   9.680 -0.6088 -1.1093  1.4159
  109OSM    C6F11282   1.044   0.848   9.560 -0.2086 -0.6192 -0.8204
  109OSM    H6F11283   1.149   0.817   9.575  0.1159  0.5254 -0.6253
  109OSM    H6G11284   1.028   0.958   9.552 -0.9992 -0.6387  0.3369
  109OSM    C7F11285   1.002   0.780   9.429 -0.8566  0.1846 -0.5624
  109OSM    H7F11286   0.903   0.821   9.401 -1.0928 -0.3393 -0.5051
  109OSM    H7G11287   0.989   0.671   9.447 -2.6055  0.6231  1.1464
  109OSM    C8F11288   1.105   0.799   9.320  0.2305 -0.6250  0.3979
  109OSM    H8F11289   1.208   0.768   9.350  0.9366  0.5042 -0.7882
  109OSM    H8G11290   1.111   0.908   9.299  2.8952 -0.2209  2.5927
  109OSM    C9F11291   1.069   0.730   9.191 -0.1208 -0.0353 -0.2777
  109OSM    H9F11292   0.997   0.646   9.193 -1.1397  0.8183  1.5960
  109OSM   C10F11293   1.146   0.747   9.079  0.9913  0.5678  0.7926
  109OSM   H10F11294   1.114   0.695   8.987  1.7063  0.0138  0.8419
  109OSM   C11F11295   1.264   0.841   9.066 -0.8529 -0.0016 -0.2432
  109OSM   H11F11296   1.328   0.837   9.157 -0.3177  0.1703 -0.6079
  109OSM   H11G11297   1.236   0.948   9.064  1.1402  0.5771 -0.0352
  109OSM   C12F11298   1.345   0.814   8.932 -0.0063 -0.4026  0.3736
  109OSM   H12F11299   1.362   0.705   8.920  1.7953 -0.1739  0.5339
  109OSM   H12G11300   1.445   0.860   8.950  0.0879  0.1804 -1.4732
  109OSM   C13F11301   1.279   0.866   8.806 -0.5169  0.4679  1.0838
  109OSM   H13F11302   1.168   0.866   8.794 -0.6255 -1.5823  1.8216
  109OSM   H13G11303   1.320   0.799   8.728 -0.4113  2.9350 -1.1221
  109OSM   C14F11304   1.318   1.004   8.750  0.3755  0.2805 -0.0483
  109OSM   H14F11305   1.428   1.019   8.753  0.3414  0.4912  0.1197
  109OSM   H14G11306   1.271   1.083   8.812 -0.8349  0.1885 -0.8149
  109OSM   C15F11307   1.294   1.028   8.604  0.1022 -0.4627 -0.1233
  109OSM   H15F11308   1.261   1.134   8.595  1.2803 -0.0338  0.3538
  109OSM   H15G11309   1.209   0.967   8.567  1.3516 -1.4888 -1.4766
  109OSM   C16F11310   1.417   1.014   8.519  0.6501  0.1695  0.3085
  109OSM   H16F11311   1.397   0.969   8.419 -1.2518 -0.9193  1.1265
  109OSM   H16G11312   1.493   0.956   8.576 -0.5372 -0.8780  0.8736
  109OSM   C17F11313   1.491   1.149   8.494  0.3328  0.1876 -0.1342
  109OSM   H17F11314   1.501   1.190   8.597  2.6017 -1.5426  0.4137
  109OSM   H17G11315   1.425   1.215   8.432 -0.2239 -1.0834 -0.9380
  109OSM   C18F11316   1.633   1.138   8.427 -0.8282 -0.0491 -0.0599
  109OSM   H18F11317   1.671   1.236   8.391  0.8654 -0.2492  1.0926
  109OSM   H18G11318   1.634   1.072   8.337  2.2761 -0.2664  0.0552
  109OSM   H18H11319   1.711   1.097   8.493 -0.5549  2.9599  1.6540
  110OSM      N11320   1.926   0.012  10.743 -0.4084  0.5523  0.4323
  110OSM    C1511321   1.789  -0.044  10.760  0.5592  0.7076 -0.2269
  110OSM   H15A11322   1.725   0.032  10.803  1.3089  1.1191  0.1852
  110OSM   H15B11323   1.779  -0.129  10.826 -1.3957  0.5566 -0.6475
  110OSM   H15C11324   1.747  -0.061  10.662 -2.1724  0.1940  0.9304
  110OSM    C1411325   1.906   0.140  10.667  0.1634 -0.5337 -0.2011
  110OSM   H14A11326   1.991   0.206  10.667  0.3973 -0.8273 -0.6484
  110OSM   H14B11327   1.823   0.197  10.707 -0.1012 -1.3183  0.3793
  110OSM   H14C11328   1.885   0.125  10.562 -0.8670 -1.5674  0.1250
  110OSM    C1311329   1.975   0.042  10.880 -0.5464  0.5894  0.2423
  110OSM   H13A11330   2.070   0.092  10.867 -0.1775 -0.5115 -1.7571
  110OSM   H13B11331   1.997  -0.049  10.933 -0.4885 -1.0491 -2.3835
  110OSM   H13C11332   1.909   0.102  10.941 -1.4293 -1.2644  1.1820
  110OSM    C1211333   2.020  -0.080  10.669  0.4546 -0.3711 -1.0796
  110OSM   H12A11334   1.976  -0.106  10.574 -2.3186  0.2898 -0.0751
  110OSM   H12B11335   2.024  -0.170  10.729  0.7564  0.7862  0.7297
  110OSM    C1111336   2.170  -0.031  10.659 -0.4757 -0.5723 -0.0953
  110OSM   H11A11337   2.157   0.075  10.630 -2.3853 -0.0928  2.1812
  110OSM   H11B11338   2.217  -0.087  10.576  0.3321  0.9195 -0.6798
  110OSM      P11339   2.337   0.057  10.834  0.5752  0.1765 -0.0609
  110OSM    O1311340   2.294   0.127  10.954 -0.1071  0.3678  0.3268
  110OSM    O1411341   2.463  -0.023  10.846 -0.5668 -0.1438  0.4936
  110OSM    O1111342   2.355   0.167  10.725 -0.3740 -0.9518  0.1287
  110OSM    O1211343   2.227  -0.046  10.789 -0.2125 -1.0191 -0.1903
  110OSM    C1S11344   2.466   0.259  10.720  0.0174 -0.7094 -0.7518
  110OSM    H1S11345   2.553   0.237  10.787 -0.3528  1.2373  0.4526
  110OSM    H1T11346   2.435   0.354  10.768 -0.2244 -0.5545 -1.2103
  110OSM     NF11347   2.623   0.385  10.597  0.3179  0.2709  0.4934
  110OSM    HNF11348   2.601   0.469  10.548 -1.2175  0.5529  1.5934
  110OSM    C2S11349   2.526   0.281  10.584  0.0429  0.5233 -0.6230
  110OSM    H2S11350   2.589   0.192  10.563 -0.3553  0.2200 -0.5521
  110OSM    C3S11351   2.415   0.308  10.474 -0.9443 -0.2555 -0.2551
  110OSM    H3S11352   2.361   0.399  10.510  0.3298  0.8760 -1.0699
  110OSM     O311353   2.324   0.203  10.458  0.1689  0.1650  0.3103
  110OSM    HO311354   2.300   0.168  10.544  0.2067 -0.3550  0.1123
  110OSM    C4S11355   2.486   0.331  10.343 -0.1735  0.1406  0.1892
  110OSM    H4S11356   2.536   0.242  10.301 -0.7285  0.1550 -0.5397
  110OSM    C5S11357   2.482   0.449  10.276  0.0497  0.7255 -0.0710
  110OSM    H5S11358   2.418   0.525  10.323  0.4857  1.8546 -1.2370
  110OSM    C6S11359   2.555   0.486  10.144  0.4402 -0.3401 -0.5801
  110OSM    H6S11360   2.606   0.395  10.106 -1.4705 -1.7908  0.1711
  110OSM    H6T11361   2.630   0.562  10.174  1.4243 -0.3057 -2.8996
  110OSM    C7S11362   2.467   0.537  10.022  0.0263 -0.2840 -0.1239
  110OSM    H7S11363   2.398   0.607  10.074 -2.9081 -1.8441 -1.6414
  110OSM    H7T11364   2.395   0.459   9.988 -1.2485  0.1774  1.3736
  110OSM    C8S11365   2.542   0.599   9.904  0.3626 -0.1476 -0.2000
  110OSM    H8S11366   2.619   0.529   9.866  1.3024  0.6916  0.0982
  110OSM    H8T11367   2.595   0.691   9.939 -1.4083  0.5424  0.8037
  110OSM    C9S11368   2.448   0.641   9.793 -0.2569 -0.4201  0.5077
  110OSM    H9S11369   2.392   0.735   9.813 -0.7505 -1.1459  2.8595
  110OSM    H9T11370   2.367   0.565   9.782 -1.0867  0.3874  0.8939
  110OSM   C10S11371   2.530   0.666   9.661  0.3191 -0.3654  0.2803
  110OSM   H10S11372   2.579   0.569   9.640 -0.4317 -0.6562 -0.1732
  110OSM   H10T11373   2.604   0.749   9.670 -0.8536  0.6971  0.5074
  110OSM   C11S11374   2.430   0.691   9.545  0.3126 -0.3609 -0.1221
  110OSM   H11S11375   2.352   0.756   9.589 -0.5406 -0.4960 -1.3843
  110OSM   H11T11376   2.380   0.594   9.525  0.6618 -0.8135  1.0552
  110OSM   C12S11377   2.502   0.754   9.425 -0.4562 -0.5988 -0.1523
  110OSM   H12S11378   2.559   0.841   9.464  0.6754 -0.8821 -1.1289
  110OSM   H12T11379   2.429   0.800   9.355 -0.2598  2.8726  1.6875
  110OSM   C13S11380   2.601   0.665   9.358  0.0212  0.0491  0.6815
  110OSM   H13S11381   2.544   0.594   9.294  1.7834 -0.5950 -0.2388
  110OSM   H13T11382   2.652   0.596   9.429 -0.7718 -0.7145  0.5313
  110OSM   C14S11383   2.712   0.737   9.275  0.2604 -0.6146 -0.2931
  110OSM   H14S11384   2.781   0.660   9.234  0.9322  0.8976 -2.1106
  110OSM   H14T11385   2.761   0.817   9.334  1.3636 -0.9213 -0.7755
  110OSM   C15S11386   2.650   0.811   9.151 -0.4094 -0.0312 -0.4351
  110OSM   H15S11387   2.587   0.901   9.169 -0.7980  0.2517 -2.9046
  110OSM   H15T11388   2.572   0.740   9.118 -0.1680 -0.0958 -0.8773
  110OSM   C16S11389   2.736   0.828   9.025 -0.6008 -0.5780 -0.2230
  110OSM   H16S11390   2.836   0.866   9.057 -0.1172 -1.6135 -0.4572
  110OSM   H16T11391   2.689   0.894   8.950  0.6944  1.4542  0.6553
  110OSM   C17S11392   2.765   0.687   8.962 -0.2177 -0.2426  0.1228
  110OSM   H17S11393   2.670   0.643   8.925  0.4959 -0.6269 -1.3381
  110OSM   H17T11394   2.809   0.623   9.041  1.8330 -0.2104 -0.9337
  110OSM   C18S11395   2.855   0.705   8.841 -0.1630 -0.0805 -1.1621
  110OSM   H18S11396   2.909   0.616   8.803 -1.0904 -0.8110 -0.7899
  110OSM   H18T11397   2.925   0.791   8.843  0.8767 -0.9059  1.4489
  110OSM   H18U11398   2.798   0.720   8.747  1.3031  2.6331 -1.7446
  110OSM    C1F11399   2.740   0.383  10.669 -1.1148  0.5250  0.6066
  110OSM     OF11400   2.793   0.281  10.706  0.1672 -0.2683 -0.2723
  110OSM    C2F11401   2.809   0.517  10.694 -0.5939 -0.1353  0.0059
  110OSM    H2F11402   2.814   0.546  10.801  1.7573  0.3531 -0.1868
  110OSM    H2G11403   2.752   0.602  10.650  1.8742  1.9849  0.7103
  110OSM    C3F11404   2.959   0.522  10.652  0.5799  0.7483 -0.3899
  110OSM    H3F11405   3.006   0.447  10.718 -1.4946  1.5507  2.1607
  110OSM    H3G11406   2.999   0.624  10.668  2.3391 -0.3533  2.9644
  110OSM    C4F11407   2.985   0.482  10.505  0.3484  0.7274  0.2227
  110OSM    H4F11408   2.966   0.373  10.499  0.2620  0.6526  1.6199
  110OSM    H4G11409   3.094   0.496  10.488  0.3302  1.2271  0.4875
  110OSM    C5F11410   2.900   0.551  10.397 -0.3703 -1.0249  0.0886
  110OSM    H5F11411   2.914   0.661  10.402 -0.8153 -0.9721  0.2258
  110OSM    H5G11412   2.791   0.531  10.400 -0.7426  0.8772  0.8528
  110OSM    C6F11413   2.946   0.515  10.255 -0.3728 -0.2195 -0.0393
  110OSM    H6F11414   2.878   0.434  10.220 -1.4235  0.1431  1.1031
  110OSM    H6G11415   3.048   0.473  10.268  0.0150  1.0921  1.3282
  110OSM    C7F11416   2.953   0.634  10.158  0.0788 -0.9493  0.3376
  110OSM    H7F11417   3.047   0.693  10.171  0.1965 -0.9097 -0.6113
  110OSM    H7G11418   2.872   0.708  10.174  1.4913  1.0437 -1.2303
  110OSM    C8F11419   2.952   0.604  10.008  0.9769 -0.4895  0.2019
  110OSM    H8F11420   2.879   0.521  10.001 -0.2444  0.4909  0.8864
  110OSM    H8G11421   3.053   0.563   9.984  1.1753  0.9924 -1.6497
  110OSM    C9F11422   2.915   0.722   9.917  0.5386  0.3737  0.3945
  110OSM    H9F11423   2.908   0.821   9.965 -2.3140  0.9326 -0.9361
  110OSM   C10F11424   2.885   0.727   9.785  0.2835 -0.0875 -0.5293
  110OSM   H10F11425   2.857   0.823   9.739  0.1841  0.0551 -0.1662
  110OSM   C11F11426   2.890   0.614   9.678 -0.6838 -0.2413 -0.0400
  110OSM   H11F11427   2.788   0.583   9.645 -1.2805 -0.7216  2.0624
  110OSM   H11G11428   2.937   0.524   9.723  0.4436  0.2042 -0.3055
  110OSM   C12F11429   2.979   0.646   9.554 -0.3125 -0.1401 -0.4068
  110OSM   H12F11430   3.083   0.664   9.589 -0.6953  0.7192  0.3132
  110OSM   H12G11431   2.930   0.736   9.511 -0.0468  1.2631  2.0380
  110OSM   C13F11432   2.980   0.538   9.443  0.1907 -0.5237  0.0757
  110OSM   H13F11433   2.878   0.511   9.410  0.0388 -2.2654  1.8152
  110OSM   H13G11434   3.029   0.449   9.487  0.2729 -0.3450  0.3488
  110OSM   C14F11435   3.050   0.594   9.321 -0.7139 -0.8312  0.3534
  110OSM   H14F11436   3.153   0.625   9.349 -1.1823 -0.1646  1.4016
  110OSM   H14G11437   2.998   0.681   9.277 -0.7452 -0.8246  0.4025
  110OSM   C15F11438   3.081   0.481   9.216 -0.4161 -0.6477 -0.3104
  110OSM   H15F11439   2.986   0.426   9.194 -1.2877 -0.3646  2.3646
  110OSM   H15G11440   3.156   0.409   9.255  0.2744 -0.2885 -0.9434
  110OSM   C16F11441   3.133   0.542   9.081  0.0367  0.3880 -0.5243
  110OSM   H16F11442   3.231   0.590   9.101  0.4151 -0.1577 -1.0525
  110OSM   H16G11443   3.067   0.620   9.036 -1.2638  0.2180  1.0013
  110OSM   C17F11444   3.148   0.438   8.973 -0.1277 -0.6159  1.1488
  110OSM   H17F11445   3.051   0.430   8.920  0.6910  0.5563 -0.6087
  110OSM   H17G11446   3.147   0.333   9.009 -1.3264 -0.9215  0.2659
  110OSM   C18F11447   3.257   0.459   8.870 -0.2981 -0.3587  0.3086
  110OSM   H18F11448   3.246   0.407   8.772  2.0704  2.0367 -1.3746
  110OSM   H18G11449   3.358   0.435   8.909 -0.7650 -0.5280  1.4737
  110OSM   H18H11450   3.271   0.565   8.841 -0.4764  0.7633  3.8715
  111OSM      N11451   2.987   4.347  11.163  0.3552  0.2266  0.1578
  111OSM    C1511452   2.978   4.423  11.285  0.2034  0.1093  0.1923
  111OSM   H15A11453   2.981   4.368  11.378  0.7030  0.3366  0.3138
  111OSM   H15B11454   2.879   4.467  11.291  0.4245  0.9680 -1.8832
  111OSM   H15C11455   3.051   4.502  11.295 -1.3691  1.3960  2.5805
  111OSM    C1411456   3.128   4.296  11.157  0.4982  0.4782  1.1406
  111OSM   H14A11457   3.200   4.372  11.132  0.7775  0.4486  1.8287
  111OSM   H14B11458   3.152   4.226  11.077  0.9198  0.3288  1.3928
  111OSM   H14C11459   3.169   4.266  11.252  2.1102  4.1261  1.7424
  111OSM    C1311460   2.895   4.230  11.161  0.8373  0.0723  0.5202
  111OSM   H13A11461   2.894   4.189  11.061 -1.3853  0.8353  0.1714
  111OSM   H13B11462   2.793   4.261  11.178  1.1230  0.1036  2.3543
  111OSM   H13C11463   2.913   4.155  11.237 -1.9958 -0.5659  0.6768
  111OSM    C1211464   2.966   4.428  11.031 -0.7383 -0.6130  0.1417
  111OSM   H12A11465   3.045   4.501  11.035  0.3001 -1.7130  0.2791
  111OSM   H12B11466   2.881   4.493  11.040  0.8260  1.3691  1.3456
  111OSM    C1111467   2.968   4.356  10.888 -0.1466 -0.1955  0.2495
  111OSM   H11A11468   3.060   4.299  10.867 -0.6986 -1.3110  0.7627
  111OSM   H11B11469   2.978   4.438  10.813  3.0325  0.5043  1.2956
  111OSM      P11470   2.711   4.329  10.823 -0.5154  0.1892  0.3266
  111OSM    O1311471   2.618   4.214  10.811  0.3500 -0.3990  0.1343
  111OSM    O1411472   2.675   4.444  10.910 -0.1378 -0.1661  0.1388
  111OSM    O1111473   2.755   4.390  10.686  0.5789 -0.4326 -0.5513
  111OSM    O1211474   2.853   4.275  10.870  0.0568  0.3707 -0.4509
  111OSM    C1S11475   2.820   4.308  10.588  0.8781  0.4309 -0.1545
  111OSM    H1S11476   2.785   4.204  10.607 -0.1983  1.0041  1.1575
  111OSM    H1T11477   2.930   4.322  10.596  1.1170 -1.2116 -0.2024
  111OSM     NF11478   2.778   4.243  10.352 -0.5290  0.1083 -0.4592
  111OSM    HNF11479   2.847   4.249  10.279  0.3139 -3.1960 -0.0838
  111OSM    C2S11480   2.764   4.347  10.443  0.3960 -0.0465 -0.3130
  111OSM    H2S11481   2.655   4.371  10.449  0.2626 -0.8905  1.0204
  111OSM    C3S11482   2.830   4.480  10.399  0.6097 -0.4818  0.0186
  111OSM    H3S11483   2.933   4.457  10.363  0.2115  0.0433 -1.5547
  111OSM     O311484   2.828   4.577  10.501 -0.0547 -0.6174  0.1458
  111OSM    HO311485   2.803   4.522  10.575 -1.3435  1.1054  1.0618
  111OSM    C4S11486   2.756   4.531  10.275 -0.0795 -0.2689  0.2061
  111OSM    H4S11487   2.646   4.531  10.282 -0.1486  3.7022  2.0166
  111OSM    C5S11488   2.821   4.578  10.158  0.2906  0.3147  0.2602
  111OSM    H5S11489   2.931   4.585  10.153  0.2021  0.8098 -1.8996
  111OSM    C6S11490   2.755   4.622  10.034 -0.2846  0.1386 -0.1740
  111OSM    H6S11491   2.767   4.730  10.013 -0.0600 -0.3000 -2.6276
  111OSM    H6T11492   2.645   4.605  10.046 -0.3764 -1.1466 -2.2241
  111OSM    C7S11493   2.809   4.542   9.908  0.0155 -0.5924  0.2092
  111OSM    H7S11494   2.737   4.574   9.830  1.0917  0.3556 -0.4214
  111OSM    H7T11495   2.810   4.431   9.912  2.1449 -0.7546 -2.2071
  111OSM    C8S11496   2.952   4.591   9.864 -0.2096  0.4238  1.1527
  111OSM    H8S11497   3.029   4.528   9.914  1.4878  2.0581  0.7078
  111OSM    H8T11498   2.961   4.697   9.897 -2.0513  1.2278 -0.7228
  111OSM    C9S11499   2.977   4.588   9.716  0.1094  0.4312 -0.3310
  111OSM    H9S11500   3.079   4.628   9.698 -0.1857  0.9168 -0.9382
  111OSM    H9T11501   2.911   4.665   9.670 -2.8669 -0.3402  2.2626
  111OSM   C10S11502   2.953   4.448   9.659 -0.2807  0.2238 -0.3962
  111OSM   H10S11503   2.849   4.410   9.671 -0.1266 -0.0293  0.1570
  111OSM   H10T11504   3.005   4.388   9.737 -2.2737 -0.9773  0.1055
  111OSM   C11S11505   3.019   4.445   9.525 -0.1363  0.4143 -0.3551
  111OSM   H11S11506   3.121   4.483   9.547 -0.0091  0.3164 -0.7809
  111OSM   H11T11507   2.964   4.520   9.465  0.4216  1.4608  0.4057
  111OSM   C12S11508   3.034   4.305   9.453  0.0080  0.5208  0.5759
  111OSM   H12S11509   3.051   4.207   9.502  0.8782  0.4138  0.0742
  111OSM   H12T11510   3.122   4.311   9.386  0.6043 -0.8176  1.2128
  111OSM   C13S11511   2.908   4.297   9.373 -0.0143  0.1096 -1.2768
  111OSM   H13S11512   2.911   4.367   9.287  2.7648  1.3511 -0.3147
  111OSM   H13T11513   2.819   4.334   9.429 -0.0849  0.3905 -1.5687
  111OSM   C14S11514   2.877   4.154   9.328  0.6382  1.0167 -0.1864
  111OSM   H14S11515   2.776   4.158   9.282 -0.1734 -1.5932  1.1467
  111OSM   H14T11516   2.887   4.089   9.418  0.8861 -1.7608 -2.0981
  111OSM   C15S11517   2.972   4.103   9.221 -0.5280 -0.1944  0.6525
  111OSM   H15S11518   3.078   4.123   9.249  0.8864 -1.1684 -3.3146
  111OSM   H15T11519   2.958   4.171   9.135 -0.2885  1.2203  1.6961
  111OSM   C16S11520   2.945   3.959   9.173 -0.0299 -0.0581  0.0664
  111OSM   H16S11521   2.953   3.883   9.253  0.1081  0.0176  0.1244
  111OSM   H16T11522   3.013   3.921   9.094 -1.7104 -0.5485 -1.1972
  111OSM   C17S11523   2.799   3.942   9.125  0.4097 -0.5905  0.3348
  111OSM   H17S11524   2.785   4.007   9.036  1.0742 -1.6564 -0.5856
  111OSM   H17T11525   2.733   3.974   9.208 -1.4134 -2.2225 -0.4217
  111OSM   C18S11526   2.770   3.807   9.073 -0.1569 -0.3295  0.0863
  111OSM   H18S11527   2.778   3.726   9.147 -0.6185  0.2039  0.7351
  111OSM   H18T11528   2.835   3.800   8.983  0.4619  3.5932  0.0288
  111OSM   H18U11529   2.666   3.807   9.033 -0.0566 -2.5556 -0.2961
  111OSM    C1F11530   2.707   4.126  10.364 -0.3215  0.0788 -0.0255
  111OSM     OF11531   2.603   4.109  10.433 -0.7341  0.1305 -0.4541
  111OSM    C2F11532   2.764   4.008  10.290 -0.3368  0.2245  0.2699
  111OSM    H2F11533   2.769   3.924  10.363 -1.3621  0.8329  1.0698
  111OSM    H2G11534   2.867   4.032  10.257  0.7283  0.4887  3.4307
  111OSM    C3F11535   2.680   3.964  10.165  0.1701 -0.1421  0.0325
  111OSM    H3F11536   2.576   3.933  10.192  0.1212 -1.6395 -1.7218
  111OSM    H3G11537   2.728   3.872  10.126  1.1930 -0.1970  1.3600
  111OSM    C4F11538   2.666   4.070  10.053  1.0904 -0.4766  0.2511
  111OSM    H4F11539   2.650   4.164  10.111  1.8207 -0.2307  0.0584
  111OSM    H4G11540   2.570   4.046  10.002  0.3206 -0.0630  1.4585
  111OSM    C5F11541   2.776   4.094   9.950  0.2253  0.1290  0.3178
  111OSM    H5F11542   2.854   4.150  10.006 -0.4724 -1.2603  2.8671
  111OSM    H5G11543   2.740   4.172   9.880  1.1564  0.0963 -0.2137
  111OSM    C6F11544   2.821   3.978   9.866 -0.4694 -0.5583  0.0838
  111OSM    H6F11545   2.837   3.887   9.928 -1.3769 -0.3124  0.6931
  111OSM    H6G11546   2.909   4.018   9.812 -0.6150  1.8362  1.5169
  111OSM    C7F11547   2.716   3.939   9.762 -0.0619  0.1650  0.4633
  111OSM    H7F11548   2.706   4.025   9.691  3.5122  0.7779  0.5324
  111OSM    H7G11549   2.611   3.932   9.798  0.5447  0.4700  2.4009
  111OSM    C8F11550   2.747   3.802   9.700  0.3662 -0.5366  0.0698
  111OSM    H8F11551   2.649   3.754   9.679 -0.2273  0.7042 -0.0888
  111OSM    H8G11552   2.800   3.749   9.782  0.3039 -1.0137 -0.1934
  111OSM    C9F11553   2.843   3.800   9.592 -0.0458  0.2152  0.4612
  111OSM    H9F11554   2.939   3.852   9.606  0.7433 -1.1489  0.3128
  111OSM   C10F11555   2.822   3.749   9.469 -0.1428 -0.3973  0.3683
  111OSM   H10F11556   2.906   3.755   9.398 -1.4549  0.5847 -1.1695
  111OSM   C11F11557   2.690   3.689   9.417 -1.2966  0.4972 -0.0770
  111OSM   H11F11558   2.655   3.606   9.481 -3.4382 -1.5561 -3.5722
  111OSM   H11G11559   2.722   3.639   9.323 -0.6343 -0.5977  0.7134
  111OSM   C12F11560   2.568   3.778   9.394 -0.2012 -0.0784 -0.7269
  111OSM   H12F11561   2.571   3.838   9.301  0.1052 -1.5092 -1.6688
  111OSM   H12G11562   2.565   3.848   9.480 -0.4798 -0.6198 -0.2903
  111OSM   C13F11563   2.447   3.695   9.416 -0.8223 -0.4014 -0.3865
  111OSM   H13F11564   2.366   3.766   9.444  1.4502  1.9389  0.7114
  111OSM   H13G11565   2.461   3.629   9.504  0.7468  2.2912  1.5339
  111OSM   C14F11566   2.398   3.613   9.299  0.6425  0.0340  0.6901
  111OSM   H14F11567   2.310   3.551   9.324  0.4321 -0.6259 -1.4396
  111OSM   H14G11568   2.470   3.541   9.256 -0.1323 -0.7309  0.6470
  111OSM   C15F11569   2.352   3.699   9.183 -0.0620  0.3772 -0.4759
  111OSM   H15F11570   2.439   3.751   9.135 -2.3574  2.7033 -2.4263
  111OSM   H15G11571   2.294   3.786   9.220  0.5124  0.1798  0.9903
  111OSM   C16F11572   2.276   3.615   9.079 -0.6683 -0.7571  0.3532
  111OSM   H16F11573   2.246   3.679   8.993  0.1644  0.2717  0.8038
  111OSM   H16G11574   2.186   3.567   9.123 -0.5231 -1.6019 -0.2521
  111OSM   C17F11575   2.378   3.519   9.009 -0.1080  0.1229 -0.4821
  111OSM   H17F11576   2.413   3.444   9.083 -0.6106  0.7478  0.4126
  111OSM   H17G11577   2.464   3.585   8.986 -0.4949  0.5895 -0.5971
  111OSM   C18F11578   2.334   3.456   8.878 -0.1427  0.4011 -0.0550
  111OSM   H18F11579   2.416   3.393   8.837  0.3517  0.0048  1.4768
  111OSM   H18G11580   2.308   3.527   8.796  2.7405  1.2766 -0.3020
  111OSM   H18H11581   2.252   3.381   8.886 -0.8229  0.4976 -3.9655
  112OSM      N11582   4.924   1.032  11.405 -0.3890  0.0288  0.3734
  112OSM    C1511583   4.967   0.905  11.461 -0.1836  0.0105 -0.4860
  112OSM   H15A11584   4.893   0.826  11.466  1.0256 -1.1220  0.1948
  112OSM   H15B11585   4.999   0.919  11.563  2.4295 -2.0665 -0.9089
  112OSM   H15C11586   5.048   0.858  11.407  1.2082 -0.2262  1.6833
  112OSM    C1411587   4.804   1.078  11.483  0.3172  0.1135  0.6106
  112OSM   H14A11588   4.804   1.078  11.591 -0.1679 -1.2703  0.6253
  112OSM   H14B11589   4.721   1.019  11.448 -0.1439 -0.1213  2.0298
  112OSM   H14C11590   4.786   1.181  11.458  2.6965  0.4752  0.1194
  112OSM    C1311591   5.027   1.138  11.415  0.5347 -0.9270 -0.5363
  112OSM   H13A11592   5.042   1.159  11.520 -3.3850  0.5645 -0.0982
  112OSM   H13B11593   4.992   1.222  11.357 -1.3309 -2.5268 -1.8735
  112OSM   H13C11594   5.120   1.101  11.373  0.4874 -1.4995 -0.1389
  112OSM    C1211595   4.894   1.009  11.258 -0.1120  0.4752  0.7204
  112OSM   H12A11596   4.795   0.966  11.256  0.2424 -0.3357 -0.2080
  112OSM   H12B11597   4.963   0.938  11.215  0.6167  2.2302 -1.1493
  112OSM    C1111598   4.874   1.133  11.161  0.1686  0.1837  0.0499
  112OSM   H11A11599   4.846   1.096  11.060  0.3377  0.2594 -0.0256
  112OSM   H11B11600   4.968   1.192  11.162  1.5683 -1.9143 -0.5511
  112OSM      P11601   4.712   1.341  11.136  0.2078  0.4423  0.2136
  112OSM    O1311602   4.594   1.379  11.214  0.2050  0.4420  0.2295
  112OSM    O1411603   4.822   1.443  11.135  0.4024 -0.2477  0.6100
  112OSM    O1111604   4.674   1.273  11.000  0.6375 -0.0044  0.4575
  112OSM    O1211605   4.764   1.220  11.217  0.0667  0.6545  0.7525
  112OSM    C1S11606   4.612   1.345  10.891  0.2987 -0.3267 -0.0754
  112OSM    H1S11607   4.678   1.421  10.843 -0.4192 -0.5663 -1.5028
  112OSM    H1T11608   4.526   1.408  10.922  2.1902  2.4658 -0.1534
  112OSM     NF11609   4.535   1.321  10.650  0.1546 -0.6632  0.5180
  112OSM    HNF11610   4.447   1.326  10.604 -0.3519 -0.2935  1.5113
  112OSM    C2S11611   4.561   1.253  10.777  0.4845 -0.2386 -0.0710
  112OSM    H2S11612   4.643   1.186  10.744  1.0474 -0.1955  1.2176
  112OSM    C3S11613   4.433   1.171  10.819 -0.2879 -1.0945  0.1320
  112OSM    H3S11614   4.346   1.236  10.845  0.2597 -0.5734  0.6605
  112OSM     O311615   4.448   1.105  10.939 -0.1721 -0.3262 -0.2281
  112OSM    HO311616   4.530   1.142  10.972 -0.7761  1.7029 -0.8498
  112OSM    C4S11617   4.378   1.083  10.717  0.3569  0.3995 -0.0971
  112OSM    H4S11618   4.309   1.137  10.651 -1.6205  0.1822  1.6634
  112OSM    C5S11619   4.416   0.955  10.686 -0.2433 -0.1472  0.3511
  112OSM    H5S11620   4.496   0.910  10.745  0.4723  1.1177  0.3766
  112OSM    C6S11621   4.349   0.874  10.579  0.2950  0.7414  0.4532
  112OSM    H6S11622   4.269   0.816  10.629 -0.8937 -0.8785 -2.9813
  112OSM    H6T11623   4.428   0.801  10.552 -1.9540 -1.6724  0.0181
  112OSM    C7S11624   4.275   0.934  10.457 -0.4937  0.0060  0.3078
  112OSM    H7S11625   4.343   1.005  10.405 -1.7723  0.0433 -1.4060
  112OSM    H7T11626   4.177   0.979  10.483  0.5999  2.3737  0.6848
  112OSM    C8S11627   4.235   0.824  10.358  0.1880  0.6740  1.0638
  112OSM    H8S11628   4.151   0.761  10.393  0.6246 -0.1536  0.6312
  112OSM    H8T11629   4.327   0.765  10.345 -0.5097 -0.1368 -0.4529
  112OSM    C9S11630   4.210   0.882  10.218  0.6010  0.5266 -0.1269
  112OSM    H9S11631   4.208   0.798  10.146  0.1868 -0.3885  0.9202
  112OSM    H9T11632   4.297   0.946  10.192 -0.5037  1.6635 -1.1663
  112OSM   C10S11633   4.081   0.970  10.205  0.2031  0.1042 -0.2234
  112OSM   H10S11634   4.087   1.076  10.240  0.7019  0.4371 -1.2962
  112OSM   H10T11635   4.005   0.920  10.269 -0.7976 -0.9569 -2.1558
  112OSM   C11S11636   4.029   0.974  10.059  0.0194 -0.4975  0.1840
  112OSM   H11S11637   3.953   1.053  10.040 -0.2174 -1.0012 -1.0225
  112OSM   H11T11638   3.985   0.876  10.032 -0.7068  0.0113 -0.5345
  112OSM   C12S11639   4.134   0.994   9.954 -0.0271 -0.5031  0.4894
  112OSM   H12S11640   4.209   0.911   9.956  0.2281 -0.2968 -0.2181
  112OSM   H12T11641   4.190   1.088   9.975  0.4736 -0.4027 -1.1614
  112OSM   C13S11642   4.070   1.002   9.814  0.2001  0.1195  0.9265
  112OSM   H13S11643   4.035   1.107   9.802  0.7762  0.1727 -0.5102
  112OSM   H13T11644   3.984   0.933   9.800 -0.5375  1.5063 -2.1310
  112OSM   C14S11645   4.163   0.967   9.696  0.5274  0.0464  0.7134
  112OSM   H14S11646   4.102   0.952   9.605  0.6450  0.4078  0.5747
  112OSM   H14T11647   4.219   0.873   9.718  0.1715 -1.0317 -2.5002
  112OSM   C15S11648   4.253   1.087   9.649  0.1795  0.3508  0.1165
  112OSM   H15S11649   4.307   1.050   9.559 -0.1936  0.2381 -0.0616
  112OSM   H15T11650   4.332   1.107   9.725  1.5944  0.6198 -1.3800
  112OSM   C16S11651   4.176   1.215   9.607  0.3292 -0.3023 -0.0614
  112OSM   H16S11652   4.187   1.278   9.699 -2.2221  2.5188 -1.5036
  112OSM   H16T11653   4.071   1.194   9.579  0.6006  0.6070 -1.8903
  112OSM   C17S11654   4.242   1.289   9.494 -0.7027 -0.6775  0.3478
  112OSM   H17S11655   4.353   1.285   9.490 -0.6805  0.4614 -2.9753
  112OSM   H17T11656   4.233   1.397   9.516  1.2638  0.3894 -3.2157
  112OSM   C18S11657   4.184   1.262   9.353 -0.2893 -0.1653  0.0045
  112OSM   H18S11658   4.202   1.157   9.322 -0.2297 -0.0369 -0.3931
  112OSM   H18T11659   4.242   1.330   9.287  1.1276 -1.1169  0.2183
  112OSM   H18U11660   4.076   1.283   9.344 -0.3891 -1.1242 -1.2677
  112OSM    C1F11661   4.631   1.370  10.580 -0.1042 -0.5615  0.1918
  112OSM     OF11662   4.742   1.408  10.619 -0.3170  0.3945  0.6606
  112OSM    C2F11663   4.592   1.401  10.438  0.6627  0.1238 -0.7290
  112OSM    H2F11664   4.521   1.486  10.448 -1.9237 -1.9965  0.0329
  112OSM    H2G11665   4.534   1.311  10.408 -1.6679  0.7618  1.5308
  112OSM    C3F11666   4.709   1.431  10.342 -0.8525  0.0369  0.6596
  112OSM    H3F11667   4.790   1.355  10.355 -1.5205 -1.0929 -1.3100
  112OSM    H3G11668   4.747   1.533  10.359 -0.9094 -0.3119  3.1497
  112OSM    C4F11669   4.668   1.430  10.191 -0.3728 -0.2413 -0.0410
  112OSM    H4F11670   4.572   1.485  10.180 -0.1951  0.3750  1.2725
  112OSM    H4G11671   4.646   1.324  10.166 -1.8935 -0.4478  1.9336
  112OSM    C5F11672   4.764   1.498  10.092  0.0813  0.1224 -0.0582
  112OSM    H5F11673   4.858   1.440  10.098 -0.9866 -1.5891  1.9161
  112OSM    H5G11674   4.786   1.606  10.100  1.4211 -0.1992  0.9827
  112OSM    C6F11675   4.726   1.470   9.947  0.0038 -0.1870  0.3511
  112OSM    H6F11676   4.623   1.496   9.915 -0.4521 -0.2911  1.6587
  112OSM    H6G11677   4.743   1.360   9.937  0.2413 -0.2041  0.8673
  112OSM    C7F11678   4.832   1.517   9.845 -0.2451 -0.5847  0.1613
  112OSM    H7F11679   4.825   1.454   9.754 -1.0440 -0.1740 -0.0711
  112OSM    H7G11680   4.937   1.525   9.882 -1.3111  2.0726  3.0114
  112OSM    C8F11681   4.797   1.665   9.800  0.0302  0.2337 -0.0202
  112OSM    H8F11682   4.788   1.728   9.890  1.4151 -1.1095  1.1033
  112OSM    H8G11683   4.698   1.672   9.750  0.2072  2.3390 -0.1576
  112OSM    C9F11684   4.896   1.718   9.704  0.0273 -0.7372 -0.3191
  112OSM    H9F11685   5.000   1.707   9.736 -0.0194  0.8483  0.4703
  112OSM   C10F11686   4.881   1.780   9.590  0.2304  1.0781 -0.2258
  112OSM   H10F11687   4.971   1.805   9.532  0.5848 -1.5708 -0.9584
  112OSM   C11F11688   4.752   1.804   9.515  0.0291  0.1306 -0.7838
  112OSM   H11F11689   4.732   1.907   9.479 -2.2204 -0.5907 -1.7550
  112OSM   H11G11690   4.670   1.793   9.589  0.4826  1.0677 -0.1050
  112OSM   C12F11691   4.731   1.717   9.396 -0.2620  0.1215  0.3369
  112OSM   H12F11692   4.627   1.724   9.357  0.2705  0.1596 -1.1772
  112OSM   H12G11693   4.744   1.612   9.427 -2.1014 -0.4645 -0.6951
  112OSM   C13F11694   4.818   1.764   9.277  0.0556  1.0041 -0.0287
  112OSM   H13F11695   4.925   1.774   9.306  0.1521  2.9344 -0.8886
  112OSM   H13G11696   4.781   1.856   9.227 -1.4464 -0.9305 -2.7190
  112OSM   C14F11697   4.804   1.662   9.159 -0.2806 -0.5553  0.1555
  112OSM   H14F11698   4.697   1.657   9.127 -1.0155  0.4422  2.2411
  112OSM   H14G11699   4.853   1.568   9.190  0.8576 -1.5287 -4.0090
  112OSM   C15F11700   4.896   1.725   9.050 -0.2660  0.6729  0.1458
  112OSM   H15F11701   4.999   1.753   9.080  0.6961 -2.4636  0.0974
  112OSM   H15G11702   4.840   1.815   9.019  0.2449  1.0316  0.2499
  112OSM   C16F11703   4.912   1.625   8.932  0.4618  1.0776  0.1929
  112OSM   H16F11704   4.815   1.626   8.878  1.5622  0.0060 -1.8943
  112OSM   H16G11705   4.940   1.520   8.956  0.4854  0.8388 -0.8494
  112OSM   C17F11706   5.008   1.681   8.834  0.0142 -0.7194 -0.2168
  112OSM   H17F11707   5.107   1.650   8.873 -1.1586 -1.2858  2.5266
  112OSM   H17G11708   5.010   1.791   8.820  0.7054 -0.6748  0.2155
  112OSM   C18F11709   4.988   1.632   8.693 -0.0964 -0.4222  0.7827
  112OSM   H18F11710   4.881   1.623   8.665  0.6135 -3.1961 -1.5581
  112OSM   H18G11711   5.030   1.531   8.670 -0.9530 -0.3873 -1.1436
  112OSM   H18H11712   5.034   1.702   8.620  0.2790 -0.1938  1.2325
  113OSM      N11713   1.373   3.549  11.297 -0.3775 -0.9667  0.6807
  113OSM    C1511714   1.440   3.455  11.389 -0.7980 -0.3022  0.1865
  113OSM   H15A11715   1.503   3.393  11.327 -1.8127 -0.3710 -0.8131
  113OSM   H15B11716   1.372   3.383  11.431  0.3442 -0.3617  2.0632
  113OSM   H15C11717   1.502   3.497  11.467 -0.2344 -3.2288  1.4368
  113OSM    C1411718   1.288   3.469  11.207  0.3238 -0.3090  0.3806
  113OSM   H14A11719   1.352   3.394  11.162 -1.0645 -0.8264 -0.8070
  113OSM   H14B11720   1.230   3.518  11.130 -0.1109  0.9624  1.4779
  113OSM   H14C11721   1.208   3.421  11.262 -0.0432  0.9094  0.9391
  113OSM    C1311722   1.285   3.647  11.361  0.3208  0.1014 -0.5024
  113OSM   H13A11723   1.334   3.691  11.447 -2.3000  0.8769  0.7086
  113OSM   H13B11724   1.208   3.604  11.423  1.0060  1.6262  1.5052
  113OSM   H13C11725   1.244   3.724  11.297 -0.1519  0.2084 -0.0843
  113OSM    C1211726   1.479   3.617  11.219 -0.0148  0.4691  0.7186
  113OSM   H12A11727   1.558   3.556  11.177  0.3593 -0.1153  2.2205
  113OSM   H12B11728   1.543   3.678  11.280  2.3487 -1.0576 -0.1014
  113OSM    C1111729   1.429   3.711  11.107 -0.6750 -0.2111 -0.2326
  113OSM   H11A11730   1.380   3.648  11.029  1.2166 -3.4858  1.0023
  113OSM   H11B11731   1.519   3.760  11.063  0.7042 -2.9459 -0.6979
  113OSM      P11732   1.356   3.959  11.183 -0.0628  0.4617 -0.1523
  113OSM    O1311733   1.225   4.022  11.210 -0.2540  0.3244 -0.1469
  113OSM    O1411734   1.448   3.971  11.294  0.2186 -0.0502  0.7933
  113OSM    O1111735   1.421   4.010  11.053  0.4200 -0.3004  0.3221
  113OSM    O1211736   1.334   3.808  11.150  0.2715  0.3744 -0.2839
  113OSM    C1S11737   1.358   3.966  10.929  0.7357  0.2931  0.3056
  113OSM    H1S11738   1.249   3.989  10.930  0.8589  0.8885  1.3676
  113OSM    H1T11739   1.378   3.857  10.915  1.4318  0.5183 -0.5484
  113OSM     NF11740   1.333   4.010  10.680 -0.2953  0.6338 -0.6053
  113OSM    HNF11741   1.334   3.922  10.634  0.6305  0.7777 -0.8729
  113OSM    C2S11742   1.419   4.024  10.800  0.1051 -0.0642  0.6475
  113OSM    H2S11743   1.433   4.133  10.819 -1.7953  0.3229  0.1442
  113OSM    C3S11744   1.556   3.951  10.784  0.1371 -0.4559 -1.0084
  113OSM    H3S11745   1.527   3.843  10.785  0.8811 -0.6621 -0.1131
  113OSM     O311746   1.650   3.961  10.894  0.3123 -0.0845  0.7538
  113OSM    HO311747   1.599   4.005  10.962 -0.1649  1.2433 -0.4262
  113OSM    C4S11748   1.628   3.974  10.654 -0.7718  0.7026 -0.0475
  113OSM    H4S11749   1.583   3.915  10.573  0.5818 -2.3731  1.2771
  113OSM    C5S11750   1.739   4.043  10.625  1.2388  1.1494  1.1215
  113OSM    H5S11751   1.804   4.089  10.702  0.7991  1.7712  1.1263
  113OSM    C6S11752   1.797   4.037  10.490 -0.2696 -0.1303 -0.5574
  113OSM    H6S11753   1.783   3.934  10.451 -0.5637 -0.7600  1.1509
  113OSM    H6T11754   1.905   4.063  10.493 -0.6534  1.7262 -1.2136
  113OSM    C7S11755   1.740   4.133  10.386 -0.1956 -0.3484  0.6071
  113OSM    H7S11756   1.790   4.231  10.404  4.4170 -2.0611 -1.4033
  113OSM    H7T11757   1.631   4.149  10.393 -0.0829  0.5888  0.3352
  113OSM    C8S11758   1.765   4.087  10.242 -0.1779 -0.3462 -0.2021
  113OSM    H8S11759   1.721   3.987  10.222 -0.6074 -0.1252 -0.3889
  113OSM    H8T11760   1.873   4.083  10.217  0.0119  5.0497 -1.6342
  113OSM    C9S11761   1.714   4.187  10.133  0.2949  0.0415 -0.1624
  113OSM    H9S11762   1.756   4.284  10.165  1.8256 -0.4794 -0.5187
  113OSM    H9T11763   1.605   4.201  10.150  0.8469  0.8383  3.4792
  113OSM   C10S11764   1.759   4.151   9.991  0.2933  0.0604 -0.8525
  113OSM   H10S11765   1.710   4.226   9.926  0.0408 -0.5389 -1.3646
  113OSM   H10T11766   1.697   4.059   9.978 -0.5483  0.3810  0.5984
  113OSM   C11S11767   1.906   4.125   9.951  0.0726 -0.1471 -0.2876
  113OSM   H11S11768   1.969   4.073  10.027  1.9413  3.1580  0.5992
  113OSM   H11T11769   1.958   4.219   9.925  0.4833 -0.4261 -0.4859
  113OSM   C12S11770   1.908   4.031   9.829  1.0194  0.0856 -0.3241
  113OSM   H12S11771   1.841   3.944   9.847 -0.5237  1.1477 -0.7405
  113OSM   H12T11772   2.010   3.991   9.809  1.5782  0.3075  1.8433
  113OSM   C13S11773   1.848   4.108   9.709  0.6641 -0.4873 -0.6505
  113OSM   H13S11774   1.901   4.205   9.697 -1.0599  0.3725 -1.6425
  113OSM   H13T11775   1.744   4.128   9.741  1.0185  1.4583 -0.6050
  113OSM   C14S11776   1.849   4.020   9.581 -0.6988  1.1962 -0.2089
  113OSM   H14S11777   1.785   3.933   9.606  0.8598  0.0905  0.0282
  113OSM   H14T11778   1.946   3.974   9.556 -1.4764 -0.2325 -0.6877
  113OSM   C15S11779   1.781   4.087   9.457  0.0096  0.0339 -0.7117
  113OSM   H15S11780   1.708   4.158   9.500  1.0975  0.5857  0.2952
  113OSM   H15T11781   1.724   4.021   9.389  1.2175 -1.2380 -0.5214
  113OSM   C16S11782   1.876   4.181   9.375 -0.0284 -0.3528  0.2060
  113OSM   H16S11783   1.978   4.161   9.415  0.8893  1.2976 -1.1356
  113OSM   H16T11784   1.840   4.286   9.387  1.6558  0.4690 -1.3537
  113OSM   C17S11785   1.894   4.165   9.224  1.1153 -0.0828 -0.1451
  113OSM   H17S11786   1.951   4.246   9.173  0.4116  0.5477  0.0363
  113OSM   H17T11787   1.797   4.176   9.171  1.2676  1.8056 -0.1230
  113OSM   C18S11788   1.952   4.023   9.199  0.6406  0.2048 -0.3799
  113OSM   H18S11789   1.935   3.992   9.094 -0.0230  0.0535 -0.2339
  113OSM   H18T11790   1.902   3.952   9.268  0.1836  0.1495 -0.7632
  113OSM   H18U11791   2.062   4.026   9.217  0.6063  1.5584 -0.3034
  113OSM    C1F11792   1.238   4.095  10.649  0.5931 -0.2843 -0.3338
  113OSM     OF11793   1.237   4.205  10.709  0.9022 -0.4474 -0.0351
  113OSM    C2F11794   1.129   4.059  10.553 -0.4284  0.0228  0.0234
  113OSM    H2F11795   1.052   4.029  10.627  0.6470  1.3334  1.7585
  113OSM    H2G11796   1.144   3.968  10.492  3.2198  0.6525 -0.2528
  113OSM    C3F11797   1.090   4.188  10.469  0.0716 -0.1348 -0.4986
  113OSM    H3F11798   1.045   4.264  10.535 -1.5351 -0.7909 -0.7995
  113OSM    H3G11799   1.010   4.163  10.396 -0.4066  0.2468 -0.1039
  113OSM    C4F11800   1.199   4.254  10.385 -0.1276 -0.2602 -0.0268
  113OSM    H4F11801   1.279   4.293  10.452 -0.7742  0.1982  0.5028
  113OSM    H4G11802   1.155   4.339  10.327 -1.2252 -0.8460 -0.0883
  113OSM    C5F11803   1.257   4.164  10.284  0.4181  0.4033  0.2842
  113OSM    H5F11804   1.177   4.121  10.219  0.7019  0.4659 -0.1142
  113OSM    H5G11805   1.311   4.081  10.336  2.5630  1.9717  0.6821
  113OSM    C6F11806   1.357   4.234  10.188  0.7673  0.6227  0.4634
  113OSM    H6F11807   1.391   4.157  10.116  0.3004  2.3811 -1.7433
  113OSM    H6G11808   1.441   4.260  10.256  0.7634  0.4717  0.5276
  113OSM    C7F11809   1.308   4.352  10.103  0.5860  0.6145  0.2192
  113OSM    H7F11810   1.384   4.390  10.032 -1.3723  1.1575 -1.7153
  113OSM    H7G11811   1.286   4.429  10.181  2.7360  0.4593  1.0347
  113OSM    C8F11812   1.183   4.326  10.014 -0.2259 -0.2805 -0.3004
  113OSM    H8F11813   1.143   4.423   9.976  3.0798  1.0582 -0.6767
  113OSM    H8G11814   1.107   4.272  10.074 -0.0231  1.6172  1.8062
  113OSM    C9F11815   1.221   4.245   9.902 -0.5502 -0.1415  0.8951
  113OSM    H9F11816   1.254   4.145   9.935  1.2165  0.1975  0.2762
  113OSM   C10F11817   1.226   4.274   9.766  0.1000  0.4434  0.3952
  113OSM   H10F11818   1.261   4.194   9.699  1.4485  0.7998  0.6465
  113OSM   C11F11819   1.188   4.407   9.702 -0.3464 -0.1645  0.1948
  113OSM   H11F11820   1.225   4.493   9.762 -0.0606 -1.5686  2.1571
  113OSM   H11G11821   1.077   4.402   9.705 -0.4114 -0.8744 -1.8293
  113OSM   C12F11822   1.221   4.419   9.552  0.5784 -0.8070 -0.1070
  113OSM   H12F11823   1.174   4.516   9.524 -0.3765 -1.2244  0.0124
  113OSM   H12G11824   1.171   4.347   9.484  1.7028 -0.0041 -1.8697
  113OSM   C13F11825   1.369   4.423   9.512  0.0291 -0.2014 -0.0716
  113OSM   H13F11826   1.412   4.329   9.554  0.4737 -0.2012 -0.5126
  113OSM   H13G11827   1.410   4.507   9.572  1.3264  1.0870 -2.6277
  113OSM   C14F11828   1.400   4.432   9.363  0.4816 -0.0726 -0.5949
  113OSM   H14F11829   1.370   4.534   9.330 -0.1309 -0.7316 -2.1764
  113OSM   H14G11830   1.343   4.355   9.305  1.5487 -0.2754 -1.4078
  113OSM   C15F11831   1.548   4.435   9.341 -0.0280  0.3351 -0.0804
  113OSM   H15F11832   1.604   4.344   9.371  2.1856  2.3447  2.3426
  113OSM   H15G11833   1.596   4.517   9.398  1.1525 -1.3690  1.5071
  113OSM   C16F11834   1.587   4.446   9.194 -0.2345  0.4068  0.6074
  113OSM   H16F11835   1.697   4.443   9.203 -0.1689  2.2702  0.8599
  113OSM   H16G11836   1.558   4.543   9.148 -0.4610 -0.2980 -0.8026
  113OSM   C17F11837   1.543   4.337   9.092 -0.7207 -0.7664  0.2500
  113OSM   H17F11838   1.432   4.346   9.088 -0.5221  2.5228 -1.4558
  113OSM   H17G11839   1.562   4.238   9.139  1.3266 -0.5082  0.0419
  113OSM   C18F11840   1.614   4.346   8.954 -0.2322 -0.0583  0.0939
  113OSM   H18F11841   1.552   4.286   8.884  1.4547  0.1237 -1.6460
  113OSM   H18G11842   1.711   4.293   8.948 -0.0878  0.1686  0.4240
  113OSM   H18H11843   1.629   4.449   8.916  1.9616 -0.1036  0.6898
  114OSM      N11844   2.860   0.244  11.269 -0.1493  0.3375  0.2859
  114OSM    C1511845   2.891   0.100  11.300 -0.4410 -0.2683 -0.0005
  114OSM   H15A11846   2.836   0.038  11.232 -0.4524 -0.4632  0.1829
  114OSM   H15B11847   2.865   0.073  11.402 -0.8860  0.7630  0.1700
  114OSM   H15C11848   2.991   0.060  11.301 -0.2868  0.1010 -0.6272
  114OSM    C1411849   2.714   0.260  11.243  0.5444 -0.0064 -0.3324
  114OSM   H14A11850   2.688   0.209  11.151  0.8744  0.9220 -0.9557
  114OSM   H14B11851   2.693   0.359  11.206 -3.4837 -0.8962 -0.9176
  114OSM   H14C11852   2.654   0.223  11.325  0.8473 -0.4293 -0.3009
  114OSM    C1311853   2.904   0.340  11.378 -0.4879 -0.0590  0.4527
  114OSM   H13A11854   2.877   0.434  11.331 -1.5790  0.1972  1.5162
  114OSM   H13B11855   3.011   0.335  11.388 -0.2550 -0.2665 -1.6184
  114OSM   H13C11856   2.852   0.318  11.470  0.6269 -0.6072  0.9709
  114OSM    C1211857   2.925   0.281  11.139 -0.4645  0.4023  0.0437
  114OSM   H12A11858   2.913   0.198  11.071  0.7001  0.4065 -0.1973
  114OSM   H12B11859   3.031   0.284  11.162  0.4737 -0.0408 -3.6303
  114OSM    C1111860   2.901   0.418  11.074  0.1263 -0.2650 -0.7330
  114OSM   H11A11861   2.795   0.435  11.047 -0.1209 -1.6347 -0.6852
  114OSM   H11B11862   2.963   0.418  10.982 -0.5905  0.5479 -1.2292
  114OSM      P11863   3.091   0.582  11.174 -0.0361  0.4247  0.0376
  114OSM    O1311864   3.096   0.713  11.245 -0.1663  0.3733 -0.0542
  114OSM    O1411865   3.171   0.473  11.235  0.6642 -0.2671 -0.7688
  114OSM    O1111866   3.131   0.604  11.021  0.8365 -0.1535  0.1083
  114OSM    O1211867   2.941   0.530  11.160  0.0985  0.5087 -0.3229
  114OSM    C1S11868   3.269   0.614  10.973  0.1196  0.5218 -0.3120
  114OSM    H1S11869   3.320   0.519  10.999 -0.3552 -0.0741 -1.5195
  114OSM    H1T11870   3.323   0.697  11.024  0.1848 -1.2702  2.7862
  114OSM     NF11871   3.394   0.616  10.767  0.2279 -0.1760 -0.2688
  114OSM    HNF11872   3.463   0.689  10.774  0.7290 -0.7247  0.7410
  114OSM    C2S11873   3.268   0.639  10.824 -0.0137  0.1383 -1.3280
  114OSM    H2S11874   3.192   0.573  10.777 -1.1396 -0.7025  1.4722
  114OSM    C3S11875   3.214   0.785  10.798  0.0211  0.4690 -0.3468
  114OSM    H3S11876   3.286   0.857  10.843 -0.4367  0.3023  0.7008
  114OSM     O311877   3.083   0.806  10.851 -0.0229  0.0506  0.2472
  114OSM    HO311878   3.075   0.722  10.897  0.2702  0.2416  0.6558
  114OSM    C4S11879   3.234   0.814  10.650  0.4626 -0.3775  0.1189
  114OSM    H4S11880   3.337   0.827  10.615 -0.3683  1.8207 -1.7484
  114OSM    C5S11881   3.142   0.838  10.553  0.6804 -0.1249  0.1338
  114OSM    H5S11882   3.036   0.849  10.581  0.6907 -0.1535  0.1836
  114OSM    C6S11883   3.157   0.887  10.413  0.5456  0.6768 -0.1933
  114OSM    H6S11884   3.108   0.817  10.342 -0.5829  0.1669  1.0639
  114OSM    H6T11885   3.264   0.885  10.381  0.8838  0.2343  0.9164
  114OSM    C7S11886   3.107   1.033  10.393  0.3767  0.1093 -0.1087
  114OSM    H7S11887   3.160   1.093  10.469 -4.1328  1.0562  2.6435
  114OSM    H7T11888   3.004   1.052  10.431  0.6162 -2.0208  1.7946
  114OSM    C8S11889   3.132   1.090  10.255 -0.3929  0.1623  0.4242
  114OSM    H8S11890   3.217   1.044  10.201  1.4401  4.1513 -0.4735
  114OSM    H8T11891   3.158   1.198  10.254  1.2832 -0.2229 -0.9222
  114OSM    C9S11892   3.002   1.065  10.168  0.5915 -0.0872  0.6134
  114OSM    H9S11893   2.913   1.093  10.228  0.8439  1.0273  0.5026
  114OSM    H9T11894   2.988   0.956  10.157  0.3401 -0.2470  2.3057
  114OSM   C10S11895   2.986   1.152  10.037 -0.0323  0.6913 -0.0026
  114OSM   H10S11896   2.986   1.259  10.068  0.4123  0.3719  1.1337
  114OSM   H10T11897   2.885   1.134   9.993  1.5852 -0.3543 -3.6376
  114OSM   C11S11898   3.097   1.130   9.934 -0.0806 -0.3435  0.1622
  114OSM   H11S11899   3.118   1.023   9.912  1.5051  0.5585 -3.5112
  114OSM   H11T11900   3.186   1.176   9.982 -0.9458  1.0944  0.4525
  114OSM   C12S11901   3.076   1.213   9.811  0.0134 -0.0950  0.9760
  114OSM   H12S11902   3.167   1.223   9.749 -0.6328 -0.1724 -0.0155
  114OSM   H12T11903   3.048   1.319   9.831  0.6196  0.1251  0.6836
  114OSM   C13S11904   2.972   1.146   9.708  0.1417 -0.1950 -0.3029
  114OSM   H13S11905   2.903   1.223   9.668 -1.9919 -0.8954  1.8080
  114OSM   H13T11906   2.913   1.081   9.776  0.1240 -1.3401 -1.3622
  114OSM   C14S11907   3.040   1.060   9.594 -0.4295  0.8643  0.5192
  114OSM   H14S11908   3.082   0.963   9.628  0.3164  0.7658 -0.6617
  114OSM   H14T11909   3.118   1.125   9.549  1.6324 -1.0528  1.1756
  114OSM   C15S11910   2.952   1.016   9.479  0.3112  0.2535  0.1421
  114OSM   H15S11911   2.859   0.973   9.524  0.4908 -2.5989 -1.8776
  114OSM   H15T11912   3.007   0.937   9.423 -0.7276 -0.7022  0.4178
  114OSM   C16S11913   2.909   1.134   9.389 -0.6607  0.0480 -0.4122
  114OSM   H16S11914   2.999   1.188   9.355  0.1597 -0.0139  1.5497
  114OSM   H16T11915   2.838   1.201   9.442 -0.1121  0.9635 -0.8160
  114OSM   C17S11916   2.828   1.083   9.268  0.0857 -0.5562  0.3999
  114OSM   H17S11917   2.734   1.040   9.309 -0.9456 -0.6425 -1.9000
  114OSM   H17T11918   2.883   0.994   9.232  0.2989 -0.0304 -0.6134
  114OSM   C18S11919   2.796   1.184   9.160 -0.1398 -0.5407  0.1691
  114OSM   H18S11920   2.715   1.151   9.092 -2.1188  3.0681  0.5391
  114OSM   H18T11921   2.884   1.215   9.099  2.3903 -3.5581  2.0062
  114OSM   H18U11922   2.748   1.271   9.210  1.4674  0.7166 -0.3834
  114OSM    C1F11923   3.436   0.491  10.748 -0.0338  0.4085  0.1736
  114OSM     OF11924   3.376   0.390  10.796  0.2672 -0.9768 -0.5807
  114OSM    C2F11925   3.565   0.488  10.667 -0.2106  0.6228 -0.0965
  114OSM    H2F11926   3.631   0.572  10.696  1.3702 -0.2476 -1.0388
  114OSM    H2G11927   3.538   0.507  10.561 -1.1783  3.7769  0.6046
  114OSM    C3F11928   3.645   0.352  10.685 -0.3878 -0.8343 -0.1058
  114OSM    H3F11929   3.589   0.257  10.681 -1.6671 -0.1138  0.2090
  114OSM    H3G11930   3.677   0.350  10.791 -0.7917 -1.1928  0.0077
  114OSM    C4F11931   3.762   0.334  10.580 -0.6640 -0.4682 -0.1726
  114OSM    H4F11932   3.847   0.280  10.629 -0.5891  0.9953  1.4102
  114OSM    H4G11933   3.794   0.438  10.560 -1.4293 -0.1638  0.1574
  114OSM    C5F11934   3.722   0.259  10.457  0.2808  0.0248  0.4659
  114OSM    H5F11935   3.670   0.332  10.391 -0.6909 -2.0228 -1.1463
  114OSM    H5G11936   3.652   0.179  10.490  0.6827  0.3845  2.2957
  114OSM    C6F11937   3.832   0.204  10.372 -0.6465 -0.7761 -0.3519
  114OSM    H6F11938   3.788   0.149  10.286 -1.6272 -0.6314  0.0436
  114OSM    H6G11939   3.894   0.131  10.428 -0.6136  0.3857  1.1928
  114OSM    C7F11940   3.908   0.325  10.302  0.7928  0.6021 -0.0783
  114OSM    H7F11941   3.986   0.352  10.377  0.8796 -1.3971  0.6242
  114OSM    H7G11942   3.863   0.422  10.273 -1.8219 -0.1901  1.0402
  114OSM    C8F11943   3.989   0.263  10.189  0.4906 -0.3963  0.1543
  114OSM    H8F11944   3.917   0.228  10.112  0.1516 -2.4431  1.3139
  114OSM    H8G11945   4.039   0.170  10.225 -0.7976 -1.1909 -0.0461
  114OSM    C9F11946   4.096   0.353  10.147  0.1840  0.4902 -0.1412
  114OSM    H9F11947   4.185   0.354  10.212  0.3698 -0.7069 -0.3445
  114OSM   C10F11948   4.109   0.422  10.036 -0.0479 -0.4337 -1.5159
  114OSM   H10F11949   4.200   0.481  10.018 -0.6831  0.5663 -1.5307
  114OSM   C11F11950   4.015   0.429   9.925  0.6791  0.2965  0.9302
  114OSM   H11F11951   3.978   0.330   9.893 -1.5487  1.4631 -0.3284
  114OSM   H11G11952   4.083   0.460   9.842  1.0711 -1.5968  0.4948
  114OSM   C12F11953   3.897   0.524   9.942 -0.7164  0.6179 -0.0524
  114OSM   H12F11954   3.944   0.617   9.980 -0.4442  0.3669  0.2299
  114OSM   H12G11955   3.839   0.468  10.018  0.4905 -1.4108 -0.5708
  114OSM   C13F11956   3.811   0.554   9.813 -0.3228  0.5264 -0.2300
  114OSM   H13F11957   3.731   0.626   9.839  0.5418  1.1200  0.8891
  114OSM   H13G11958   3.768   0.463   9.767 -2.0981  1.0810  0.2726
  114OSM   C14F11959   3.892   0.638   9.713 -0.0571 -0.4347 -0.5042
  114OSM   H14F11960   3.985   0.583   9.687  0.8252 -0.2875  2.0938
  114OSM   H14G11961   3.934   0.728   9.763 -2.4662  0.3737  0.2275
  114OSM   C15F11962   3.798   0.682   9.602 -0.1983 -0.1146  0.0688
  114OSM   H15F11963   3.704   0.727   9.640  1.0020  0.0561  3.0878
  114OSM   H15G11964   3.758   0.587   9.559  1.2493 -0.5592 -0.3397
  114OSM   C16F11965   3.862   0.753   9.480 -0.5368 -0.0790  0.4776
  114OSM   H16F11966   3.910   0.842   9.525 -0.2151  0.6790 -1.2664
  114OSM   H16G11967   3.785   0.799   9.414  1.0028  2.0365  0.0356
  114OSM   C17F11968   3.965   0.666   9.417  0.0028  0.5290  0.1932
  114OSM   H17F11969   3.905   0.579   9.383 -1.0836  0.6043  1.8090
  114OSM   H17G11970   4.045   0.636   9.488  1.7735  3.4657 -0.3640
  114OSM   C18F11971   4.031   0.739   9.303 -0.3792 -0.2412 -1.1138
  114OSM   H18F11972   4.101   0.678   9.243  1.0730  0.8234 -0.5543
  114OSM   H18G11973   4.073   0.836   9.337 -2.4713  0.4903 -0.4086
  114OSM   H18H11974   3.952   0.752   9.225  0.5606 -5.3493 -3.2810
  115OSM      N11975   5.410   5.883  11.397  0.6266 -0.5534  0.0631
  115OSM    C1511976   5.427   5.736  11.429 -0.1031 -0.1954 -0.0498
  115OSM   H15A11977   5.510   5.698  11.370  0.3743 -0.0744  0.5370
  115OSM   H15B11978   5.335   5.685  11.405 -1.6946  2.5306 -0.1076
  115OSM   H15C11979   5.445   5.738  11.535 -0.3522  2.6424  0.0291
  115OSM    C1411980   5.313   5.935  11.499  0.0763  0.0349 -0.2059
  115OSM   H14A11981   5.359   5.927  11.596 -1.3900  0.1739  0.5253
  115OSM   H14B11982   5.223   5.876  11.498 -0.4476  0.7447  1.5383
  115OSM   H14C11983   5.291   6.038  11.475 -0.5116 -0.1099 -0.3046
  115OSM    C1311984   5.539   5.956  11.414 -0.8385  0.5833 -0.3841
  115OSM   H13A11985   5.532   6.062  11.396 -0.0822  0.6816 -0.1043
  115OSM   H13B11986   5.622   5.913  11.360 -0.7575 -2.5608  1.9981
  115OSM   H13C11987   5.576   5.936  11.513 -0.1648  2.7996 -0.1376
  115OSM    C1211988   5.355   5.894  11.258  0.5639 -0.7305 -0.1097
  115OSM   H12A11989   5.327   5.996  11.235 -0.1256 -0.1711  2.7889
  115OSM   H12B11990   5.269   5.830  11.247 -0.8346  0.2770  3.4008
  115OSM    C1111991   5.462   5.853  11.145  0.5498 -0.2099 -0.4322
  115OSM   H11A11992   5.551   5.919  11.136 -0.6057  1.2557 -2.0481
  115OSM   H11B11993   5.424   5.873  11.042  1.9284  0.9399 -0.7511
  115OSM      P11994   5.424   5.592  11.095  0.5014  0.0010 -0.3198
  115OSM    O1311995   5.489   5.474  11.158  0.4266 -0.0445  0.0885
  115OSM    O1411996   5.281   5.615  11.120 -0.6388 -0.0287  0.3897
  115OSM    O1111997   5.470   5.611  10.944  0.2032 -0.1248 -0.2815
  115OSM    O1211998   5.500   5.712  11.160 -0.3942 -0.4580 -1.0966
  115OSM    C1S11999   5.392   5.684  10.846  0.3704 -0.4443 -0.6700
  115OSM    H1S12000   5.426   5.789  10.857 -1.3263  0.1033 -0.3875
  115OSM    H1T12001   5.281   5.676  10.857  0.0652  2.8286 -0.4988
  115OSM     NF12002   5.389   5.750  10.601 -0.6157  0.5705 -0.9648
  115OSM    HNF12003   5.303   5.741  10.551 -1.5416  1.3139  0.4473
  115OSM    C2S12004   5.429   5.644  10.697  0.0948 -0.0733  0.0740
  115OSM    H2S12005   5.540   5.639  10.693  0.0834 -0.6058  0.3267
  115OSM    C3S12006   5.365   5.504  10.668 -0.2282 -0.2835  1.9018
  115OSM    H3S12007   5.255   5.517  10.676 -0.3040  1.3887 -0.7483
  115OSM     O312008   5.395   5.417  10.777  0.1924 -0.1891 -0.0737
  115OSM    HO312009   5.428   5.476  10.845  1.2591  1.9729 -2.3208
  115OSM    C4S12010   5.404   5.453  10.532  0.4837 -0.0957 -0.8308
  115OSM    H4S12011   5.316   5.451  10.466 -0.8638  0.4152  0.8815
  115OSM    C5S12012   5.532   5.416  10.507 -0.5451  0.5801  0.2795
  115OSM    H5S12013   5.608   5.419  10.587 -0.7077  1.4319  0.4132
  115OSM    C6S12014   5.581   5.364  10.374 -0.2339 -0.4769  0.2796
  115OSM    H6S12015   5.618   5.259  10.384 -0.5654 -0.4536  2.1927
  115OSM    H6T12016   5.665   5.430  10.347  0.7331 -1.0475  1.7778
  115OSM    C7S12017   5.473   5.375  10.266 -0.0510 -0.2643  0.6859
  115OSM    H7S12018   5.448   5.481  10.244  1.0280  0.6302  3.3075
  115OSM    H7T12019   5.386   5.311  10.292 -0.2663 -1.2605 -2.1678
  115OSM    C8S12020   5.511   5.316  10.127 -1.2215 -0.1680  0.2778
  115OSM    H8S12021   5.533   5.208  10.146  1.9072  0.0039 -1.7177
  115OSM    H8T12022   5.610   5.357  10.099 -0.8403 -0.9595  0.4120
  115OSM    C9S12023   5.411   5.328  10.008  0.0600 -0.1300 -0.7288
  115OSM    H9S12024   5.309   5.314  10.050  1.5554 -1.4975  2.8552
  115OSM    H9T12025   5.425   5.239   9.943 -2.8255  0.5218 -2.4028
  115OSM   C10S12026   5.433   5.452   9.929 -0.3307 -0.8170 -0.0454
  115OSM   H10S12027   5.543   5.462   9.915 -0.0366 -1.7797  1.4330
  115OSM   H10T12028   5.389   5.539   9.982 -0.3464  0.1666 -1.6015
  115OSM   C11S12029   5.369   5.446   9.789  0.3019  0.2198  0.1542
  115OSM   H11S12030   5.261   5.472   9.792  0.6751  1.9784 -0.3393
  115OSM   H11T12031   5.374   5.339   9.760  3.1023  0.5164 -0.7187
  115OSM   C12S12032   5.439   5.534   9.679 -0.0150 -0.1388 -0.2309
  115OSM   H12S12033   5.538   5.483   9.673 -1.0786 -2.4298  0.2333
  115OSM   H12T12034   5.447   5.637   9.718 -2.5380 -0.9687  2.9216
  115OSM   C13S12035   5.362   5.538   9.547  0.4662  0.6608 -0.5923
  115OSM   H13S12036   5.420   5.597   9.473 -2.2841  0.7517 -2.8523
  115OSM   H13T12037   5.262   5.585   9.551 -1.5211 -3.1909 -0.8366
  115OSM   C14S12038   5.339   5.398   9.487  0.2930 -0.6736 -0.7077
  115OSM   H14S12039   5.261   5.337   9.539 -1.0692  2.8810  1.7750
  115OSM   H14T12040   5.437   5.347   9.496 -0.3113 -1.7698 -0.1437
  115OSM   C15S12041   5.307   5.404   9.343 -0.0076 -0.8574  0.6933
  115OSM   H15S12042   5.370   5.482   9.297  0.3866 -1.6963 -0.2299
  115OSM   H15T12043   5.200   5.429   9.327 -0.4425  0.0657  4.2519
  115OSM   C16S12044   5.350   5.275   9.272  0.0757 -0.0290  0.4527
  115OSM   H16S12045   5.272   5.204   9.308 -1.7176  2.0925  0.9848
  115OSM   H16T12046   5.453   5.244   9.298  0.3637  0.8579  0.4246
  115OSM   C17S12047   5.327   5.271   9.112 -0.0807 -0.0699 -0.4797
  115OSM   H17S12048   5.217   5.283   9.106 -0.1817 -1.4954 -2.6447
  115OSM   H17T12049   5.356   5.167   9.086  1.0608  0.1194 -0.0231
  115OSM   C18S12050   5.408   5.379   9.034 -0.2187  0.4937  0.3982
  115OSM   H18S12051   5.368   5.407   8.934 -0.7387 -0.7826  0.2335
  115OSM   H18T12052   5.503   5.329   9.005 -0.7072  0.5167 -1.3818
  115OSM   H18U12053   5.424   5.471   9.094 -0.2612  0.9855 -0.3243
  115OSM    C1F12054   5.444   5.867  10.600  0.5086 -0.4632  0.0051
  115OSM     OF12055   5.522   5.905  10.682  0.1954  0.4589 -0.5144
  115OSM    C2F12056   5.399   5.956  10.491  0.9777 -0.1937  0.2233
  115OSM    H2F12057   5.289   5.956  10.477  1.0729  1.4816 -0.8513
  115OSM    H2G12058   5.445   5.914  10.398  0.1321 -0.0313 -0.2805
  115OSM    C3F12059   5.443   6.110  10.509  0.2291 -0.9600 -0.0437
  115OSM    H3F12060   5.553   6.123  10.513  0.0907  0.8881 -0.9693
  115OSM    H3G12061   5.394   6.136  10.605 -0.0122  0.2873 -0.4941
  115OSM    C4F12062   5.390   6.210  10.409  0.6868  0.2871  0.0377
  115OSM    H4F12063   5.432   6.311  10.425  2.1075  0.0289 -1.7184
  115OSM    H4G12064   5.279   6.208  10.417  0.3608 -0.7647 -3.2677
  115OSM    C5F12065   5.413   6.166  10.265 -0.2525  0.2753 -0.2212
  115OSM    H5F12066   5.362   6.070  10.243  2.3724 -1.4386  0.7272
  115OSM    H5G12067   5.522   6.158  10.243 -0.2861  1.4314 -0.9383
  115OSM    C6F12068   5.361   6.263  10.156  0.1710 -0.3634  0.7143
  115OSM    H6F12069   5.361   6.191  10.072 -1.7746  1.2564 -0.7776
  115OSM    H6G12070   5.428   6.351  10.143  0.0368 -0.0770  1.7835
  115OSM    C7F12071   5.212   6.311  10.164  0.1521  0.0788  0.5861
  115OSM    H7F12072   5.187   6.373  10.252 -0.8933 -1.3132  1.2958
  115OSM    H7G12073   5.147   6.222  10.173 -1.7680  1.3006 -0.5981
  115OSM    C8F12074   5.183   6.380  10.025  0.1914  0.2097  0.2966
  115OSM    H8F12075   5.273   6.429   9.982 -1.6861  3.2744 -0.3378
  115OSM    H8G12076   5.112   6.461  10.051 -0.6142 -1.6349  4.7253
  115OSM    C9F12077   5.114   6.291   9.927 -0.9774  0.1992 -0.0497
  115OSM    H9F12078   5.011   6.259   9.945 -0.8120 -0.0211  0.5371
  115OSM   C10F12079   5.171   6.258   9.806 -0.0222  0.5876 -0.4723
  115OSM   H10F12080   5.115   6.186   9.744  1.7613 -0.7824 -0.5560
  115OSM   C11F12081   5.307   6.293   9.750  0.8621 -1.2214  0.0943
  115OSM   H11F12082   5.376   6.258   9.829  0.0576 -3.4280 -0.1276
  115OSM   H11G12083   5.319   6.403   9.740  0.6071 -1.0725  1.3286
  115OSM   C12F12084   5.353   6.239   9.616 -0.8178 -0.5274  0.7148
  115OSM   H12F12085   5.414   6.146   9.621  0.3678  0.2777  1.7471
  115OSM   H12G12086   5.437   6.307   9.593 -0.0289 -2.2323 -1.9258
  115OSM   C13F12087   5.266   6.278   9.498 -0.2972  0.6526 -0.4164
  115OSM   H13F12088   5.157   6.275   9.516  0.2101  0.2302  3.6669
  115OSM   H13G12089   5.279   6.186   9.438  0.5918 -0.5106  1.4299
  115OSM   C14F12090   5.306   6.401   9.413 -1.6033 -0.4608 -0.1995
  115OSM   H14F12091   5.409   6.393   9.370 -2.6411  0.9404 -3.1909
  115OSM   H14G12092   5.305   6.488   9.483 -3.4699 -0.1363 -0.6032
  115OSM   C15F12093   5.211   6.431   9.290  0.0379  0.3169 -0.4018
  115OSM   H15F12094   5.111   6.453   9.334  0.3698 -0.5993  0.8509
  115OSM   H15G12095   5.206   6.342   9.223 -0.0885  1.3539 -1.8144
  115OSM   C16F12096   5.262   6.558   9.220  0.3157  0.0312  0.8592
  115OSM   H16F12097   5.366   6.544   9.186  1.4456  0.9687  3.6561
  115OSM   H16G12098   5.276   6.624   9.308  3.1015  1.1617 -0.3379
  115OSM   C17F12099   5.166   6.628   9.115 -0.1650 -0.1942  0.3922
  115OSM   H17F12100   5.071   6.629   9.173  0.2530 -1.1701  1.1353
  115OSM   H17G12101   5.156   6.568   9.023  1.1794  1.0572 -0.6186
  115OSM   C18F12102   5.211   6.768   9.076  0.0720 -0.2532 -0.4599
  115OSM   H18F12103   5.318   6.774   9.050  0.0513  1.8596 -0.2487
  115OSM   H18G12104   5.181   6.843   9.153 -0.4374  1.0149 -1.8307
  115OSM   H18H12105   5.155   6.817   8.993  0.2121 -1.9204 -1.5903
  116OSM      N12106   3.840   2.381  11.534 -0.2832 -0.1009  1.2341
  116OSM    C1512107   3.707   2.318  11.493  0.2147 -0.0235  0.0594
  116OSM   H15A12108   3.723   2.245  11.415  0.4941 -1.7687  1.6702
  116OSM   H15B12109   3.646   2.389  11.438 -0.0035 -1.1350 -1.1992
  116OSM   H15C12110   3.650   2.275  11.574  0.9590  1.0862  1.2135
  116OSM    C1412111   3.810   2.447  11.670  0.2820 -0.0630  0.0518
  116OSM   H14A12112   3.899   2.491  11.711  0.8419 -0.5276 -0.6339
  116OSM   H14B12113   3.781   2.373  11.744  1.3730 -1.3421 -0.7410
  116OSM   H14C12114   3.731   2.519  11.657 -0.5020 -0.7719  0.7343
  116OSM    C1312115   3.941   2.282  11.556  0.2324 -0.6368  0.6764
  116OSM   H13A12116   3.981   2.238  11.466 -0.8796 -1.3861  0.5335
  116OSM   H13B12117   3.902   2.209  11.625 -0.3130 -0.6357  0.3754
  116OSM   H13C12118   4.028   2.332  11.597  0.7374  0.0128 -1.0831
  116OSM    C1212119   3.883   2.484  11.427 -0.4613  0.0399 -0.3543
  116OSM   H12A12120   3.972   2.533  11.463  0.6303 -1.4673 -0.8814
  116OSM   H12B12121   3.800   2.551  11.411 -0.2006  0.5208  0.2930
  116OSM    C1112122   3.924   2.429  11.289 -0.7852 -0.4632 -0.5936
  116OSM   H11A12123   3.997   2.345  11.299  0.2377  0.4396 -0.2304
  116OSM   H11B12124   3.972   2.507  11.226  1.5800 -1.7149 -0.4756
  116OSM      P12125   3.698   2.437  11.151 -0.0992  0.0742  0.2215
  116OSM    O1312126   3.576   2.420  11.230  0.1225 -0.2677  0.1656
  116OSM    O1412127   3.731   2.575  11.116  0.3217  0.0754  0.4839
  116OSM    O1112128   3.679   2.352  11.020  0.3061  0.0581  0.1061
  116OSM    O1212129   3.816   2.367  11.222  0.0287  0.5039  0.2037
  116OSM    C1S12130   3.571   2.393  10.931 -0.1060 -0.9291 -0.0001
  116OSM    H1S12131   3.506   2.472  10.974 -0.1012  0.2736 -2.0694
  116OSM    H1T12132   3.502   2.306  10.920 -1.5305  0.0667  0.6967
  116OSM     NF12133   3.504   2.448  10.696  0.4414 -0.1608  0.5431
  116OSM    HNF12134   3.480   2.386  10.622  0.9218  0.3268 -0.0318
  116OSM    C2S12135   3.613   2.420  10.789 -0.1439  0.3371 -0.2250
  116OSM    H2S12136   3.693   2.498  10.789  1.1798 -0.9643  0.8626
  116OSM    C3S12137   3.694   2.295  10.736 -0.8251 -0.3847  0.1797
  116OSM    H3S12138   3.633   2.203  10.744  3.1964 -3.1948  2.4814
  116OSM     O312139   3.814   2.259  10.805 -0.9510 -0.2008  0.3432
  116OSM    HO312140   3.804   2.306  10.888 -2.8996  4.6475 -2.2404
  116OSM    C4S12141   3.733   2.322  10.591  0.0765  0.0255 -0.0688
  116OSM    H4S12142   3.745   2.429  10.570 -1.1693 -0.1928 -2.0830
  116OSM    C5S12143   3.744   2.232  10.488  0.2505 -0.0308  0.6113
  116OSM    H5S12144   3.727   2.130  10.526 -0.8072 -0.1799 -0.2295
  116OSM    C6S12145   3.786   2.266  10.354  0.3091  0.0085 -0.0697
  116OSM    H6S12146   3.870   2.194  10.343 -0.6531 -0.9631 -1.4216
  116OSM    H6T12147   3.816   2.373  10.355 -0.8126  0.3320  0.4227
  116OSM    C7S12148   3.684   2.235  10.242 -0.2200  0.1497 -0.3506
  116OSM    H7S12149   3.586   2.285  10.257  0.3347  0.7327  1.6486
  116OSM    H7T12150   3.659   2.127  10.249  2.6021 -0.5643 -0.1580
  116OSM    C8S12151   3.741   2.262  10.100  0.2410 -0.6177  0.0344
  116OSM    H8S12152   3.819   2.184  10.087  0.2453 -0.6842  0.4681
  116OSM    H8T12153   3.795   2.359  10.101 -0.7383 -0.0523  1.9885
  116OSM    C9S12154   3.642   2.247   9.992  1.4255  0.1190 -0.4019
  116OSM    H9S12155   3.697   2.285   9.903 -0.8287  2.0723 -1.0637
  116OSM    H9T12156   3.560   2.318  10.014  1.0720  0.5353 -2.7382
  116OSM   C10S12157   3.591   2.099   9.961  0.7286 -0.4336 -0.0288
  116OSM   H10S12158   3.540   2.050  10.047  2.2248 -2.1906 -0.0848
  116OSM   H10T12159   3.683   2.038   9.948  0.4571 -1.2337  1.5659
  116OSM   C11S12160   3.493   2.079   9.835 -0.6058  0.4929 -0.2103
  116OSM   H11S12161   3.399   2.133   9.859 -2.2277 -2.3934  0.4478
  116OSM   H11T12162   3.462   1.972   9.829 -1.3205  0.7284 -0.9974
  116OSM   C12S12163   3.554   2.116   9.701  0.6523 -0.2043  0.2851
  116OSM   H12S12164   3.647   2.056   9.689  0.2721 -0.7749  0.1738
  116OSM   H12T12165   3.589   2.222   9.697 -1.3030  0.4610 -0.0299
  116OSM   C13S12166   3.448   2.098   9.592  0.2549 -0.3058 -0.9957
  116OSM   H13S12167   3.362   2.153   9.636 -0.8381 -2.7677  0.2046
  116OSM   H13T12168   3.410   1.994   9.579  0.2396 -0.5718  0.8583
  116OSM   C14S12169   3.491   2.147   9.457  0.1826  0.2464  0.3238
  116OSM   H14S12170   3.581   2.101   9.412  0.5062  3.1104 -2.2305
  116OSM   H14T12171   3.517   2.255   9.463  0.0768  0.4591 -2.1173
  116OSM   C15S12172   3.371   2.131   9.356 -0.2021  0.4477  0.1530
  116OSM   H15S12173   3.412   2.181   9.265 -2.3881 -0.2153 -1.2669
  116OSM   H15T12174   3.277   2.184   9.384 -0.3886  0.2183 -0.0364
  116OSM   C16S12175   3.322   1.994   9.312 -0.9615  0.2355 -0.2963
  116OSM   H16S12176   3.238   1.971   9.381  1.2669  0.8488  2.7735
  116OSM   H16T12177   3.405   1.921   9.322 -1.8507 -0.5268  2.2784
  116OSM   C17S12178   3.272   1.984   9.164  0.5033 -0.0420 -0.5230
  116OSM   H17S12179   3.354   2.027   9.101  1.4518 -0.1137  0.6338
  116OSM   H17T12180   3.180   2.044   9.155  0.9162  0.6980  0.0849
  116OSM   C18S12181   3.222   1.856   9.110  0.0205  1.0406 -0.1172
  116OSM   H18S12182   3.300   1.778   9.120  1.0889  2.1283  0.3744
  116OSM   H18T12183   3.186   1.863   9.006 -0.5991 -0.7684 -0.0514
  116OSM   H18U12184   3.137   1.825   9.174  0.0385  2.4357  0.6141
  116OSM    C1F12185   3.429   2.566  10.699  0.3610 -0.0002  0.1423
  116OSM     OF12186   3.449   2.646  10.788 -0.4214  0.1161 -0.0096
  116OSM    C2F12187   3.334   2.603  10.588 -0.0219 -0.0627 -0.0116
  116OSM    H2F12188   3.360   2.706  10.553  0.3744  0.1684  0.9169
  116OSM    H2G12189   3.232   2.597  10.633 -0.0193  0.0892  0.0183
  116OSM    C3F12190   3.345   2.519  10.462  0.4078  0.1144  0.2941
  116OSM    H3F12191   3.317   2.414  10.488  0.3886  0.0867  0.1639
  116OSM    H3G12192   3.451   2.528  10.430  0.4393 -2.8855 -0.8523
  116OSM    C4F12193   3.256   2.568  10.342 -0.5742  0.0396  0.3683
  116OSM    H4F12194   3.278   2.676  10.328 -1.0037  0.2928  1.5386
  116OSM    H4G12195   3.147   2.556  10.361 -0.6195 -0.9484 -0.4534
  116OSM    C5F12196   3.279   2.493  10.212  0.5354  0.5277 -0.0175
  116OSM    H5F12197   3.261   2.385  10.234 -0.4689  0.7442  0.2217
  116OSM    H5G12198   3.388   2.505  10.194  0.3755 -0.8207 -2.3260
  116OSM    C6F12199   3.201   2.555  10.097  0.1941  0.1000  0.3063
  116OSM    H6F12200   3.228   2.662  10.081  0.8921 -0.2794 -1.2491
  116OSM    H6G12201   3.091   2.567  10.108 -0.1009  0.4034 -2.4480
  116OSM    C7F12202   3.215   2.484   9.958 -0.2282 -0.5668  0.6106
  116OSM    H7F12203   3.176   2.380   9.967 -1.2540 -0.4938 -1.9317
  116OSM    H7G12204   3.321   2.463   9.935  0.6134  2.9290  0.6657
  116OSM    C8F12205   3.150   2.562   9.839  0.3255  0.0279  0.4369
  116OSM    H8F12206   3.210   2.651   9.809 -1.0809  1.6830  2.2623
  116OSM    H8G12207   3.051   2.601   9.873  0.9711  1.1192  1.1160
  116OSM    C9F12208   3.122   2.466   9.727 -0.0837  0.0909 -0.6610
  116OSM    H9F12209   3.122   2.362   9.763  0.4477  0.5287  0.6733
  116OSM   C10F12210   3.114   2.492   9.598  0.2847 -0.0612  0.9111
  116OSM   H10F12211   3.096   2.405   9.533  0.1307  2.0405 -2.0349
  116OSM   C11F12212   3.137   2.617   9.517 -0.0595  0.7995 -0.7618
  116OSM   H11F12213   3.243   2.613   9.483  1.2003  1.3636  2.6755
  116OSM   H11G12214   3.122   2.699   9.591 -0.6192 -0.7914  0.9459
  116OSM   C12F12215   3.034   2.635   9.407 -0.4849 -0.4958 -0.3492
  116OSM   H12F12216   3.048   2.728   9.347 -0.2138 -0.0066  0.4620
  116OSM   H12G12217   2.933   2.635   9.453 -1.6407 -0.1962 -2.7319
  116OSM   C13F12218   3.043   2.523   9.304 -0.0855  0.0434  0.0846
  116OSM   H13F12219   2.963   2.538   9.228 -1.3346  0.9623  1.5104
  116OSM   H13G12220   3.031   2.421   9.346 -2.5399  0.9584  1.8719
  116OSM   C14F12221   3.177   2.518   9.230  0.2679 -0.8770  0.2506
  116OSM   H14F12222   3.260   2.497   9.301 -0.6134  1.4405  2.0891
  116OSM   H14G12223   3.200   2.617   9.185 -0.9390 -0.6326  0.1459
  116OSM   C15F12224   3.173   2.409   9.124 -0.1883  0.0479 -0.5874
  116OSM   H15F12225   3.114   2.319   9.152  0.7960 -1.0065 -1.7794
  116OSM   H15G12226   3.279   2.381   9.104 -0.7644 -2.5357 -0.3422
  116OSM   C16F12227   3.115   2.476   8.993  0.9265  0.5067 -0.6385
  116OSM   H16F12228   3.182   2.557   8.954  1.1973  0.9583  0.6991
  116OSM   H16G12229   3.014   2.518   9.011  0.3800 -0.9603 -0.1967
  116OSM   C17F12230   3.099   2.371   8.883  0.6097 -0.1970 -0.4666
  116OSM   H17F12231   3.022   2.293   8.903  3.1070 -2.9754 -1.0453
  116OSM   H17G12232   3.194   2.314   8.881  1.0868  0.5701  0.0501
  116OSM   C18F12233   3.083   2.431   8.742 -0.1987 -0.2648  0.0072
  116OSM   H18F12234   2.996   2.499   8.743  1.0838  1.4506 -0.3087
  116OSM   H18G12235   3.059   2.351   8.669  0.3266 -0.1668 -0.2805
  116OSM   H18H12236   3.170   2.495   8.715 -0.2180 -0.4404 -0.4878
  117OSM      N12237   0.947   3.695  11.228  0.3055  0.4256  0.0323
  117OSM    C1512238   0.986   3.569  11.288 -0.0139 -0.2361  0.1618
  117OSM   H15A12239   1.009   3.504  11.205 -1.3271 -0.4945 -0.0113
  117OSM   H15B12240   0.914   3.528  11.357 -0.4678 -0.6792 -0.5630
  117OSM   H15C12241   1.077   3.581  11.346  0.7215  1.1701 -1.1945
  117OSM    C1412242   0.812   3.697  11.170 -0.3813 -0.1272  0.8044
  117OSM   H14A12243   0.819   3.633  11.083  1.8119  2.1227 -0.8102
  117OSM   H14B12244   0.794   3.798  11.135  0.1395  0.2472  1.5818
  117OSM   H14C12245   0.743   3.670  11.248 -1.4077 -0.8244 -0.3066
  117OSM    C1312246   0.943   3.787  11.341 -0.4870 -0.5446  0.0833
  117OSM   H13A12247   1.038   3.803  11.391  1.2072  0.8704 -3.2319
  117OSM   H13B12248   0.874   3.751  11.415 -0.7107  0.2914  0.2890
  117OSM   H13C12249   0.901   3.881  11.308  0.0159 -1.2861 -3.0019
  117OSM    C1212250   1.048   3.741  11.120  0.5944 -0.1092 -0.1957
  117OSM   H12A12251   1.149   3.723  11.156  2.0236 -1.1990 -4.1353
  117OSM   H12B12252   1.048   3.847  11.101 -0.2852 -0.4169 -2.1400
  117OSM    C1112253   1.049   3.654  10.992  0.2812  1.0547  1.1066
  117OSM   H11A12254   1.094   3.710  10.907 -0.7800 -0.1741 -0.3276
  117OSM   H11B12255   0.950   3.648  10.940  2.5275  0.5841 -3.7171
  117OSM      P12256   1.120   3.417  10.903  0.3524 -0.1421 -0.3077
  117OSM    O1312257   1.215   3.311  10.947 -0.7186  0.2180  0.4276
  117OSM    O1412258   0.985   3.372  10.857 -0.2431 -0.0746  0.1416
  117OSM    O1112259   1.180   3.500  10.782  0.4093  0.7596  0.3495
  117OSM    O1212260   1.094   3.520  11.017  0.1033 -0.4120  0.2469
  117OSM    C1S12261   1.266   3.445  10.684 -0.2476  0.3137 -0.4051
  117OSM    H1S12262   1.238   3.340  10.662  2.3406 -0.9359  1.7277
  117OSM    H1T12263   1.374   3.448  10.711  0.8091  1.4211 -4.1590
  117OSM     NF12264   1.336   3.432  10.430 -0.0193  0.1456 -0.5953
  117OSM    HNF12265   1.424   3.478  10.420 -0.3755  1.2517  0.9757
  117OSM    C2S12266   1.265   3.507  10.533 -0.5415 -0.4160  0.1105
  117OSM    H2S12267   1.158   3.509  10.502 -1.0981  1.1941  1.9306
  117OSM    C3S12268   1.307   3.656  10.540 -0.1599 -0.7102  0.0216
  117OSM    H3S12269   1.409   3.675  10.582 -0.0210  3.7950 -1.7660
  117OSM     O312270   1.221   3.738  10.621 -0.1201 -0.3991 -0.4084
  117OSM    HO312271   1.161   3.675  10.663  0.3150  1.0174  2.5995
  117OSM    C4S12272   1.302   3.714  10.402  0.0917 -0.2942 -0.4157
  117OSM    H4S12273   1.200   3.743  10.376 -0.3195  0.5167  1.8644
  117OSM    C5S12274   1.404   3.750  10.322  0.4753  0.6064  0.6354
  117OSM    H5S12275   1.504   3.738  10.367  0.2567 -0.5912  0.8280
  117OSM    C6S12276   1.390   3.821  10.189  0.7850 -0.1418 -0.6898
  117OSM    H6S12277   1.471   3.896  10.177  0.5792  0.3467  0.7580
  117OSM    H6T12278   1.300   3.886  10.193  1.8189  1.3548 -0.8078
  117OSM    C7S12279   1.383   3.732  10.065 -0.3467 -0.0587  0.1727
  117OSM    H7S12280   1.291   3.671  10.078 -2.1623  1.8244 -2.6567
  117OSM    H7T12281   1.474   3.670  10.062 -0.6720 -0.7282  2.5061
  117OSM    C8S12282   1.366   3.816   9.937 -0.2157  0.6053 -0.2062
  117OSM    H8S12283   1.313   3.914   9.946  1.7175  1.5706  1.7068
  117OSM    H8T12284   1.317   3.748   9.865  1.2727 -0.2464 -0.4484
  117OSM    C9S12285   1.502   3.856   9.887  0.1470  0.6845 -0.4728
  117OSM    H9S12286   1.549   3.763   9.847 -0.0814  0.4278 -0.1540
  117OSM    H9T12287   1.579   3.895   9.957  1.8952 -2.2069 -0.6070
  117OSM   C10S12288   1.488   3.952   9.764  0.0530  0.1555 -0.2299
  117OSM   H10S12289   1.590   3.982   9.733 -0.1706  0.4687 -0.6757
  117OSM   H10T12290   1.443   4.048   9.796  0.6929  0.5480 -0.4834
  117OSM   C11S12291   1.416   3.903   9.635 -0.1909  0.5726 -0.0170
  117OSM   H11S12292   1.306   3.917   9.638 -0.1669  0.6631  0.7868
  117OSM   H11T12293   1.445   3.798   9.612  0.1068  0.4372  0.9024
  117OSM   C12S12294   1.452   3.993   9.516 -0.1049  0.3507 -0.4712
  117OSM   H12S12295   1.561   3.985   9.494  0.6904  1.8934  2.5188
  117OSM   H12T12296   1.428   4.100   9.535 -0.9863  0.4170 -1.8267
  117OSM   C13S12297   1.380   3.941   9.387 -0.0003 -0.1064 -0.3898
  117OSM   H13S12298   1.273   3.943   9.417 -0.6815  0.5702 -2.6489
  117OSM   H13T12299   1.394   3.832   9.371  0.8983 -0.2372  1.1166
  117OSM   C14S12300   1.392   4.027   9.261  0.4585  0.1151 -0.9806
  117OSM   H14S12301   1.501   4.048   9.250  0.6732 -1.5415 -2.5257
  117OSM   H14T12302   1.348   4.128   9.269  0.3712 -0.0487  0.8071
  117OSM   C15S12303   1.348   3.955   9.139  0.3072 -0.5158  0.0755
  117OSM   H15S12304   1.244   3.916   9.147  0.2918 -0.2114  1.6358
  117OSM   H15T12305   1.423   3.874   9.125  2.2699  0.9412  1.6518
  117OSM   C16S12306   1.327   4.052   9.016 -0.0899  0.2651  0.0534
  117OSM   H16S12307   1.426   4.072   8.969 -0.0243  2.6513  1.0580
  117OSM   H16T12308   1.287   4.148   9.054  1.3359  0.4329  1.2044
  117OSM   C17S12309   1.224   3.999   8.919 -0.1612 -0.6396 -0.5690
  117OSM   H17S12310   1.236   3.891   8.896  0.3357 -0.4444 -1.2666
  117OSM   H17T12311   1.240   4.048   8.820 -2.7278 -1.8326 -1.6884
  117OSM   C18S12312   1.078   4.036   8.961  0.3169 -0.0536 -0.5250
  117OSM   H18S12313   1.004   4.008   8.883  0.7215  1.1103 -1.3418
  117OSM   H18T12314   1.060   4.145   8.972  1.8692  0.1676  0.1094
  117OSM   H18U12315   1.050   3.986   9.056 -2.5621  0.0740 -1.2180
  117OSM    C1F12316   1.298   3.308  10.403 -0.7731 -0.8431  0.3822
  117OSM     OF12317   1.187   3.268  10.423 -0.3408 -0.0452  0.2475
  117OSM    C2F12318   1.393   3.217  10.358 -0.0478  0.6136 -0.7143
  117OSM    H2F12319   1.375   3.122  10.412  3.3535 -0.7686 -1.7185
  117OSM    H2G12320   1.497   3.251  10.376 -0.7173  1.5722  1.8057
  117OSM    C3F12321   1.361   3.190  10.206 -0.4752  0.3624  0.4080
  117OSM    H3F12322   1.254   3.161  10.200 -0.2749 -0.2745 -0.2232
  117OSM    H3G12323   1.412   3.099  10.167  0.3186  0.3795  1.3582
  117OSM    C4F12324   1.378   3.302  10.105  0.2773 -0.4569 -0.1750
  117OSM    H4F12325   1.481   3.344  10.102 -0.0177  0.5073  1.4789
  117OSM    H4G12326   1.314   3.385  10.142  1.0990  0.6139 -1.0946
  117OSM    C5F12327   1.319   3.267   9.967  0.4422 -0.1726 -0.0002
  117OSM    H5F12328   1.229   3.204   9.984  0.0890  0.1629 -0.6136
  117OSM    H5G12329   1.403   3.205   9.928  0.9475  0.4161  0.1364
  117OSM    C6F12330   1.303   3.396   9.882  0.6335  0.2914 -0.2299
  117OSM    H6F12331   1.404   3.429   9.850  0.8016  0.2735  0.2696
  117OSM    H6G12332   1.244   3.474   9.934  0.0821 -0.6560  0.6092
  117OSM    C7F12333   1.210   3.365   9.764 -0.1998  0.8154 -0.0073
  117OSM    H7F12334   1.112   3.323   9.792 -0.5382  1.2451 -0.5180
  117OSM    H7G12335   1.268   3.293   9.703  1.6703 -0.2716  2.8709
  117OSM    C8F12336   1.185   3.496   9.680  0.0428 -0.6804  0.5233
  117OSM    H8F12337   1.120   3.556   9.747 -0.1916 -1.4576  0.9907
  117OSM    H8G12338   1.113   3.481   9.596 -1.8660  1.6680  1.6062
  117OSM    C9F12339   1.314   3.561   9.630  0.5373  0.2799 -0.4076
  117OSM    H9F12340   1.369   3.614   9.710 -3.2652  0.4312  2.3814
  117OSM   C10F12341   1.357   3.566   9.507  0.5205  0.6575  0.4128
  117OSM   H10F12342   1.454   3.613   9.481  0.9194 -0.0810  0.5452
  117OSM   C11F12343   1.294   3.505   9.386 -0.5324 -0.0550  0.6391
  117OSM   H11F12344   1.269   3.588   9.317  1.2740 -0.4677 -0.5993
  117OSM   H11G12345   1.200   3.454   9.414 -0.7528  0.2222  0.4048
  117OSM   C12F12346   1.379   3.419   9.287  0.2836 -1.1076 -0.2691
  117OSM   H12F12347   1.371   3.311   9.309 -0.8404 -1.0627 -0.3849
  117OSM   H12G12348   1.487   3.443   9.281  0.2587 -0.6551  0.9413
  117OSM   C13F12349   1.334   3.439   9.145  0.4467 -1.0939  0.7467
  117OSM   H13F12350   1.331   3.547   9.116 -0.0518 -1.3612 -0.2634
  117OSM   H13G12351   1.239   3.383   9.131 -0.3800 -0.3194  2.8987
  117OSM   C14F12352   1.434   3.358   9.054 -0.3042 -0.1007  0.4039
  117OSM   H14F12353   1.416   3.249   9.070 -1.9089 -0.3029 -2.0878
  117OSM   H14G12354   1.539   3.379   9.079 -0.0341  0.6225 -1.1927
  117OSM   C15F12355   1.410   3.377   8.905 -0.3582 -0.6907 -0.3052
  117OSM   H15F12356   1.300   3.367   8.892 -0.4771 -0.8279  0.6822
  117OSM   H15G12357   1.468   3.297   8.855  0.6440 -0.3644  0.3138
  117OSM   C16F12358   1.445   3.510   8.845 -0.4818 -0.5802 -1.0618
  117OSM   H16F12359   1.395   3.593   8.899  1.2929 -1.4869  2.1849
  117OSM   H16G12360   1.406   3.521   8.741  0.9558 -2.4223 -1.8511
  117OSM   C17F12361   1.599   3.540   8.837  0.7723 -0.2238  0.2934
  117OSM   H17F12362   1.659   3.509   8.925  1.7194  0.9606  0.0844
  117OSM   H17G12363   1.601   3.651   8.840 -0.7195 -0.1456 -0.3824
  117OSM   C18F12364   1.662   3.493   8.707  0.5539  0.3403  0.2947
  117OSM   H18F12365   1.621   3.535   8.613  2.8616  0.2760 -0.8068
  117OSM   H18G12366   1.632   3.386   8.702  0.2650  0.2338  2.9581
  117OSM   H18H12367   1.773   3.504   8.706  0.4142  1.9005 -0.5291
  118OSM      N12368   0.304   4.498  11.383  0.8800  0.0311 -0.7952
  118OSM    C1512369   0.337   4.353  11.423  0.1297  0.0171  0.5970
  118OSM   H15A12370   0.444   4.345  11.418 -0.0373 -1.8855 -1.2382
  118OSM   H15B12371   0.290   4.286  11.353 -0.4049  1.3925 -0.4067
  118OSM   H15C12372   0.312   4.331  11.526 -1.1507 -1.6741 -0.0254
  118OSM    C1412373   0.151   4.499  11.419  0.3981  0.4321 -0.8499
  118OSM   H14A12374   0.110   4.409  11.377 -0.4497 -0.1206  1.0829
  118OSM   H14B12375   0.103   4.592  11.390  1.0086  0.2405 -2.6135
  118OSM   H14C12376   0.134   4.497  11.526 -0.7054  0.8460 -1.0091
  118OSM    C1312377   0.375   4.598  11.458  0.3936 -0.4376 -0.2532
  118OSM   H13A12378   0.357   4.699  11.423 -1.4626  0.2391  2.3327
  118OSM   H13B12379   0.482   4.588  11.460  0.7881  2.7183  0.4860
  118OSM   H13C12380   0.354   4.599  11.564 -1.8776 -0.0069 -0.6410
  118OSM    C1212381   0.317   4.527  11.239  0.0261 -1.2321  0.4158
  118OSM   H12A12382   0.272   4.624  11.225 -0.8390 -1.9428 -2.5265
  118OSM   H12B12383   0.267   4.448  11.185  0.3074 -1.5928  0.6765
  118OSM    C1112384   0.457   4.529  11.187  0.9752 -0.0037  0.4189
  118OSM   H11A12385   0.461   4.527  11.076 -3.7931  0.4801  0.0268
  118OSM   H11B12386   0.512   4.445  11.234  0.0220 -0.3787  0.8900
  118OSM      P12387   0.488   4.783  11.169 -0.2437 -0.2573 -0.1699
  118OSM    O1312388   0.421   4.863  11.268  0.3246 -0.5507 -0.3673
  118OSM    O1412389   0.616   4.831  11.116 -0.0984 -0.1702  0.5101
  118OSM    O1112390   0.399   4.760  11.042  0.0672  0.0796  0.7201
  118OSM    O1212391   0.524   4.645  11.232 -0.1680  0.2049  0.2011
  118OSM    C1S12392   0.411   4.843  10.926 -0.1256  0.0731  0.6039
  118OSM    H1S12393   0.500   4.909  10.913  0.0114 -0.1102  0.6082
  118OSM    H1T12394   0.332   4.920  10.916 -0.6108 -0.4481  0.4018
  118OSM     NF12395   0.440   4.821  10.685 -0.5149  0.5335 -0.1665
  118OSM    HNF12396   0.367   4.844  10.621 -3.6509  1.8635  3.4878
  118OSM    C2S12397   0.407   4.746  10.804  0.2010 -0.4219 -0.2184
  118OSM    H2S12398   0.485   4.668  10.821 -0.8507 -1.4791 -0.1293
  118OSM    C3S12399   0.271   4.670  10.805  0.4282 -0.4883  0.2288
  118OSM    H3S12400   0.193   4.748  10.792 -0.1474 -1.4244 -2.7177
  118OSM     O312401   0.242   4.588  10.921  0.1095 -0.0756 -0.6235
  118OSM    HO312402   0.306   4.624  10.983  1.5720 -2.3481 -0.6925
  118OSM    C4S12403   0.270   4.588  10.678 -0.2709  0.3344 -0.4075
  118OSM    H4S12404   0.222   4.637  10.592 -2.5520  0.9267  1.0877
  118OSM    C5S12405   0.312   4.460  10.663 -0.1170  0.1671  0.0706
  118OSM    H5S12406   0.346   4.400  10.748  0.3895  0.2362 -0.0792
  118OSM    C6S12407   0.320   4.385  10.535 -0.5368  0.4620  0.5624
  118OSM    H6S12408   0.250   4.299  10.539  0.3700 -0.2963  0.4517
  118OSM    H6T12409   0.419   4.335  10.525  0.5611  2.7259 -0.7129
  118OSM    C7S12410   0.300   4.466  10.412 -0.2505 -0.0632 -0.1914
  118OSM    H7S12411   0.381   4.539  10.390 -1.2550  1.1978  0.1199
  118OSM    H7T12412   0.211   4.532  10.421 -0.7670 -0.9418  1.8023
  118OSM    C8S12413   0.285   4.388  10.286 -0.3697 -0.3566 -0.1733
  118OSM    H8S12414   0.197   4.321  10.278  0.2582 -1.0154 -2.4983
  118OSM    H8T12415   0.376   4.328  10.268  1.6267  2.2380  0.6572
  118OSM    C9S12416   0.274   4.487  10.170 -0.0822 -0.2219  0.7349
  118OSM    H9S12417   0.358   4.559  10.172 -0.7583  0.6027  2.5185
  118OSM    H9T12418   0.177   4.541  10.167  0.4122  0.8127 -4.3407
  118OSM   C10S12419   0.264   4.404  10.044 -0.0098  0.0609 -0.1794
  118OSM   H10S12420   0.162   4.362  10.031 -0.6797  1.9568 -1.5980
  118OSM   H10T12421   0.346   4.329  10.045 -0.4964 -0.6471 -2.9517
  118OSM   C11S12422   0.288   4.497   9.921 -0.0566  0.0893 -0.2511
  118OSM   H11S12423   0.355   4.582   9.942 -3.1831  3.3593 -2.3110
  118OSM   H11T12424   0.191   4.546   9.897 -2.8606 -3.7631  2.0226
  118OSM   C12S12425   0.332   4.420   9.791 -0.7409  0.3401 -0.1165
  118OSM   H12S12426   0.245   4.354   9.772 -0.7473  0.5407 -0.7891
  118OSM   H12T12427   0.426   4.363   9.806 -1.2951 -0.5838 -0.0576
  118OSM   C13S12428   0.350   4.517   9.672  0.3137 -0.4772  0.7563
  118OSM   H13S12429   0.453   4.558   9.682  0.7215 -0.7873 -1.4849
  118OSM   H13T12430   0.286   4.607   9.671  1.2154  0.2181 -1.4530
  118OSM   C14S12431   0.332   4.457   9.534  0.1898  0.2192  0.3467
  118OSM   H14S12432   0.240   4.395   9.532  0.7644 -0.6366  0.1765
  118OSM   H14T12433   0.426   4.401   9.512  2.0580  1.8607  3.4134
  118OSM   C15S12434   0.323   4.563   9.418 -0.3440 -0.4508 -0.4749
  118OSM   H15S12435   0.410   4.631   9.435  0.2795 -1.4044  0.2386
  118OSM   H15T12436   0.232   4.626   9.432 -0.0726 -0.3842  1.2000
  118OSM   C16S12437   0.330   4.514   9.276  0.1759  0.8352 -0.2673
  118OSM   H16S12438   0.238   4.460   9.247 -0.3549  1.8336 -0.4797
  118OSM   H16T12439   0.418   4.447   9.260 -0.4845  0.2447 -1.6339
  118OSM   C17S12440   0.335   4.623   9.173  0.7604 -0.1918 -0.4152
  118OSM   H17S12441   0.425   4.688   9.182 -0.4497  1.8548 -2.1646
  118OSM   H17T12442   0.242   4.682   9.189 -0.0546 -1.3189 -0.9105
  118OSM   C18S12443   0.330   4.587   9.034 -0.4656  0.7281  0.3208
  118OSM   H18S12444   0.356   4.672   8.968  1.1062 -0.7695 -1.0844
  118OSM   H18T12445   0.243   4.533   8.989 -0.3452  2.1200 -1.6831
  118OSM   H18U12446   0.413   4.516   9.018 -0.8967  0.2940 -0.0343
  118OSM    C1F12447   0.577   4.843  10.660 -0.0431 -0.1935  0.0444
  118OSM     OF12448   0.659   4.825  10.752 -0.3619  0.8672  0.2710
  118OSM    C2F12449   0.618   4.887  10.521 -0.2346  0.1443  0.6429
  118OSM    H2F12450   0.548   4.952  10.463 -0.9521  0.3821  1.7597
  118OSM    H2G12451   0.631   4.794  10.461  1.7835  0.7656  0.0052
  118OSM    C3F12452   0.755   4.959  10.529  0.4717  0.3515 -0.3002
  118OSM    H3F12453   0.825   4.889  10.578 -0.7497 -0.9937 -0.4046
  118OSM    H3G12454   0.745   5.056  10.583  0.0250  1.0696 -1.6186
  118OSM    C4F12455   0.811   4.998  10.390 -0.0461  0.7043 -0.3128
  118OSM    H4F12456   0.812   4.911  10.322  0.9578 -0.1306  0.7088
  118OSM    H4G12457   0.916   5.032  10.410  0.5260 -0.4940 -1.1747
  118OSM    C5F12458   0.728   5.115  10.325  0.2347  0.2349 -0.2016
  118OSM    H5F12459   0.773   5.209  10.364  0.3026 -0.2081  0.8027
  118OSM    H5G12460   0.619   5.108  10.346  0.5362  0.0005  1.3664
  118OSM    C6F12461   0.732   5.104  10.173  0.3120 -0.6960  1.1281
  118OSM    H6F12462   0.684   5.014  10.131  0.2090  0.0009 -0.2954
  118OSM    H6G12463   0.838   5.105  10.139 -1.1740 -1.2204 -4.4996
  118OSM    C7F12464   0.659   5.226  10.111  0.6349  0.3342 -0.2141
  118OSM    H7F12465   0.674   5.323  10.164  2.1338 -0.6131  1.2265
  118OSM    H7G12466   0.550   5.208  10.112  0.1516  2.9000  0.2206
  118OSM    C8F12467   0.682   5.231   9.952 -0.4095 -0.3340 -0.3461
  118OSM    H8F12468   0.629   5.140   9.916 -1.2306  0.1979 -0.5098
  118OSM    H8G12469   0.790   5.218   9.934 -0.4017 -1.6435  0.5024
  118OSM    C9F12470   0.621   5.356   9.890  0.4007  0.0993 -0.2647
  118OSM    H9F12471   0.584   5.427   9.966  2.7698 -0.1322  1.1915
  118OSM   C10F12472   0.634   5.395   9.760 -0.3849  0.1091 -0.3199
  118OSM   H10F12473   0.587   5.491   9.734 -0.2124  0.2922  0.0394
  118OSM   C11F12474   0.701   5.324   9.643  0.0168 -0.2672 -0.2130
  118OSM   H11F12475   0.703   5.216   9.669 -0.4138 -0.2304 -0.0225
  118OSM   H11G12476   0.803   5.368   9.637  0.1599 -0.5593  0.0866
  118OSM   C12F12477   0.640   5.347   9.506  0.1525 -0.0856  0.0184
  118OSM   H12F12478   0.637   5.456   9.484  1.1107  0.0165  0.3332
  118OSM   H12G12479   0.532   5.322   9.510 -0.2962  1.7983  0.4206
  118OSM   C13F12480   0.709   5.269   9.401  0.0888 -0.5762 -0.1544
  118OSM   H13F12481   0.677   5.163   9.403 -0.5999 -0.3838 -0.5534
  118OSM   H13G12482   0.818   5.264   9.425  0.2528  0.2741 -0.6661
  118OSM   C14F12483   0.692   5.326   9.257 -0.0448  0.5868  0.1340
  118OSM   H14F12484   0.743   5.425   9.253  1.8149 -0.3614 -1.1366
  118OSM   H14G12485   0.582   5.340   9.247  0.0135  1.5201  0.7285
  118OSM   C15F12486   0.751   5.238   9.150 -0.5242 -0.5221 -0.1252
  118OSM   H15F12487   0.720   5.132   9.165 -1.1672 -0.3244 -0.0020
  118OSM   H15G12488   0.860   5.241   9.169 -0.5942 -1.0568  0.3785
  118OSM   C16F12489   0.698   5.288   9.019 -0.1524  0.2837  0.4960
  118OSM   H16F12490   0.743   5.388   8.996 -3.7562  1.6773 -1.2526
  118OSM   H16G12491   0.590   5.308   9.007  0.0603  2.4452  1.6987
  118OSM   C17F12492   0.751   5.202   8.907  0.0359  0.7708  0.6395
  118OSM   H17F12493   0.694   5.107   8.903  0.4378  0.5666 -1.9327
  118OSM   H17G12494   0.859   5.183   8.924  0.2493  1.6223  0.2814
  118OSM   C18F12495   0.746   5.268   8.766  0.1478  0.2671 -0.0145
  118OSM   H18F12496   0.789   5.194   8.694 -0.1836 -0.9842  1.0395
  118OSM   H18G12497   0.801   5.364   8.756 -1.2090  1.0123 -0.5533
  118OSM   H18H12498   0.641   5.284   8.731 -0.2366 -2.8463 -0.6307
  119OSM      N12499   1.569   4.303  11.323 -0.2147  0.2779 -0.2564
  119OSM    C1512500   1.636   4.210  11.416 -0.0416  0.3080  0.8336
  119OSM   H15A12501   1.742   4.207  11.394  0.2356  1.7077  1.8603
  119OSM   H15B12502   1.596   4.112  11.394  0.3047  0.3115  0.1587
  119OSM   H15C12503   1.614   4.236  11.519 -3.0182 -1.5074  0.7734
  119OSM    C1412504   1.424   4.322  11.337  0.5993 -0.8599 -0.2526
  119OSM   H14A12505   1.367   4.232  11.321  0.4824 -0.7202 -0.6409
  119OSM   H14B12506   1.379   4.378  11.256  0.1225 -3.0011 -1.5265
  119OSM   H14C12507   1.399   4.353  11.437 -0.3435  0.7280 -0.9328
  119OSM    C1312508   1.634   4.435  11.338  0.5045 -0.0906  0.0097
  119OSM   H13A12509   1.741   4.418  11.341  0.5383 -0.0181 -0.6376
  119OSM   H13B12510   1.596   4.488  11.425 -1.8416 -2.8206  0.7781
  119OSM   H13C12511   1.621   4.497  11.250  1.3825  0.6812  0.3968
  119OSM    C1212512   1.581   4.251  11.182 -0.6937 -0.1921 -0.0234
  119OSM   H12A12513   1.518   4.319  11.126 -0.9237  1.7070  2.3722
  119OSM   H12B12514   1.539   4.152  11.185  0.6623 -0.7719  1.4768
  119OSM    C1112515   1.718   4.256  11.112 -0.2967  0.0025  0.5462
  119OSM   H11A12516   1.717   4.206  11.014  1.1325  0.4889  0.2564
  119OSM   H11B12517   1.795   4.200  11.168  1.3236  0.7123 -0.8862
  119OSM      P12518   1.900   4.449  11.129 -0.2304  0.1750 -0.1735
  119OSM    O1312519   1.890   4.596  11.135  0.1516 -0.1249  0.0692
  119OSM    O1412520   1.944   4.387  11.255 -0.5990  0.4354  0.2049
  119OSM    O1112521   1.994   4.401  11.016 -0.3541 -0.2502  0.9053
  119OSM    O1212522   1.760   4.394  11.087 -0.1529 -0.0538 -0.0460
  119OSM    C1S12523   1.958   4.405  10.875  0.1103  0.3981 -0.1871
  119OSM    H1S12524   1.848   4.415  10.862 -0.0635  0.7048  1.4151
  119OSM    H1T12525   1.981   4.305  10.832  0.5756  0.0022  0.9475
  119OSM     NF12526   1.978   4.526  10.663 -0.0348 -0.1627  0.1825
  119OSM    HNF12527   2.014   4.473  10.586  0.0216  0.3346 -0.1349
  119OSM    C2S12528   2.038   4.502  10.791 -0.2393 -0.1769 -0.1938
  119OSM    H2S12529   2.036   4.596  10.851 -1.7216 -0.6860  0.6058
  119OSM    C3S12530   2.181   4.455  10.787  0.8237  0.5890  0.1548
  119OSM    H3S12531   2.170   4.351  10.747 -1.4811  0.7983  0.0948
  119OSM     O312532   2.240   4.437  10.917 -0.0879 -0.1159 -0.4280
  119OSM    HO312533   2.160   4.424  10.969  0.5030  1.2879  0.8915
  119OSM    C4S12534   2.269   4.548  10.714 -0.5808  1.0570  0.2197
  119OSM    H4S12535   2.269   4.648  10.758 -0.4310  2.3753 -2.5801
  119OSM    C5S12536   2.349   4.511  10.613 -0.4149 -0.8826 -0.1332
  119OSM    H5S12537   2.363   4.405  10.589 -0.9694 -0.9105 -0.3649
  119OSM    C6S12538   2.442   4.597  10.527  0.1942  0.4346 -0.2409
  119OSM    H6S12539   2.424   4.569  10.421 -0.2747  0.6149 -0.2132
  119OSM    H6T12540   2.552   4.584  10.535  0.1670  0.3785  0.0246
  119OSM    C7S12541   2.430   4.753  10.524  0.4341 -0.4459 -0.0507
  119OSM    H7S12542   2.473   4.780  10.623  2.1620 -0.4309 -0.7669
  119OSM    H7T12543   2.321   4.771  10.536  0.4485 -0.7919  0.6783
  119OSM    C8S12544   2.507   4.811  10.404  0.0438  0.3325  0.0610
  119OSM    H8S12545   2.603   4.757  10.392  1.5180  2.8945 -0.3410
  119OSM    H8T12546   2.540   4.916  10.419  0.6094  0.0521  0.8423
  119OSM    C9S12547   2.436   4.792  10.270  0.3375  0.0521 -0.1220
  119OSM    H9S12548   2.329   4.821  10.287 -0.4496 -2.6946  0.1607
  119OSM    H9T12549   2.445   4.683  10.253 -1.4213 -0.0062 -0.9264
  119OSM   C10S12550   2.498   4.860  10.151 -0.0172  0.1025 -0.5663
  119OSM   H10S12551   2.598   4.814  10.138  0.2138  0.2869  0.4834
  119OSM   H10T12552   2.509   4.971  10.154  2.2450  0.1017 -3.4605
  119OSM   C11S12553   2.417   4.829  10.023  0.0143 -0.1053 -0.0026
  119OSM   H11S12554   2.324   4.889  10.017  2.0083  3.2030 -0.5424
  119OSM   H11T12555   2.414   4.719  10.005  0.1413 -0.0488 -0.3846
  119OSM   C12S12556   2.489   4.876   9.893 -0.2114 -0.6585 -0.8166
  119OSM   H12S12557   2.585   4.820   9.883  0.4785  0.6545 -1.7446
  119OSM   H12T12558   2.519   4.982   9.898 -0.8940 -0.2920 -3.2507
  119OSM   C13S12559   2.417   4.843   9.761 -0.8252 -0.0855  0.0485
  119OSM   H13S12560   2.327   4.908   9.753 -0.2507  0.6799 -0.3739
  119OSM   H13T12561   2.383   4.738   9.763  0.5198 -0.8801 -4.7672
  119OSM   C14S12562   2.518   4.869   9.642  0.2689  0.0909  0.5615
  119OSM   H14S12563   2.571   4.780   9.600  1.0258  1.1521 -0.8163
  119OSM   H14T12564   2.592   4.949   9.666  0.7194 -0.6788  1.8315
  119OSM   C15S12565   2.434   4.932   9.530 -0.1139 -0.2271 -0.0555
  119OSM   H15S12566   2.384   5.025   9.562  0.7354  1.0146 -2.1275
  119OSM   H15T12567   2.356   4.858   9.500  0.5094 -0.6263 -0.7533
  119OSM   C16S12568   2.507   4.971   9.406  0.2362 -0.0399 -0.2502
  119OSM   H16S12569   2.617   4.954   9.407  0.1841 -0.3667  0.9237
  119OSM   H16T12570   2.495   5.080   9.388  0.4369 -0.4451 -3.4636
  119OSM   C17S12571   2.444   4.894   9.292 -0.0492  0.3770  0.4040
  119OSM   H17S12572   2.335   4.909   9.307 -0.5627 -1.2602 -1.3150
  119OSM   H17T12573   2.455   4.784   9.297  0.9574  0.4148 -0.6960
  119OSM   C18S12574   2.481   4.943   9.151 -0.2653 -0.9050  0.3508
  119OSM   H18S12575   2.417   4.886   9.081 -0.3623  2.1134 -2.1888
  119OSM   H18T12576   2.580   4.901   9.124  0.3962  0.8474 -0.0959
  119OSM   H18U12577   2.478   5.050   9.124  1.6268 -1.1289 -0.8816
  119OSM    C1F12578   1.873   4.608  10.649  0.1450 -0.4566  0.6359
  119OSM     OF12579   1.825   4.663  10.744 -0.4767 -0.1034  0.4693
  119OSM    C2F12580   1.829   4.631  10.504  0.1035  0.3150 -0.5220
  119OSM    H2F12581   1.719   4.647  10.510  0.1651  1.1281 -1.2912
  119OSM    H2G12582   1.859   4.540  10.447  1.1466  0.2859  0.0438
  119OSM    C3F12583   1.899   4.746  10.431  0.4216 -0.1307 -0.4056
  119OSM    H3F12584   2.004   4.735  10.397  0.5847  1.7037 -0.5796
  119OSM    H3G12585   1.894   4.843  10.484  3.0626 -0.1732  0.0657
  119OSM    C4F12586   1.833   4.767  10.292 -0.4443 -0.2071  0.0630
  119OSM    H4F12587   1.767   4.679  10.274 -2.1276  0.8929  0.6412
  119OSM    H4G12588   1.909   4.765  10.211  1.5453 -0.5119  1.8396
  119OSM    C5F12589   1.746   4.893  10.277 -0.9038 -0.1761  0.3831
  119OSM    H5F12590   1.807   4.984  10.261 -0.5345 -0.9341 -3.5359
  119OSM    H5G12591   1.683   4.915  10.366 -0.0682 -0.5762  1.0971
  119OSM    C6F12592   1.661   4.891  10.152  0.3393  0.3671  0.2008
  119OSM    H6F12593   1.603   4.984  10.133  0.2339  0.0745 -1.0470
  119OSM    H6G12594   1.586   4.812  10.173  1.0028 -1.5856 -3.7028
  119OSM    C7F12595   1.713   4.855  10.014  0.0129 -0.3664  0.6516
  119OSM    H7F12596   1.779   4.766  10.005  1.5521  0.3792  3.3465
  119OSM    H7G12597   1.777   4.942   9.989 -0.9936  0.0465 -0.6204
  119OSM    C8F12598   1.611   4.830   9.907  0.2837 -0.0081  0.0572
  119OSM    H8F12599   1.668   4.833   9.811  0.4359  1.6683  0.1663
  119OSM    H8G12600   1.545   4.919   9.897 -2.2427 -1.3444  3.0575
  119OSM    C9F12601   1.527   4.701   9.908 -0.2090  0.2279  0.0901
  119OSM    H9F12602   1.446   4.715   9.981 -0.8135 -0.5511 -0.4100
  119OSM   C10F12603   1.547   4.596   9.828  0.5203  0.4150 -0.1120
  119OSM   H10F12604   1.473   4.516   9.844  0.7748 -0.1662 -1.6496
  119OSM   C11F12605   1.657   4.590   9.724 -0.3159  0.6553  0.4064
  119OSM   H11F12606   1.671   4.678   9.657 -0.0202  0.3027 -0.0024
  119OSM   H11G12607   1.641   4.496   9.666  0.9043 -0.1675  1.3479
  119OSM   C12F12608   1.791   4.575   9.804  0.1174  0.1891  1.2555
  119OSM   H12F12609   1.789   4.489   9.875 -1.3473  0.4914  1.6136
  119OSM   H12G12610   1.827   4.668   9.852  1.3702  0.7973 -0.7419
  119OSM   C13F12611   1.913   4.544   9.719  0.3969 -0.4965 -0.3161
  119OSM   H13F12612   1.924   4.437   9.695 -2.0385 -0.0920 -3.9558
  119OSM   H13G12613   1.998   4.588   9.776 -0.8265 -0.9870  2.0045
  119OSM   C14F12614   1.909   4.611   9.577 -0.7063 -0.5198 -0.2736
  119OSM   H14F12615   1.902   4.719   9.600 -1.2222 -0.9752  1.9053
  119OSM   H14G12616   1.819   4.574   9.523 -1.0202  0.5243 -0.4705
  119OSM   C15F12617   2.028   4.577   9.495 -0.4178 -0.2617  0.7099
  119OSM   H15F12618   2.037   4.467   9.488  0.4818 -0.2560  1.4788
  119OSM   H15G12619   2.125   4.610   9.539  0.3631 -2.5246  0.8009
  119OSM   C16F12620   2.024   4.624   9.345 -0.0666 -0.3288  0.3000
  119OSM   H16F12621   2.124   4.607   9.300  0.6267  2.3169  0.6766
  119OSM   H16G12622   1.999   4.732   9.342 -0.1894 -0.3658 -3.2131
  119OSM   C17F12623   1.914   4.546   9.270 -0.4300  0.0509  0.3175
  119OSM   H17F12624   1.812   4.580   9.300 -1.3947 -1.0322 -1.5318
  119OSM   H17G12625   1.916   4.435   9.275  1.4818 -0.2997 -3.7875
  119OSM   C18F12626   1.933   4.578   9.121 -0.2208  0.2897 -0.0937
  119OSM   H18F12627   1.851   4.529   9.063 -0.3181  2.2468 -1.7241
  119OSM   H18G12628   2.030   4.537   9.085 -1.1729 -2.1699 -0.0619
  119OSM   H18H12629   1.926   4.687   9.104  1.4807  0.5249  0.5128
  120OSM      N12630   5.996   0.062  10.926  0.7704  0.5421  0.4017
  120OSM    C1512631   6.100   0.146  10.868  0.2550  0.2001  0.4303
  120OSM   H15A12632   6.119   0.118  10.765 -2.0531  0.0950 -0.0053
  120OSM   H15B12633   6.190   0.148  10.928 -0.3785  0.0895  1.3946
  120OSM   H15C12634   6.080   0.253  10.870 -1.1151  0.0242 -1.2775
  120OSM    C1412635   6.052  -0.078  10.915  0.9061 -0.1080 -0.4132
  120OSM   H14A12636   6.069  -0.093  10.810  0.7068  1.4674 -0.6885
  120OSM   H14B12637   5.990  -0.158  10.953  3.5312 -2.6026 -1.0788
  120OSM   H14C12638   6.142  -0.086  10.974 -0.2975 -0.9959  1.4226
  120OSM    C1312639   5.967   0.095  11.070  0.3298 -0.8158  0.8638
  120OSM   H13A12640   5.936   0.199  11.074 -0.6864 -1.0996  0.7608
  120OSM   H13B12641   6.056   0.090  11.131  0.6868 -0.3223  0.3973
  120OSM   H13C12642   5.889   0.029  11.104 -1.8120  0.8443 -0.5632
  120OSM    C1212643   5.863   0.059  10.849  0.3069  0.2930  0.1192
  120OSM   H12A12644   5.811   0.151  10.871  0.8963  0.8887 -0.8736
  120OSM   H12B12645   5.804  -0.025  10.881  0.2523  0.7816  1.3459
  120OSM    C1112646   5.872   0.053  10.693  0.0874 -0.2409  0.2177
  120OSM   H11A12647   5.777   0.028  10.640 -0.8239  1.4011  1.0081
  120OSM   H11B12648   5.942  -0.033  10.679  1.5695  0.6109  2.0805
  120OSM      P12649   5.842   0.314  10.635  0.1321  0.0636 -0.1931
  120OSM    O1312650   5.740   0.311  10.529 -0.5800 -0.6574 -0.1757
  120OSM    O1412651   5.791   0.361  10.771 -0.2676  0.0044 -0.5890
  120OSM    O1112652   5.958   0.416  10.584 -0.3313  0.3630  0.2810
  120OSM    O1212653   5.926   0.183  10.641  0.7072 -0.4385 -0.6296
  120OSM    C1S12654   6.023   0.385  10.462 -0.1908  0.0691 -0.0242
  120OSM    H1S12655   6.020   0.275  10.448 -3.8973 -0.0006  0.3137
  120OSM    H1T12656   6.129   0.420  10.460  0.0640 -0.5765  1.2442
  120OSM     NF12657   5.991   0.386  10.215 -0.2350  0.4613 -0.1164
  120OSM    HNF12658   6.056   0.441  10.164  0.0826  0.9038  0.7602
  120OSM    C2S12659   5.936   0.439  10.340 -0.3123  0.9608  0.0723
  120OSM    H2S12660   5.833   0.396  10.340  0.2040 -0.3343  0.7468
  120OSM    C3S12661   5.931   0.592  10.335  0.0794  0.0621 -0.8879
  120OSM    H3S12662   6.030   0.628  10.300  0.5420  0.8461  1.1056
  120OSM     O312663   5.901   0.645  10.469  0.0761 -0.3939  0.4774
  120OSM    HO312664   5.914   0.571  10.529 -1.3360 -0.2909  0.9589
  120OSM    C4S12665   5.827   0.636  10.233 -0.4850  0.6649  0.1272
  120OSM    H4S12666   5.729   0.589  10.251 -0.1291  0.6643  2.2252
  120OSM    C5S12667   5.857   0.709  10.125 -0.3848 -0.3772 -0.0673
  120OSM    H5S12668   5.959   0.746  10.113 -1.2629  1.5275 -2.4691
  120OSM    C6S12669   5.763   0.743  10.014  0.7170  0.3125  0.1938
  120OSM    H6S12670   5.796   0.690   9.923 -1.3675  0.9923 -1.0297
  120OSM    H6T12671   5.762   0.854  10.002 -1.9701  0.3123 -0.3442
  120OSM    C7S12672   5.608   0.702  10.035  0.0578  0.4618 -0.6110
  120OSM    H7S12673   5.578   0.728  10.139 -0.1125 -2.6099  0.2014
  120OSM    H7T12674   5.585   0.594  10.034  0.8543  0.2881 -2.4148
  120OSM    C8S12675   5.505   0.753   9.931 -0.5834  0.8567  0.9794
  120OSM    H8S12676   5.476   0.856   9.962 -1.0280  0.3461  2.2992
  120OSM    H8T12677   5.416   0.688   9.928  0.3911 -0.9528  4.8361
  120OSM    C9S12678   5.553   0.768   9.785  0.1770  0.2538 -1.0272
  120OSM    H9S12679   5.615   0.678   9.769  1.3686  0.6334  1.0641
  120OSM    H9T12680   5.616   0.859   9.786 -2.0512  1.9080 -2.0275
  120OSM   C10S12681   5.451   0.781   9.682 -0.0549 -0.3544  0.2033
  120OSM   H10S12682   5.393   0.871   9.708  0.2014 -0.0559 -0.2480
  120OSM   H10T12683   5.374   0.701   9.671 -1.3556  0.5917  2.0187
  120OSM   C11S12684   5.513   0.806   9.544 -0.1436 -0.0844 -0.2318
  120OSM   H11S12685   5.539   0.708   9.498 -0.8588  0.2722 -1.4388
  120OSM   H11T12686   5.609   0.860   9.557  0.6097 -0.9865 -1.7478
  120OSM   C12S12687   5.430   0.885   9.446  0.5445 -0.6329 -0.4396
  120OSM   H12S12688   5.386   0.977   9.491  0.6497  0.2540 -2.0618
  120OSM   H12T12689   5.347   0.816   9.421 -0.6520 -0.0270  1.6080
  120OSM   C13S12690   5.494   0.905   9.310  0.2459  0.7006  0.5806
  120OSM   H13S12691   5.530   0.805   9.280  2.7448  1.0737  2.0317
  120OSM   H13T12692   5.580   0.975   9.320  0.8403  0.2128 -0.8878
  120OSM   C14S12693   5.401   0.962   9.205  0.3661 -0.4486 -0.2682
  120OSM   H14S12694   5.356   1.049   9.257 -1.2316 -2.4619  1.8967
  120OSM   H14T12695   5.318   0.892   9.182  0.8538 -1.0931 -0.0893
  120OSM   C15S12696   5.468   1.008   9.072  0.0890 -0.0308  0.8703
  120OSM   H15S12697   5.389   1.046   9.005 -0.6176 -2.4277  0.2281
  120OSM   H15T12698   5.513   0.919   9.021  3.2718  3.4916 -3.2167
  120OSM   C16S12699   5.579   1.104   9.092 -0.4981  0.2531  0.1697
  120OSM   H16S12700   5.665   1.055   9.142 -0.5849  1.0258  1.0945
  120OSM   H16T12701   5.550   1.182   9.165 -0.6199 -0.0210  0.4144
  120OSM   C17S12702   5.627   1.169   8.966 -0.3641 -0.3835  0.6389
  120OSM   H17S12703   5.540   1.192   8.901  1.6951  1.3678 -1.6760
  120OSM   H17T12704   5.699   1.106   8.911 -0.2009  0.6324 -0.3608
  120OSM   C18S12705   5.705   1.298   8.997  0.6923  0.2830 -0.1525
  120OSM   H18S12706   5.754   1.321   8.900  0.2258  1.3559 -0.1434
  120OSM   H18T12707   5.783   1.268   9.071 -0.9259 -2.2342  0.6968
  120OSM   H18U12708   5.639   1.377   9.038 -0.8306 -0.1297 -1.7030
  120OSM    C1F12709   5.973   0.252  10.187 -0.8110 -0.5582  0.0156
  120OSM     OF12710   5.909   0.181  10.267 -0.5144  0.0816 -0.4963
  120OSM    C2F12711   6.036   0.206  10.054 -0.3385  0.2107 -0.7718
  120OSM    H2F12712   6.142   0.239  10.056 -0.2475 -0.0193  2.1963
  120OSM    H2G12713   5.970   0.256   9.981 -4.2517  1.3638  3.1282
  120OSM    C3F12714   6.025   0.059  10.029  0.4845  0.2503  0.3034
  120OSM    H3F12715   5.920   0.026  10.044  0.0230  1.0188 -1.0760
  120OSM    H3G12716   6.077  -0.008  10.101 -1.7077 -1.8739  0.0477
  120OSM    C4F12717   6.089   0.018   9.894  0.0209  0.5744 -0.0875
  120OSM    H4F12718   6.085  -0.091   9.871 -3.4019  0.0015  2.4458
  120OSM    H4G12719   6.196   0.046   9.906  0.0901 -0.3537  1.7190
  120OSM    C5F12720   6.029   0.099   9.776  0.0390  0.6417  0.1399
  120OSM    H5F12721   6.059   0.204   9.791 -0.1974  0.7970 -0.4299
  120OSM    H5G12722   5.919   0.102   9.790  0.1221 -1.1516  1.5224
  120OSM    C6F12723   6.088   0.052   9.638  0.1938 -0.1076 -0.2541
  120OSM    H6F12724   6.034  -0.041   9.613 -0.1320  0.3684 -1.3931
  120OSM    H6G12725   6.195   0.024   9.647 -0.4190 -2.0930  1.4850
  120OSM    C7F12726   6.053   0.141   9.523 -0.4382 -0.2170 -0.0183
  120OSM    H7F12727   6.095   0.240   9.552  1.0787 -0.8014 -0.1445
  120OSM    H7G12728   5.949   0.158   9.488  0.3980 -0.2226 -2.7820
  120OSM    C8F12729   6.121   0.094   9.391 -0.0181  0.1751  0.1082
  120OSM    H8F12730   6.071  -0.000   9.359 -0.6861  0.2893  0.7703
  120OSM    H8G12731   6.228   0.075   9.411  0.1723  0.1017 -0.9273
  120OSM    C9F12732   6.116   0.209   9.292 -1.4667 -0.2271 -0.0631
  120OSM    H9F12733   6.070   0.304   9.322  0.0683  0.4692  0.1922
  120OSM   C10F12734   6.135   0.196   9.159  0.4021  0.1003  0.8138
  120OSM   H10F12735   6.126   0.287   9.098 -1.8053  0.4486  1.5643
  120OSM   C11F12736   6.164   0.068   9.093 -0.1018 -0.2985 -0.4406
  120OSM   H11F12737   6.118  -0.018   9.148  2.4043 -1.1285  0.5017
  120OSM   H11G12738   6.271   0.043   9.103  0.0427 -0.0650 -1.3819
  120OSM   C12F12739   6.132   0.048   8.940  0.2865 -0.4366  0.5247
  120OSM   H12F12740   6.173  -0.050   8.906  1.5247  0.7339 -1.5056
  120OSM   H12G12741   6.196   0.127   8.896  0.4502 -1.8688 -1.9814
  120OSM   C13F12742   5.990   0.071   8.906  0.7610  0.4580 -0.1462
  120OSM   H13F12743   5.969   0.163   8.964  2.5396 -0.8709  2.8270
  120OSM   H13G12744   5.931  -0.015   8.946 -0.8078 -0.2122 -3.5469
  120OSM   C14F12745   5.965   0.076   8.750  0.9135  0.1610 -0.4123
  120OSM   H14F12746   5.856   0.086   8.729  0.5946 -0.6172  0.7588
  120OSM   H14G12747   5.999  -0.020   8.705 -0.1307 -0.4217 -0.0162
  120OSM   C15F12748   6.041   0.184   8.669  0.0095 -0.2519  0.6752
  120OSM   H15F12749   6.151   0.179   8.688  0.3513 -2.5222 -1.3929
  120OSM   H15G12750   6.000   0.283   8.699 -1.2753 -0.0587 -1.5166
  120OSM   C16F12751   6.032   0.179   8.513  0.2656  0.6217 -0.0990
  120OSM   H16F12752   6.069   0.273   8.467  0.2239  0.5857 -0.2064
  120OSM   H16G12753   5.925   0.174   8.485 -0.0373 -2.8593  1.1930
  120OSM   C17F12754   6.093   0.055   8.442  0.0879  0.0045 -1.5255
  120OSM   H17F12755   6.105   0.080   8.334 -2.9817  0.2802 -1.8767
  120OSM   H17G12756   6.030  -0.036   8.441 -0.5087  0.4105 -1.5231
  120OSM   C18F12757   6.222   0.006   8.488  0.2187  0.3291  0.4170
  120OSM   H18F12758   6.242  -0.099   8.456 -0.0420  0.1242  0.9094
  120OSM   H18G12759   6.221   0.009   8.599 -1.5037 -0.3436  0.4512
  120OSM   H18H12760   6.307   0.070   8.455 -1.6948  2.2966 -0.9368
  121OSM      N12761   0.276   3.648  11.599 -0.5764  0.0579  0.3373
  121OSM    C1512762   0.252   3.753  11.707  0.5538  0.1494  0.3042
  121OSM   H15A12763   0.225   3.845  11.658  1.0625  1.6760  2.7197
  121OSM   H15B12764   0.349   3.771  11.752  0.2573  0.1701  0.9405
  121OSM   H15C12765   0.181   3.711  11.777  0.1804  2.7006  1.5647
  121OSM    C1412766   0.370   3.546  11.633  0.3875 -0.4550 -0.2068
  121OSM   H14A12767   0.357   3.505  11.732 -1.2917  2.0642  0.7159
  121OSM   H14B12768   0.469   3.587  11.621 -0.5699  1.5274 -2.1297
  121OSM   H14C12769   0.354   3.475  11.553 -3.2978  2.0986 -2.0355
  121OSM    C1312770   0.147   3.588  11.570  0.4152  1.0420 -0.2187
  121OSM   H13A12771   0.141   3.545  11.471 -0.4559 -1.8334  0.9742
  121OSM   H13B12772   0.069   3.663  11.573 -0.6575  0.4521 -4.8564
  121OSM   H13C12773   0.124   3.505  11.635 -0.3992  1.4953  0.0859
  121OSM    C1212774   0.332   3.732  11.476 -0.1245  0.1177  0.0078
  121OSM   H12A12775   0.422   3.784  11.506  0.3946 -0.4542 -0.5406
  121OSM   H12B12776   0.257   3.808  11.461 -0.8780  0.0643  2.8867
  121OSM    C1112777   0.363   3.657  11.339 -0.5701 -0.5246 -0.0460
  121OSM   H11A12778   0.446   3.584  11.348  1.5392  1.7079 -0.1874
  121OSM   H11B12779   0.397   3.740  11.274  1.2628 -1.5222 -0.4279
  121OSM      P12780   0.154   3.656  11.188 -0.1129 -0.1066  0.1369
  121OSM    O1312781   0.039   3.567  11.155 -0.1344  0.0732  0.3793
  121OSM    O1412782   0.118   3.790  11.238  0.7614 -0.0772  0.2263
  121OSM    O1112783   0.253   3.675  11.065 -0.0131 -0.2494  0.2179
  121OSM    O1212784   0.249   3.593  11.296 -0.8780  0.1751 -0.2551
  121OSM    C1S12785   0.267   3.570  10.968 -0.3625  1.0977 -0.3522
  121OSM    H1S12786   0.169   3.568  10.917  0.3409  1.3379 -1.7517
  121OSM    H1T12787   0.277   3.476  11.026  2.9857  1.6510  0.1946
  121OSM     NF12788   0.370   3.522  10.748  1.0282 -0.7723 -0.1580
  121OSM    HNF12789   0.414   3.434  10.731  0.1578 -1.4580  1.0255
  121OSM    C2S12790   0.391   3.592  10.873  0.7619 -0.5816 -0.3057
  121OSM    H2S12791   0.376   3.698  10.845 -1.2983 -0.5476  0.7291
  121OSM    C3S12792   0.529   3.580  10.936  0.0612  0.8454 -1.3466
  121OSM    H3S12793   0.567   3.478  10.956 -0.4233  1.0264  0.7234
  121OSM     O312794   0.538   3.635  11.073 -0.2165 -0.0790 -0.2861
  121OSM    HO312795   0.448   3.669  11.075 -0.8648 -1.7224 -0.2776
  121OSM    C4S12796   0.633   3.650  10.853  0.7889  0.2445 -0.0191
  121OSM    H4S12797   0.654   3.753  10.883  0.8848  0.0623  0.5451
  121OSM    C5S12798   0.708   3.600  10.754 -0.3414 -0.1105 -0.1550
  121OSM    H5S12799   0.712   3.493  10.728  0.9687 -0.0478 -0.2756
  121OSM    C6S12800   0.815   3.678  10.681 -0.0541  0.0822  0.3513
  121OSM    H6S12801   0.905   3.613  10.674  0.2711  0.5316  0.3197
  121OSM    H6T12802   0.857   3.764  10.736  0.6194 -0.9543  1.5227
  121OSM    C7S12803   0.774   3.735  10.542  0.7384  0.6701 -0.8235
  121OSM    H7S12804   0.705   3.821  10.556 -2.8337 -2.3215  1.9798
  121OSM    H7T12805   0.713   3.658  10.492  1.1214 -1.4145  1.7012
  121OSM    C8S12806   0.890   3.778  10.449 -0.3096 -0.2414  1.0603
  121OSM    H8S12807   0.951   3.686  10.434 -0.8148 -0.6298  1.3739
  121OSM    H8T12808   0.944   3.870  10.481 -0.0785  0.9777 -2.3626
  121OSM    C9S12809   0.838   3.813  10.310 -0.2676  0.3853 -0.1358
  121OSM    H9S12810   0.763   3.893  10.330 -0.4022 -0.3221  2.5360
  121OSM    H9T12811   0.788   3.722  10.271  1.1345  0.1078 -1.3762
  121OSM   C10S12812   0.956   3.831  10.215  0.5775 -0.1783  0.5725
  121OSM   H10S12813   1.025   3.744  10.211 -0.6535 -1.1356 -1.8638
  121OSM   H10T12814   1.010   3.919  10.255  0.0470 -0.5413  2.1435
  121OSM   C11S12815   0.905   3.849  10.066  0.5500  0.6464 -0.4645
  121OSM   H11S12816   0.826   3.926  10.056 -1.1973 -1.2431 -2.0335
  121OSM   H11T12817   0.869   3.750  10.031 -1.3850  0.9932  0.4170
  121OSM   C12S12818   1.025   3.892   9.982  0.6921 -0.6634  0.2355
  121OSM   H12S12819   1.101   3.813   9.962  0.7905 -0.4205 -0.3925
  121OSM   H12T12820   1.068   3.985  10.026  0.6979 -2.4853  4.6162
  121OSM   C13S12821   0.976   3.917   9.837 -0.0231  0.0589  0.3637
  121OSM   H13S12822   1.055   3.966   9.777 -0.5149 -2.1281 -2.2252
  121OSM   H13T12823   0.888   3.985   9.847  0.0246 -0.1433  2.9630
  121OSM   C14S12824   0.940   3.794   9.753 -0.4867 -0.1908  0.1514
  121OSM   H14S12825   0.850   3.736   9.780 -1.2238  1.0110  0.3530
  121OSM   H14T12826   1.029   3.727   9.757 -0.2676  0.1635  1.4733
  121OSM   C15S12827   0.935   3.835   9.605  0.0685  0.3336  0.1714
  121OSM   H15S12828   0.981   3.935   9.596  1.2396 -0.2176 -0.2045
  121OSM   H15T12829   0.833   3.849   9.564  1.1341 -0.7378 -3.2017
  121OSM   C16S12830   1.014   3.746   9.511 -0.0918 -0.0776 -0.1361
  121OSM   H16S12831   0.980   3.643   9.534  1.5690  0.0116  3.4952
  121OSM   H16T12832   1.119   3.749   9.549  0.2893 -1.2627 -1.0225
  121OSM   C17S12833   1.008   3.784   9.360  0.7599 -0.0194  0.0337
  121OSM   H17S12834   1.022   3.691   9.302 -2.4540 -0.3789 -0.3462
  121OSM   H17T12835   1.099   3.846   9.343  1.2139  0.0622  2.3684
  121OSM   C18S12836   0.882   3.850   9.311 -0.0150  0.3960 -0.2459
  121OSM   H18S12837   0.881   3.872   9.202 -3.3957  1.0531 -0.2045
  121OSM   H18T12838   0.862   3.941   9.371  0.8469 -0.5633  1.5754
  121OSM   H18U12839   0.796   3.782   9.330 -0.8110  1.3402 -0.4093
  121OSM    C1F12840   0.290   3.569  10.654  0.4046  0.0735  0.6981
  121OSM     OF12841   0.216   3.667  10.673 -0.1608  0.3806 -0.0252
  121OSM    C2F12842   0.285   3.475  10.535 -0.0018  0.0931  0.2949
  121OSM    H2F12843   0.208   3.397  10.555 -0.2702  0.5415  1.0940
  121OSM    H2G12844   0.389   3.437  10.526  0.9726  2.4544  0.6209
  121OSM    C3F12845   0.228   3.558  10.417  0.2123  0.3574  0.1018
  121OSM    H3F12846   0.294   3.646  10.398  1.0240 -0.2520  0.0465
  121OSM    H3G12847   0.124   3.594  10.433  0.1183 -0.0171  0.3258
  121OSM    C4F12848   0.209   3.485  10.282 -0.4414  0.1481 -0.6335
  121OSM    H4F12849   0.159   3.386  10.291  0.4245 -0.1556  1.4328
  121OSM    H4G12850   0.304   3.447  10.239 -1.3829 -1.3816 -1.4492
  121OSM    C5F12851   0.130   3.560  10.164  0.0430  0.1533  0.1917
  121OSM    H5F12852   0.176   3.661  10.164  1.7240 -0.5772  0.3548
  121OSM    H5G12853   0.023   3.566  10.193 -0.0572 -0.2751 -0.0710
  121OSM    C6F12854   0.125   3.493  10.030 -0.6147  0.1668  0.1675
  121OSM    H6F12855   0.045   3.541   9.971 -0.2976  1.6325  0.8760
  121OSM    H6G12856   0.098   3.386  10.040 -1.4251  0.5663  3.5893
  121OSM    C7F12857   0.256   3.518   9.949 -0.1452 -0.2774 -0.4998
  121OSM    H7F12858   0.326   3.441   9.990  0.0893 -0.9408 -2.0752
  121OSM    H7G12859   0.296   3.618   9.975  0.8379 -0.8429  0.2325
  121OSM    C8F12860   0.231   3.504   9.799 -0.3573 -0.0702 -0.2698
  121OSM    H8F12861   0.316   3.548   9.743 -1.0161  1.2045 -0.3110
  121OSM    H8G12862   0.150   3.579   9.785  1.2015  1.7278  0.0260
  121OSM    C9F12863   0.199   3.360   9.761 -0.1326 -0.5842 -0.2089
  121OSM    H9F12864   0.241   3.285   9.829  1.5676  0.7428  0.2665
  121OSM   C10F12865   0.160   3.326   9.639 -0.1990  0.1635  0.8986
  121OSM   H10F12866   0.163   3.222   9.603  0.0819  0.2510  0.6662
  121OSM   C11F12867   0.135   3.425   9.524  0.1229 -0.2779 -0.5910
  121OSM   H11F12868   0.209   3.407   9.443  0.2840 -0.3868 -0.4212
  121OSM   H11G12869   0.140   3.530   9.559  1.2552  0.0391 -1.5990
  121OSM   C12F12870   0.002   3.396   9.447 -0.0343 -0.6427 -0.4515
  121OSM   H12F12871  -0.083   3.423   9.514  0.2125 -1.5824  0.2672
  121OSM   H12G12872  -0.013   3.287   9.437 -2.6619 -0.2313 -2.1281
  121OSM   C13F12873  -0.013   3.476   9.320 -0.3353  0.6103  0.1483
  121OSM   H13F12874  -0.107   3.442   9.271 -0.2668 -0.8196  0.9376
  121OSM   H13G12875   0.074   3.462   9.252 -0.0499  1.0549  0.4232
  121OSM   C14F12876  -0.021   3.626   9.356 -1.0576 -0.6122  0.0059
  121OSM   H14F12877   0.076   3.668   9.390  0.0574 -1.3938 -2.0375
  121OSM   H14G12878  -0.098   3.634   9.436 -1.1652 -1.3038 -0.0182
  121OSM   C15F12879  -0.070   3.713   9.238  0.4343  0.1156 -0.7090
  121OSM   H15F12880  -0.066   3.816   9.280  0.7054 -0.4273  0.6705
  121OSM   H15G12881  -0.174   3.678   9.219  1.2815 -1.1035 -3.6927
  121OSM   C16F12882   0.009   3.701   9.106  0.5446 -0.2722 -0.1221
  121OSM   H16F12883  -0.024   3.778   9.033 -0.3322 -0.4285  0.0991
  121OSM   H16G12884  -0.017   3.601   9.064  0.7164 -0.4859  0.2805
  121OSM   C17F12885   0.168   3.701   9.107  0.3923  0.6045 -1.4225
  121OSM   H17F12886   0.216   3.613   9.156  1.8314  2.4332  0.6174
  121OSM   H17G12887   0.191   3.790   9.170  0.6616  0.5331 -1.4187
  121OSM   C18F12888   0.243   3.718   8.973 -0.1509  0.2565  0.2459
  121OSM   H18F12889   0.347   3.747   8.998  0.2324  1.2959 -2.2130
  121OSM   H18G12890   0.200   3.799   8.909 -1.4884 -0.5418  0.0971
  121OSM   H18H12891   0.239   3.616   8.929  0.6164  0.9634 -1.6162
  122OSM      N12892   1.811   0.853  10.926  0.4766  0.0599 -0.4030
  122OSM    C1512893   1.768   0.953  10.828  0.4573  0.0332  0.6747
  122OSM   H15A12894   1.725   1.043  10.869 -2.1020 -0.7491 -0.0562
  122OSM   H15B12895   1.703   0.903  10.758 -0.0480  1.0173  0.4233
  122OSM   H15C12896   1.853   0.996  10.777 -0.5319 -0.1685 -1.2201
  122OSM    C1412897   1.896   0.930  11.031 -0.0975 -0.4356  0.3670
  122OSM   H14A12898   1.846   1.005  11.091  0.0407  0.7724 -0.9633
  122OSM   H14B12899   1.973   0.984  10.978  0.8004 -0.2269  1.8143
  122OSM   H14C12900   1.947   0.864  11.100 -0.2811 -2.1521 -1.0661
  122OSM    C1312901   1.701   0.792  10.992 -0.1246 -0.7233  0.4523
  122OSM   H13A12902   1.630   0.750  10.922 -1.5080  0.2742  1.2103
  122OSM   H13B12903   1.648   0.860  11.057 -0.4474 -1.0299  0.5151
  122OSM   H13C12904   1.729   0.709  11.057  1.9973  0.8242  1.6294
  122OSM    C1212905   1.892   0.742  10.858 -0.5201  0.4558  1.2670
  122OSM   H12A12906   1.958   0.698  10.931  2.4145 -0.2176 -1.6037
  122OSM   H12B12907   1.966   0.789  10.796  0.8814 -1.5875  1.3181
  122OSM    C1112908   1.823   0.650  10.757 -0.2225  0.1622 -0.0676
  122OSM   H11A12909   1.887   0.564  10.727  0.2985  1.1464 -1.9438
  122OSM   H11B12910   1.798   0.698  10.660  0.9165  1.2950  0.1691
  122OSM      P12911   1.627   0.475  10.773 -0.2517  0.7900 -0.1244
  122OSM    O1312912   1.687   0.351  10.825 -0.5277 -0.2035  0.3622
  122OSM    O1412913   1.487   0.490  10.805  0.2246 -0.2225  0.1745
  122OSM    O1112914   1.652   0.475  10.619 -0.1722 -0.3787 -0.3451
  122OSM    O1212915   1.705   0.601  10.819 -0.6735  0.3352 -0.1435
  122OSM    C1S12916   1.569   0.547  10.528  0.0404 -0.3834  0.0752
  122OSM    H1S12917   1.597   0.654  10.535  3.9522 -1.0875 -1.9663
  122OSM    H1T12918   1.462   0.539  10.555 -0.5956 -0.8229 -2.2980
  122OSM     NF12919   1.480   0.558  10.304 -0.5492 -0.5055 -0.1253
  122OSM    HNF12920   1.406   0.494  10.283  0.3999 -0.5469 -4.0735
  122OSM    C2S12921   1.586   0.499  10.386  0.2097  0.3277 -0.4589
  122OSM    H2S12922   1.688   0.525  10.350  0.7835  2.8282  2.5222
  122OSM    C3S12923   1.564   0.341  10.392 -0.0181 -0.2941 -0.9173
  122OSM    H3S12924   1.464   0.330  10.438  1.2654  1.4537  2.6867
  122OSM     O312925   1.640   0.253  10.478 -0.5256  0.2887 -0.2027
  122OSM    HO312926   1.692   0.315  10.529 -1.0437  1.0703 -0.5963
  122OSM    C4S12927   1.564   0.288  10.255  0.3499 -0.5288  0.5696
  122OSM    H4S12928   1.466   0.303  10.206  1.6321  1.2381 -1.6265
  122OSM    C5S12929   1.659   0.222  10.182 -0.4360  0.6898  0.5665
  122OSM    H5S12930   1.756   0.191  10.225  0.6867 -0.0483 -2.2285
  122OSM    C6S12931   1.630   0.165  10.048  0.5673 -0.6000 -0.7942
  122OSM    H6S12932   1.618   0.055  10.047 -0.3142 -0.5157 -0.6249
  122OSM    H6T12933   1.717   0.193   9.985  0.6637 -2.7922 -1.7067
  122OSM    C7S12934   1.512   0.235   9.983  0.4813  0.2200  0.4851
  122OSM    H7S12935   1.517   0.346   9.983  0.1287  0.2360  0.4425
  122OSM    H7T12936   1.416   0.210  10.032  0.5384 -0.0299  0.4724
  122OSM    C8S12937   1.484   0.172   9.843  0.0373  0.2531  0.3497
  122OSM    H8S12938   1.381   0.199   9.811  0.6382  1.7271 -0.4712
  122OSM    H8T12939   1.496   0.062   9.846  0.0898  0.2779  1.5214
  122OSM    C9S12940   1.566   0.233   9.732 -0.2327 -0.2252  0.4319
  122OSM    H9S12941   1.670   0.196   9.748  0.6422  1.1505 -1.7578
  122OSM    H9T12942   1.587   0.339   9.756  0.1248 -0.5054  1.4285
  122OSM   C10S12943   1.513   0.193   9.590 -0.4314 -0.2408 -0.6515
  122OSM   H10S12944   1.408   0.229   9.580 -0.6897 -1.0887 -1.1492
  122OSM   H10T12945   1.525   0.084   9.572  0.4249 -0.6354  1.8497
  122OSM   C11S12946   1.587   0.260   9.476 -0.2978  0.4298  0.0879
  122OSM   H11S12947   1.692   0.228   9.490 -0.6181 -0.3917  0.7293
  122OSM   H11T12948   1.575   0.370   9.471  2.3847  0.7964  0.3357
  122OSM   C12S12949   1.544   0.197   9.341 -0.8220  0.5586  0.6008
  122OSM   H12S12950   1.433   0.202   9.340 -0.9064  2.2495  4.0451
  122OSM   H12T12951   1.581   0.092   9.345 -0.9976  0.5372  2.1764
  122OSM   C13S12952   1.608   0.274   9.225  0.2875 -0.3036  0.0865
  122OSM   H13S12953   1.719   0.265   9.225  0.1956 -1.7288 -0.2131
  122OSM   H13T12954   1.568   0.377   9.233 -0.5982 -0.5645 -0.8699
  122OSM   C14S12955   1.561   0.202   9.094  0.3694 -0.0995 -0.1988
  122OSM   H14S12956   1.460   0.156   9.104 -0.6239  1.3625 -2.5904
  122OSM   H14T12957   1.623   0.117   9.059 -0.5586 -0.8300 -0.1158
  122OSM   C15S12958   1.550   0.290   8.970 -1.4979 -0.8981  0.1254
  122OSM   H15S12959   1.475   0.367   8.997 -0.2456  0.7541 -0.9249
  122OSM   H15T12960   1.519   0.227   8.883  0.7630 -2.0632  0.0731
  122OSM   C16S12961   1.687   0.356   8.925  0.5476  0.0632 -0.4420
  122OSM   H16S12962   1.756   0.273   8.901 -0.5446 -0.4092 -2.1443
  122OSM   H16T12963   1.716   0.423   9.008 -0.4827  1.6019 -1.2758
  122OSM   C17S12964   1.674   0.453   8.811 -1.1454 -0.3304  0.3156
  122OSM   H17S12965   1.624   0.545   8.849 -2.6300 -1.2288  0.6348
  122OSM   H17T12966   1.607   0.408   8.735 -0.2077 -0.7903 -0.2490
  122OSM   C18S12967   1.812   0.476   8.747 -0.5065 -0.0627 -0.2017
  122OSM   H18S12968   1.807   0.540   8.657  0.2843  1.1722  0.6017
  122OSM   H18T12969   1.864   0.378   8.744 -1.6733 -0.8146  1.7843
  122OSM   H18U12970   1.874   0.537   8.817  0.2452 -0.6846 -0.3036
  122OSM    C1F12971   1.501   0.675  10.253  0.3051 -0.6503 -0.6541
  122OSM     OF12972   1.596   0.744  10.285 -0.0521 -0.0451  0.1987
  122OSM    C2F12973   1.388   0.726  10.162 -1.1286 -0.3724  0.0284
  122OSM    H2F12974   1.339   0.804  10.223 -0.0105  0.3690  0.0123
  122OSM    H2G12975   1.324   0.644  10.124 -1.1591  1.5801 -4.8630
  122OSM    C3F12976   1.447   0.806  10.042  0.0426  0.6824 -0.6301
  122OSM    H3F12977   1.529   0.873  10.075 -0.1707 -0.3505  2.2641
  122OSM    H3G12978   1.363   0.871  10.009 -0.1968  0.5588 -0.2684
  122OSM    C4F12979   1.518   0.713   9.941 -0.0179  0.0883 -0.0680
  122OSM    H4F12980   1.433   0.658   9.894 -0.1045  0.7205 -0.6592
  122OSM    H4G12981   1.594   0.645   9.985  1.9552  1.3096 -1.4510
  122OSM    C5F12982   1.573   0.793   9.822  0.6693 -0.2694 -0.7651
  122OSM    H5F12983   1.673   0.823   9.861  0.7606 -3.1146  1.5128
  122OSM    H5G12984   1.503   0.878   9.808 -1.3629 -1.9024 -0.9079
  122OSM    C6F12985   1.567   0.712   9.695 -0.7731  0.4212  0.3545
  122OSM    H6F12986   1.469   0.661   9.678 -0.5814 -0.2817  1.2974
  122OSM    H6G12987   1.652   0.641   9.688 -1.3874 -0.2359 -0.7127
  122OSM    C7F12988   1.562   0.804   9.564 -0.6588 -0.7398  0.2918
  122OSM    H7F12989   1.644   0.878   9.559  0.2777 -1.8165 -0.9137
  122OSM    H7G12990   1.466   0.857   9.585 -0.3461 -0.0038 -0.1272
  122OSM    C8F12991   1.532   0.731   9.431 -0.2722 -0.4825  0.0835
  122OSM    H8F12992   1.515   0.814   9.359 -0.0880 -1.4405 -1.0883
  122OSM    H8G12993   1.454   0.653   9.436  1.9024 -3.1808 -3.3911
  122OSM    C9F12994   1.650   0.649   9.397  0.0835  0.3832 -0.0502
  122OSM    H9F12995   1.687   0.583   9.476  1.3751  0.8821 -0.2089
  122OSM   C10F12996   1.688   0.636   9.269  0.3971 -0.1223 -0.3032
  122OSM   H10F12997   1.770   0.563   9.264 -0.8497 -1.6635  0.5853
  122OSM   C11F12998   1.637   0.697   9.142  1.1042 -0.1126  0.1512
  122OSM   H11F12999   1.562   0.774   9.168 -0.7766 -2.0447  0.7057
  122OSM   H11G13000   1.591   0.622   9.074 -0.9772  2.2988 -1.2413
  122OSM   C12F13001   1.757   0.742   9.066 -0.9656 -0.3502  0.7282
  122OSM   H12F13002   1.838   0.668   9.053  1.5012  1.9034  2.2843
  122OSM   H12G13003   1.813   0.820   9.122 -0.4023  1.1041 -1.7014
  122OSM   C13F13004   1.730   0.805   8.925  0.6394  0.4921  0.6534
  122OSM   H13F13005   1.655   0.884   8.943 -0.2887 -0.1036 -0.4069
  122OSM   H13G13006   1.684   0.732   8.854  0.5983 -0.7802  1.9433
  122OSM   C14F13007   1.856   0.850   8.852 -0.3257  0.2734 -0.1000
  122OSM   H14F13008   1.912   0.759   8.823  1.3534  0.9792  0.7856
  122OSM   H14G13009   1.924   0.896   8.926 -2.9293  2.0358  1.3642
  122OSM   C15F13010   1.842   0.950   8.742 -0.1188 -0.2920 -0.0286
  122OSM   H15F13011   1.809   1.051   8.773  1.6995  0.3231  0.0394
  122OSM   H15G13012   1.767   0.917   8.667  0.6764 -3.0348  0.2371
  122OSM   C16F13013   1.985   0.984   8.686 -0.2368  0.0363  0.4168
  122OSM   H16F13014   2.036   0.886   8.676  0.3977  0.5387 -2.0328
  122OSM   H16G13015   2.045   1.047   8.755 -0.7796  1.3390 -0.2669
  122OSM   C17F13016   1.987   1.052   8.546 -0.7068 -0.0743 -0.4553
  122OSM   H17F13017   1.942   1.153   8.555  0.0926  0.3762 -1.4414
  122OSM   H17G13018   1.925   0.985   8.483  1.5107 -0.8122 -1.9654
  122OSM   C18F13019   2.126   1.069   8.484 -0.3779 -0.3981  0.8242
  122OSM   H18F13020   2.116   1.129   8.391 -0.7807 -1.6792  0.0223
  122OSM   H18G13021   2.172   0.973   8.454  0.0385 -0.0153  0.2248
  122OSM   H18H13022   2.187   1.130   8.555 -1.6990  1.1968  0.6498
  123OSM      N13023   5.180   6.061   6.053  0.0003  0.0628  0.0663
  123OSM    C1513024   5.040   6.076   6.082  0.8822  0.5067 -0.5848
  123OSM   H15A13025   5.000   6.161   6.028 -4.0556 -0.5327  0.8766
  123OSM   H15B13026   5.033   6.095   6.188  0.2616 -1.5760 -0.2087
  123OSM   H15C13027   4.987   5.987   6.051  0.4011  0.7061 -0.3476
  123OSM    C1413028   5.240   5.936   6.128  0.5543  0.0102 -0.0135
  123OSM   H14A13029   5.231   5.947   6.234  1.5145 -0.0591  0.0900
  123OSM   H14B13030   5.346   5.937   6.107  0.5166  1.5149 -0.2173
  123OSM   H14C13031   5.200   5.844   6.087  2.6667 -0.2088 -1.7905
  123OSM    C1313032   5.186   6.030   5.908  0.7462 -0.2947  0.2707
  123OSM   H13A13033   5.140   6.106   5.846 -0.0720 -1.8160 -1.0728
  123OSM   H13B13034   5.141   5.933   5.888  0.0349  0.1264 -0.2185
  123OSM   H13C13035   5.292   6.023   5.888  0.6013 -0.4541 -0.4695
  123OSM    C1213036   5.261   6.188   6.077 -0.3924  0.3385 -0.6015
  123OSM   H12A13037   5.213   6.267   6.020 -0.0577  0.3849 -0.8241
  123OSM   H12B13038   5.359   6.176   6.032 -0.8604  0.5819 -1.7291
  123OSM    C1113039   5.277   6.225   6.224 -1.1464  0.0192  0.3043
  123OSM   H11A13040   5.193   6.191   6.288 -1.7512 -1.5079 -1.1988
  123OSM   H11B13041   5.275   6.336   6.233 -0.0065  0.1625 -0.8877
  123OSM      P13042   5.535   6.239   6.245 -0.0271 -0.1766 -0.2220
  123OSM    O1313043   5.646   6.147   6.268 -0.5020 -0.3380 -0.1918
  123OSM    O1413044   5.525   6.297   6.108 -0.0591 -0.4315  0.3475
  123OSM    O1113045   5.537   6.357   6.349 -0.2656 -0.2248  0.1076
  123OSM    O1213046   5.401   6.167   6.280 -0.1258 -0.1220  0.2065
  123OSM    C1S13047   5.478   6.357   6.484 -0.0278  0.8337  0.3210
  123OSM    H1S13048   5.508   6.270   6.546 -1.9464 -0.2664 -0.2220
  123OSM    H1T13049   5.368   6.369   6.488 -0.0414  1.9097 -1.8453
  123OSM     NF13050   5.480   6.475   6.699  0.1909 -0.3711  0.1518
  123OSM    HNF13051   5.394   6.522   6.716 -1.7648 -2.5254 -2.7331
  123OSM    C2S13052   5.523   6.480   6.561 -0.1144 -0.0999  0.0256
  123OSM    H2S13053   5.634   6.487   6.563 -0.1979  2.0351  1.4548
  123OSM    C3S13054   5.478   6.612   6.490 -0.0912  0.8454 -0.2247
  123OSM    H3S13055   5.368   6.604   6.494  0.0373 -1.0775  0.2236
  123OSM     O313056   5.522   6.625   6.356  0.1813  0.2473  0.0755
  123OSM    HO313057   5.540   6.533   6.338 -2.1429 -0.3751  0.5922
  123OSM    C4S13058   5.522   6.733   6.564  0.1969  0.2523  0.3654
  123OSM    H4S13059   5.447   6.789   6.623 -1.2511  0.2956 -1.4193
  123OSM    C5S13060   5.646   6.788   6.564 -0.4873  0.2371  0.3055
  123OSM    H5S13061   5.722   6.729   6.510 -1.4835 -2.8637  2.0382
  123OSM    C6S13062   5.684   6.915   6.637 -0.5303 -0.5335 -0.2396
  123OSM    H6S13063   5.732   6.994   6.575  0.6939 -0.2955  0.9488
  123OSM    H6T13064   5.771   6.881   6.697 -0.6658  0.5369  0.5989
  123OSM    C7S13065   5.574   7.003   6.705 -0.2296 -0.2159 -0.1349
  123OSM    H7S13066   5.486   7.019   6.640 -0.7820 -0.7986  0.4560
  123OSM    H7T13067   5.596   7.109   6.728  0.2964 -0.5464  0.9521
  123OSM    C8S13068   5.538   6.946   6.844  0.0475 -0.3697 -0.2959
  123OSM    H8S13069   5.628   6.906   6.896 -0.8171 -0.0693  1.4984
  123OSM    H8T13070   5.471   6.858   6.835  0.6048 -0.7137 -1.2960
  123OSM    C9S13071   5.473   7.050   6.931  0.0088  0.4897  0.2964
  123OSM    H9S13072   5.384   7.089   6.878  0.4124 -0.0548 -0.8138
  123OSM    H9T13073   5.551   7.129   6.942  1.8939 -1.4093  1.4247
  123OSM   C10S13074   5.429   7.002   7.067  0.5063 -0.1082 -0.6295
  123OSM   H10S13075   5.515   6.942   7.105 -0.7624 -1.7429 -0.2065
  123OSM   H10T13076   5.339   6.937   7.064 -0.7283  1.5304 -0.4651
  123OSM   C11S13077   5.387   7.109   7.160  1.1094 -0.2536 -0.1662
  123OSM   H11S13078   5.293   7.160   7.131  1.9042  0.3077 -1.8613
  123OSM   H11T13079   5.455   7.196   7.149  0.6504 -0.0259 -1.3642
  123OSM   C12S13080   5.384   7.067   7.312 -0.4741  0.2506 -1.1049
  123OSM   H12S13081   5.482   7.093   7.357 -0.2821 -2.6412  0.4165
  123OSM   H12T13082   5.357   6.960   7.319 -1.4197  0.5603  0.5300
  123OSM   C13S13083   5.281   7.140   7.400  0.2645 -0.0673  0.4158
  123OSM   H13S13084   5.194   7.161   7.334  1.3447 -1.2642 -1.4852
  123OSM   H13T13085   5.322   7.237   7.435 -0.0907  0.0455  0.5163
  123OSM   C14S13086   5.236   7.064   7.531 -0.1094  0.2747  0.8233
  123OSM   H14S13087   5.326   7.057   7.597 -0.1742  2.4089  1.2219
  123OSM   H14T13088   5.196   6.965   7.500  1.2409 -0.0477  0.0088
  123OSM   C15S13089   5.123   7.144   7.604  0.5992  0.3432  0.2532
  123OSM   H15S13090   5.024   7.132   7.556 -0.5108 -0.2373  2.5290
  123OSM   H15T13091   5.156   7.250   7.608  2.6445 -0.2832  2.3239
  123OSM   C16S13092   5.097   7.098   7.750  0.5812 -0.0891 -0.1521
  123OSM   H16S13093   5.058   6.995   7.759 -1.1845  0.5804  0.2591
  123OSM   H16T13094   5.005   7.148   7.787  0.6527 -1.3594  1.8607
  123OSM   C17S13095   5.216   7.118   7.849  0.0754  0.6023  0.1307
  123OSM   H17S13096   5.249   7.224   7.840 -0.5360  0.6311 -2.6995
  123OSM   H17T13097   5.308   7.060   7.823 -1.0124 -1.7379  1.2089
  123OSM   C18S13098   5.186   7.068   7.991  0.3269 -0.2184  0.3446
  123OSM   H18S13099   5.159   6.961   7.996  1.4935 -0.6250 -1.3135
  123OSM   H18T13100   5.115   7.122   8.057 -0.0621  0.7327 -0.8081
  123OSM   H18U13101   5.277   7.072   8.055 -0.2584 -2.4784  1.4009
  123OSM    C1F13102   5.531   6.390   6.790 -0.7136  0.2010 -0.1621
  123OSM     OF13103   5.596   6.288   6.766  0.0683 -0.5685 -0.1698
  123OSM    C2F13104   5.493   6.405   6.933 -0.2985  0.1718 -0.1031
  123OSM    H2F13105   5.547   6.325   6.989  1.2493  0.6075 -0.9174
  123OSM    H2G13106   5.383   6.417   6.929 -0.3552 -0.3245 -0.0574
  123OSM    C3F13107   5.562   6.537   6.985 -0.0332 -0.2474 -0.0601
  123OSM    H3F13108   5.539   6.623   6.919  0.4599  1.2220  1.5951
  123OSM    H3G13109   5.673   6.529   6.985  0.0906  1.2795 -0.3689
  123OSM    C4F13110   5.521   6.564   7.133 -1.0740  0.1952  0.4413
  123OSM    H4F13111   5.510   6.459   7.167  1.0059 -0.3336 -0.3197
  123OSM    H4G13112   5.424   6.617   7.137 -0.8931  0.4665  1.5634
  123OSM    C5F13113   5.629   6.635   7.211 -0.3226 -0.0673  0.1355
  123OSM    H5F13114   5.654   6.726   7.152 -0.1738 -0.6248 -0.6808
  123OSM    H5G13115   5.724   6.578   7.216 -0.3464 -0.0840  0.4291
  123OSM    C6F13116   5.578   6.682   7.344  0.5399  0.3066  0.3864
  123OSM    H6F13117   5.516   6.773   7.329  0.0437 -0.2949 -1.6182
  123OSM    H6G13118   5.672   6.713   7.395  0.5196  2.1999 -0.6554
  123OSM    C7F13119   5.515   6.573   7.437  0.0914 -0.2973  0.4933
  123OSM    H7F13120   5.577   6.480   7.436 -1.4742 -1.3896  0.1816
  123OSM    H7G13121   5.416   6.543   7.397  0.7980 -0.6702 -1.0829
  123OSM    C8F13122   5.509   6.611   7.595 -0.0468 -0.6200  0.1502
  123OSM    H8F13123   5.615   6.633   7.618  0.2349 -0.6995 -1.0036
  123OSM    H8G13124   5.486   6.514   7.645 -1.8994 -0.8874 -1.1311
  123OSM    C9F13125   5.416   6.730   7.620 -0.3711  0.6916  0.3654
  123OSM    H9F13126   5.410   6.798   7.535 -2.3069 -0.2268 -0.2850
  123OSM   C10F13127   5.325   6.731   7.718  0.1095 -0.3944  0.3755
  123OSM   H10F13128   5.272   6.824   7.744 -2.1560 -1.4309 -0.2071
  123OSM   C11F13129   5.308   6.613   7.805 -0.6128  0.0390 -0.3513
  123OSM   H11F13130   5.399   6.558   7.838 -1.2898  0.4364  2.5072
  123OSM   H11G13131   5.237   6.542   7.759 -1.3963 -0.7517  1.9050
  123OSM   C12F13132   5.248   6.662   7.939  0.6047  0.0046  0.0975
  123OSM   H12F13133   5.144   6.687   7.909  0.7158  1.8882  1.1340
  123OSM   H12G13134   5.280   6.760   7.978 -0.6332  0.3680  0.2491
  123OSM   C13F13135   5.248   6.556   8.047 -0.0702 -0.3831 -0.0881
  123OSM   H13F13136   5.346   6.505   8.045 -0.3880 -1.1951  2.4140
  123OSM   H13G13137   5.166   6.483   8.026 -0.4831  0.4460 -1.5379
  123OSM   C14F13138   5.218   6.604   8.191 -0.9448 -0.3759  0.9054
  123OSM   H14F13139   5.216   6.514   8.257  0.5759 -0.0266  1.4732
  123OSM   H14G13140   5.125   6.664   8.194 -0.7837  0.1238 -1.6835
  123OSM   C15F13141   5.334   6.690   8.253  0.6336  0.6237 -0.0442
  123OSM   H15F13142   5.292   6.754   8.334  0.9063  1.9920 -0.9528
  123OSM   H15G13143   5.386   6.750   8.175 -0.6615 -0.9085 -2.1682
  123OSM   C16F13144   5.446   6.608   8.316  0.5087  0.0943 -0.1872
  123OSM   H16F13145   5.513   6.682   8.365 -1.9726  1.0704  1.9968
  123OSM   H16G13146   5.500   6.561   8.231 -0.2703 -3.0568  0.8928
  123OSM   C17F13147   5.405   6.497   8.418  0.4951  0.5578 -0.3998
  123OSM   H17F13148   5.495   6.470   8.478 -0.4123 -3.1099 -0.4468
  123OSM   H17G13149   5.373   6.411   8.354  3.6107 -0.7256 -0.4331
  123OSM   C18F13150   5.300   6.528   8.522 -0.8789 -0.8405  0.0175
  123OSM   H18F13151   5.252   6.431   8.547  0.5265 -1.8853 -1.1622
  123OSM   H18G13152   5.227   6.603   8.486  1.0853  2.0930  1.7099
  123OSM   H18H13153   5.350   6.580   8.606 -0.6700  0.3406 -0.8188
  124OSM      N13154   0.882   3.521   6.640 -0.3741 -0.3635  0.9451
  124OSM    C1513155   0.820   3.514   6.774 -0.5500 -0.3278 -0.9703
  124OSM   H15A13156   0.883   3.578   6.833 -0.8259 -0.7147 -0.2434
  124OSM   H15B13157   0.840   3.421   6.826 -0.7117  0.8157  1.2230
  124OSM   H15C13158   0.715   3.536   6.772 -0.7366 -1.0120  0.1245
  124OSM    C1413159   0.806   3.428   6.558  0.2822  0.1624  0.3385
  124OSM   H14A13160   0.849   3.435   6.459  1.4633 -0.9423  0.7306
  124OSM   H14B13161   0.700   3.444   6.561  0.4792  1.4749  0.5918
  124OSM   H14C13162   0.820   3.324   6.585  1.0537  0.1982  0.1146
  124OSM    C1313163   0.848   3.656   6.567 -0.2105  0.2721  0.2323
  124OSM   H13A13164   0.744   3.662   6.539 -0.1990  1.1910  0.3447
  124OSM   H13B13165   0.908   3.659   6.477  0.6770  2.4579  0.8129
  124OSM   H13C13166   0.881   3.749   6.612  0.0898  0.8978 -1.2135
  124OSM    C1213167   1.032   3.491   6.632  0.3739 -0.1791 -0.1694
  124OSM   H12A13168   1.048   3.408   6.699 -3.4933  0.4101  1.7675
  124OSM   H12B13169   1.089   3.570   6.680  0.0768 -0.3720  0.5103
  124OSM    C1113170   1.095   3.479   6.494 -0.0193  0.2735 -0.5486
  124OSM   H11A13171   1.040   3.398   6.440  0.0812  0.9747 -1.7530
  124OSM   H11B13172   1.202   3.455   6.509  0.1305  0.9322 -0.5346
  124OSM      P13173   1.163   3.725   6.417  0.0861  0.5724  0.1388
  124OSM    O1313174   1.303   3.697   6.390  0.1385 -0.1439  0.3248
  124OSM    O1413175   1.097   3.823   6.331  0.4962 -0.1011 -0.0023
  124OSM    O1113176   1.145   3.775   6.572 -0.0034 -0.2864  0.3613
  124OSM    O1213177   1.075   3.595   6.411  0.0757  0.0302  0.0473
  124OSM    C1S13178   1.115   3.909   6.598  0.0800 -0.6420 -1.2273
  124OSM    H1S13179   1.006   3.925   6.607  0.2945  0.1413  0.3861
  124OSM    H1T13180   1.149   3.978   6.519 -1.3394  0.9611 -0.4910
  124OSM     NF13181   1.134   4.099   6.753  0.4524  0.0042 -0.4381
  124OSM    HNF13182   1.196   4.171   6.723  1.0636  0.9190  2.6699
  124OSM    C2S13183   1.179   3.964   6.735 -0.0218  0.5615 -0.3637
  124OSM    H2S13184   1.135   3.904   6.818  0.1036 -3.8948 -3.1489
  124OSM    C3S13185   1.330   3.940   6.734 -0.1617 -0.1585 -0.7099
  124OSM    H3S13186   1.380   3.998   6.653  1.0041  1.3608  1.0244
  124OSM     O313187   1.363   3.805   6.708 -0.0247  0.4735 -0.1956
  124OSM    HO313188   1.288   3.772   6.659 -0.1962 -1.2248  1.1382
  124OSM    C4S13189   1.392   3.993   6.861  0.1703  0.2787  0.0768
  124OSM    H4S13190   1.389   4.103   6.873  0.9252  0.6112 -2.2754
  124OSM    C5S13191   1.452   3.917   6.955  0.3249  0.3028 -0.0350
  124OSM    H5S13192   1.475   3.811   6.936 -0.9339 -0.4709  2.3894
  124OSM    C6S13193   1.510   3.956   7.090  0.1107 -0.7649  0.1901
  124OSM    H6S13194   1.529   4.064   7.103  0.1291 -0.4680 -1.9386
  124OSM    H6T13195   1.612   3.912   7.090  0.0652 -0.8737  0.6728
  124OSM    C7S13196   1.446   3.893   7.215  0.0693 -0.6257 -0.5657
  124OSM    H7S13197   1.458   3.783   7.209  1.5812 -0.6480  1.7645
  124OSM    H7T13198   1.336   3.904   7.209 -0.0974 -1.8448 -0.0486
  124OSM    C8S13199   1.500   3.929   7.351 -0.3020 -0.3439 -0.0255
  124OSM    H8S13200   1.507   4.040   7.357 -0.1877 -0.3943  0.8763
  124OSM    H8T13201   1.604   3.893   7.359  0.4409  1.8816  1.0855
  124OSM    C9S13202   1.428   3.877   7.478 -0.5419 -0.1085 -0.1353
  124OSM    H9S13203   1.420   3.768   7.459  1.5900 -0.2790 -0.1875
  124OSM    H9T13204   1.325   3.919   7.488 -0.4009  0.2703 -0.2620
  124OSM   C10S13205   1.513   3.900   7.606  0.3272 -0.1388  0.0756
  124OSM   H10S13206   1.566   3.998   7.601  0.0960  0.0829  1.4151
  124OSM   H10T13207   1.593   3.823   7.611  1.1182  0.7211  1.6656
  124OSM   C11S13208   1.432   3.880   7.734 -0.5342  0.5302 -0.4991
  124OSM   H11S13209   1.398   3.775   7.741 -0.1165  0.3989 -0.3557
  124OSM   H11T13210   1.340   3.941   7.730 -1.4871 -0.8566 -0.2938
  124OSM   C12S13211   1.517   3.920   7.860  0.1716  0.0843 -0.0826
  124OSM   H12S13212   1.539   4.027   7.845  1.8346 -0.4900 -2.4221
  124OSM   H12T13213   1.614   3.867   7.864  0.5345  0.7569  0.0950
  124OSM   C13S13214   1.435   3.901   7.990 -0.4573  0.0894  0.0980
  124OSM   H13S13215   1.409   3.795   8.013 -2.0229  0.3958 -0.1229
  124OSM   H13T13216   1.332   3.943   7.981 -0.9603 -0.8819  0.9790
  124OSM   C14S13217   1.509   3.948   8.114  0.3685 -0.8418  0.5268
  124OSM   H14S13218   1.539   4.055   8.108  0.6887 -0.8527  1.6260
  124OSM   H14T13219   1.599   3.884   8.127  0.3199 -0.4468  3.3965
  124OSM   C15S13220   1.442   3.937   8.248  0.5807  0.3907  0.3651
  124OSM   H15S13221   1.345   3.992   8.246  0.2040 -0.1239  2.2458
  124OSM   H15T13222   1.512   3.985   8.320  0.4825 -1.6978  1.9388
  124OSM   C16S13223   1.409   3.796   8.292  0.0834  0.2943  0.0824
  124OSM   H16S13224   1.506   3.743   8.278  0.2046  0.7643 -0.9155
  124OSM   H16T13225   1.336   3.749   8.223 -0.2116 -0.6081  0.9795
  124OSM   C17S13226   1.356   3.793   8.436 -0.1510  0.2936  0.1613
  124OSM   H17S13227   1.270   3.862   8.444 -1.1940 -0.7909 -1.1413
  124OSM   H17T13228   1.433   3.837   8.503 -1.4916  0.7085  1.4685
  124OSM   C18S13229   1.316   3.655   8.472 -0.4533 -0.2326 -0.2711
  124OSM   H18S13230   1.273   3.664   8.574 -1.0801  1.4475 -0.6469
  124OSM   H18T13231   1.404   3.587   8.466  1.6350  2.2116  0.7597
  124OSM   H18U13232   1.233   3.620   8.408 -0.9135  0.1859  0.0896
  124OSM    C1F13233   1.012   4.136   6.795 -0.2279 -0.2706  0.3808
  124OSM     OF13234   0.937   4.052   6.844  0.7187  0.6110  0.1783
  124OSM    C2F13235   0.973   4.279   6.789  0.3360  0.5224 -0.5954
  124OSM    H2F13236   0.889   4.274   6.715 -1.1830  2.2038  0.9200
  124OSM    H2G13237   1.060   4.337   6.752 -0.2641  1.6921 -0.2266
  124OSM    C3F13238   0.927   4.329   6.929  0.0375 -0.2394 -0.2454
  124OSM    H3F13239   0.830   4.282   6.957  1.1880 -0.7764  3.3697
  124OSM    H3G13240   0.899   4.437   6.923  1.0583 -0.0203 -1.2939
  124OSM    C4F13241   1.019   4.302   7.057  0.4314 -0.4335 -0.5088
  124OSM    H4F13242   1.011   4.197   7.093 -0.3508 -0.0216  0.6116
  124OSM    H4G13243   0.971   4.363   7.137 -1.3274 -3.5883  1.0725
  124OSM    C5F13244   1.173   4.332   7.042  0.9849  0.2086 -0.1708
  124OSM    H5F13245   1.186   4.418   6.973  1.9441  1.3123  1.3174
  124OSM    H5G13246   1.219   4.242   6.996 -2.3465 -2.2887  0.9699
  124OSM    C6F13247   1.230   4.363   7.182  0.1242 -0.0854 -0.4187
  124OSM    H6F13248   1.160   4.437   7.226  1.3543  1.0126 -0.2352
  124OSM    H6G13249   1.331   4.408   7.167  1.1263 -1.3646  1.8729
  124OSM    C7F13250   1.247   4.243   7.277 -0.2501  0.2724 -0.1717
  124OSM    H7F13251   1.272   4.156   7.213 -1.8397 -1.4141  1.3698
  124OSM    H7G13252   1.148   4.215   7.320 -0.0156 -2.2925 -1.1380
  124OSM    C8F13253   1.353   4.260   7.383 -0.7035  0.3107 -0.3282
  124OSM    H8F13254   1.454   4.246   7.336 -0.6690 -0.4476 -0.0476
  124OSM    H8G13255   1.334   4.173   7.449 -0.8606  0.3329 -0.3443
  124OSM    C9F13256   1.333   4.382   7.462 -0.3882 -0.1081  0.4051
  124OSM    H9F13257   1.388   4.467   7.417  0.7398  0.2173  2.3049
  124OSM   C10F13258   1.268   4.406   7.575  0.6009  0.1675 -0.2713
  124OSM   H10F13259   1.273   4.504   7.627  1.3746 -0.5795  1.1314
  124OSM   C11F13260   1.201   4.299   7.649  0.2052  0.3866  0.6462
  124OSM   H11F13261   1.166   4.214   7.586 -1.6258  0.1516  1.8849
  124OSM   H11G13262   1.104   4.346   7.677  0.6817  1.9952 -0.2862
  124OSM   C12F13263   1.258   4.241   7.776  0.2893  0.0913  0.2179
  124OSM   H12F13264   1.362   4.201   7.769 -0.1356 -1.1967  0.9447
  124OSM   H12G13265   1.203   4.156   7.821 -0.5043  0.6741  0.3643
  124OSM   C13F13266   1.256   4.337   7.901 -0.1134 -0.0161  0.3140
  124OSM   H13F13267   1.153   4.377   7.916 -0.3115 -0.0498 -0.8784
  124OSM   H13G13268   1.322   4.423   7.875 -0.4230  0.2596  0.4203
  124OSM   C14F13269   1.315   4.273   8.028  0.2740  0.3209 -0.3409
  124OSM   H14F13270   1.416   4.230   8.008  0.4091  1.2924 -1.9548
  124OSM   H14G13271   1.244   4.200   8.070 -0.4569 -0.0050 -2.0427
  124OSM   C15F13272   1.323   4.371   8.144  0.4185  0.0838  0.0246
  124OSM   H15F13273   1.222   4.412   8.163 -1.0219 -3.1896  0.1465
  124OSM   H15G13274   1.411   4.435   8.125  0.8410 -0.5956 -0.3556
  124OSM   C16F13275   1.353   4.295   8.274  0.0617 -0.3201 -0.5221
  124OSM   H16F13276   1.453   4.248   8.266  1.3297  2.3421 -1.7499
  124OSM   H16G13277   1.275   4.224   8.309 -0.8682  1.5661  1.4953
  124OSM   C17F13278   1.356   4.392   8.395  0.0017  0.0141 -0.1842
  124OSM   H17F13279   1.260   4.443   8.418  0.1900 -0.5727  2.2823
  124OSM   H17G13280   1.435   4.463   8.365 -0.0174  0.7605  1.4385
  124OSM   C18F13281   1.387   4.315   8.523 -0.5761  0.4322  0.2075
  124OSM   H18F13282   1.496   4.293   8.529 -0.6457  0.2506  0.8830
  124OSM   H18G13283   1.345   4.213   8.507 -2.2204  0.9715  0.8374
  124OSM   H18H13284   1.356   4.367   8.616  3.4718  0.9611  1.4580
  125OSM      N13285   5.819   5.430   6.102  0.3491  0.2154 -0.3292
  125OSM    C1513286   5.805   5.290   6.061 -0.4463  1.3206  1.0402
  125OSM   H15A13287   5.902   5.248   6.039 -0.9710  0.8987 -0.5604
  125OSM   H15B13288   5.755   5.284   5.966 -0.4268  0.4097  1.0870
  125OSM   H15C13289   5.763   5.222   6.133 -0.1578 -0.8775 -0.7538
  125OSM    C1413290   5.835   5.522   5.987 -0.0004  0.2922  0.1962
  125OSM   H14A13291   5.740   5.523   5.936 -0.7469  2.0657  1.5219
  125OSM   H14B13292   5.907   5.498   5.911  0.8166  0.0375  1.0236
  125OSM   H14C13293   5.860   5.623   6.015  0.7819  0.4808 -1.1088
  125OSM    C1313294   5.693   5.476   6.173 -0.4174 -0.6426 -0.2133
  125OSM   H13A13295   5.683   5.582   6.190 -0.9254 -0.8548  0.9067
  125OSM   H13B13296   5.691   5.426   6.269  1.4902  0.5553  0.4829
  125OSM   H13C13297   5.603   5.452   6.117  1.0357 -1.7002 -2.2225
  125OSM    C1213298   5.932   5.435   6.201 -0.3426  0.0306  0.6511
  125OSM   H12A13299   5.921   5.354   6.271  1.1801 -0.2984  0.5540
  125OSM   H12B13300   5.910   5.517   6.269 -0.7767 -0.4917  1.1455
  125OSM    C1113301   6.079   5.430   6.163 -0.0351 -0.2849  0.7200
  125OSM   H11A13302   6.148   5.448   6.248  1.5165  1.0682 -0.7307
  125OSM   H11B13303   6.102   5.525   6.110 -0.2066  0.0898  1.3066
  125OSM      P13304   6.199   5.213   6.143  0.0620  0.3166 -0.1697
  125OSM    O1313305   6.185   5.095   6.054  0.3904 -0.0815  0.2098
  125OSM    O1413306   6.334   5.264   6.178 -0.5106  0.5769 -0.0992
  125OSM    O1113307   6.120   5.186   6.271  0.1816  0.2659  0.1376
  125OSM    O1213308   6.123   5.330   6.072 -0.0335 -0.3528 -0.5203
  125OSM    C1S13309   6.180   5.165   6.409 -0.3270  0.4287 -0.7637
  125OSM    H1S13310   6.271   5.229   6.412  0.2115 -0.0365 -3.6373
  125OSM    H1T13311   6.217   5.061   6.412 -0.3263  0.4073  2.7975
  125OSM     NF13312   6.150   5.251   6.647 -0.3972 -0.0014  0.6866
  125OSM    HNF13313   6.148   5.195   6.730  0.0314 -1.8718 -0.5041
  125OSM    C2S13314   6.083   5.195   6.528 -0.1467  0.3399  0.3778
  125OSM    H2S13315   6.009   5.272   6.494 -0.0952  0.3032  0.1800
  125OSM    C3S13316   5.996   5.069   6.571 -0.6885  0.1171  0.0762
  125OSM    H3S13317   6.063   4.998   6.625 -3.4903 -1.1922  2.0608
  125OSM     O313318   5.941   5.006   6.455  0.5363 -0.4839  0.1069
  125OSM    HO313319   5.993   5.050   6.387 -1.1741  3.9770  1.3377
  125OSM    C4S13320   5.877   5.105   6.654 -0.7103 -0.1648 -0.1034
  125OSM    H4S13321   5.797   5.169   6.612  0.7692  1.2506 -0.8895
  125OSM    C5S13322   5.859   5.065   6.783  0.0894 -0.4009 -0.2128
  125OSM    H5S13323   5.939   5.003   6.826 -0.8828 -0.8603  0.9861
  125OSM    C6S13324   5.756   5.102   6.891 -0.7948 -0.5669  0.6270
  125OSM    H6S13325   5.693   5.019   6.930  1.0571 -0.9789  2.9753
  125OSM    H6T13326   5.694   5.184   6.851 -0.8346  0.9102  3.4872
  125OSM    C7S13327   5.834   5.164   7.013 -0.1900 -0.3476  0.5044
  125OSM    H7S13328   5.874   5.260   6.975 -2.3538  0.8380  1.0621
  125OSM    H7T13329   5.926   5.106   7.034 -0.2780 -0.3435  0.8945
  125OSM    C8S13330   5.749   5.187   7.134  0.4283 -0.2470 -0.2458
  125OSM    H8S13331   5.688   5.098   7.162 -0.6490  0.4179 -0.4229
  125OSM    H8T13332   5.671   5.266   7.123  0.6145  0.2970  1.8736
  125OSM    C9S13333   5.824   5.214   7.263 -0.1115  0.3129 -0.6053
  125OSM    H9S13334   5.896   5.295   7.237 -0.6218  0.3010 -2.1411
  125OSM    H9T13335   5.891   5.132   7.295 -0.2459  0.8509  1.1807
  125OSM   C10S13336   5.738   5.255   7.383 -0.0478 -0.0102  0.4161
  125OSM   H10S13337   5.668   5.171   7.405  1.5163 -1.5879 -0.3651
  125OSM   H10T13338   5.671   5.339   7.354 -2.7660 -2.4362 -0.9389
  125OSM   C11S13339   5.823   5.288   7.502 -0.8251 -0.4987 -0.7688
  125OSM   H11S13340   5.889   5.366   7.459 -1.3697  0.6727  0.4352
  125OSM   H11T13341   5.881   5.200   7.538 -0.3533  0.3242  0.5574
  125OSM   C12S13342   5.761   5.339   7.631  0.5817  0.2746  0.2886
  125OSM   H12S13343   5.668   5.284   7.659  0.3585 -0.4673 -1.7471
  125OSM   H12T13344   5.735   5.446   7.616  2.8766  0.4972 -3.2803
  125OSM   C13S13345   5.860   5.345   7.735 -1.2482  0.9895  0.4085
  125OSM   H13S13346   5.958   5.389   7.706  0.8732 -3.3068  0.2320
  125OSM   H13T13347   5.877   5.241   7.771  1.7233  2.0276  2.4296
  125OSM   C14S13348   5.814   5.429   7.853 -0.3526  0.0460 -0.4646
  125OSM   H14S13349   5.703   5.429   7.858 -0.3244 -1.0346  2.8378
  125OSM   H14T13350   5.843   5.533   7.826  2.2657 -0.2212  1.0716
  125OSM   C15S13351   5.867   5.382   7.987 -0.0586 -0.0002 -0.6157
  125OSM   H15S13352   5.977   5.397   7.999 -0.3562  0.8475  1.6119
  125OSM   H15T13353   5.842   5.274   7.997 -0.6859  0.1016 -1.0415
  125OSM   C16S13354   5.814   5.459   8.113 -0.0741 -0.1143 -0.8583
  125OSM   H16S13355   5.704   5.446   8.121 -0.1250 -1.1334 -2.5453
  125OSM   H16T13356   5.842   5.565   8.097  3.5577 -0.7910  0.0617
  125OSM   C17S13357   5.873   5.408   8.246 -0.1474  0.3485 -0.2490
  125OSM   H17S13358   5.941   5.480   8.295  3.9419 -2.7370 -0.7634
  125OSM   H17T13359   5.940   5.327   8.210 -0.5337  0.1863 -0.6154
  125OSM   C18S13360   5.768   5.372   8.353  0.1044 -0.3560 -0.1587
  125OSM   H18S13361   5.711   5.462   8.383  0.1384 -0.7629  1.2097
  125OSM   H18T13362   5.813   5.331   8.446 -0.8717 -0.9768  0.0604
  125OSM   H18U13363   5.700   5.295   8.311 -1.5938 -0.3771  2.4124
  125OSM    C1F13364   6.208   5.373   6.638  0.5853 -0.4164  0.3056
  125OSM     OF13365   6.227   5.431   6.532  0.6390  0.1361  0.2824
  125OSM    C2F13366   6.260   5.429   6.762  0.3299  0.2675  0.1218
  125OSM    H2F13367   6.364   5.466   6.750  0.4414 -0.0128  0.2202
  125OSM    H2G13368   6.253   5.343   6.832  1.1252  1.3008  1.5299
  125OSM    C3F13369   6.180   5.545   6.818  0.8454 -0.1982  0.1726
  125OSM    H3F13370   6.071   5.539   6.797  0.4214  3.6976  0.5149
  125OSM    H3G13371   6.204   5.642   6.771 -0.6456  1.1609  2.0202
  125OSM    C4F13372   6.211   5.579   6.960  0.0355  0.3485 -0.0612
  125OSM    H4F13373   6.232   5.688   6.967 -0.0659  0.5369 -2.1585
  125OSM    H4G13374   6.310   5.535   6.983 -0.3390 -1.7563 -2.1678
  125OSM    C5F13375   6.093   5.550   7.055  0.5284 -0.9181  0.3122
  125OSM    H5F13376   6.081   5.440   7.056 -2.4633 -0.6806 -0.5744
  125OSM    H5G13377   5.996   5.599   7.030  1.1331 -0.3298 -0.9341
  125OSM    C6F13378   6.123   5.587   7.206 -0.1305 -0.2727 -0.4403
  125OSM    H6F13379   6.221   5.545   7.235 -0.3448 -0.8487 -0.5344
  125OSM    H6G13380   6.054   5.545   7.283  1.3900 -1.7832  0.1447
  125OSM    C7F13381   6.138   5.746   7.240  0.2018  0.6764  0.2150
  125OSM    H7F13382   6.048   5.798   7.199 -2.3003 -1.9185  1.9821
  125OSM    H7G13383   6.233   5.785   7.200  0.7031  0.0231  0.7426
  125OSM    C8F13384   6.142   5.776   7.389  0.0263  0.8363 -0.0060
  125OSM    H8F13385   6.158   5.886   7.390  0.6322  0.7532 -0.0722
  125OSM    H8G13386   6.222   5.719   7.440 -0.6153  0.9631  1.1759
  125OSM    C9F13387   6.004   5.746   7.458  0.1088  0.2510 -0.9464
  125OSM    H9F13388   5.926   5.694   7.401 -1.4237  3.3923 -1.9728
  125OSM   C10F13389   5.977   5.794   7.582 -1.1535  0.5688  1.3714
  125OSM   H10F13390   5.875   5.796   7.622 -1.7510  1.8033 -0.1409
  125OSM   C11F13391   6.064   5.879   7.675  0.4799  0.2220  0.7753
  125OSM   H11F13392   6.046   5.989   7.679  0.4171  0.2357  0.1943
  125OSM   H11G13393   6.170   5.870   7.640  0.0990 -3.2884  0.2037
  125OSM   C12F13394   6.052   5.850   7.827  0.1715  1.1941 -0.0345
  125OSM   H12F13395   6.122   5.915   7.883 -0.3718  0.3170  1.7368
  125OSM   H12G13396   6.057   5.742   7.852  0.6646  0.6846 -2.0917
  125OSM   C13F13397   5.915   5.892   7.881 -0.2510  0.5352 -0.0275
  125OSM   H13F13398   5.843   5.823   7.832 -0.2480  1.5245 -1.4989
  125OSM   H13G13399   5.892   5.994   7.845  0.1468  1.1706  1.4593
  125OSM   C14F13400   5.904   5.881   8.036  0.3460  0.8887  0.3006
  125OSM   H14F13401   5.895   5.777   8.075 -1.9883  0.5204 -1.0236
  125OSM   H14G13402   5.805   5.920   8.067 -0.0792 -0.4669  0.7425
  125OSM   C15F13403   6.023   5.950   8.108  0.0200 -0.1050  0.3278
  125OSM   H15F13404   6.058   6.037   8.049  0.5329 -0.4392  0.1315
  125OSM   H15G13405   6.104   5.874   8.097 -0.9006 -0.8416 -1.7594
  125OSM   C16F13406   5.989   5.982   8.250 -0.3684  0.8067 -0.3383
  125OSM   H16F13407   5.923   6.071   8.256  0.7530  1.5789  1.9891
  125OSM   H16G13408   6.088   6.012   8.290 -0.5516 -0.2030  0.9623
  125OSM   C17F13409   5.930   5.869   8.330  0.2524 -0.2255 -0.2323
  125OSM   H17F13410   5.995   5.783   8.354 -2.3086 -2.5071 -1.0359
  125OSM   H17G13411   5.838   5.833   8.279  0.8788  0.5797 -2.0268
  125OSM   C18F13412   5.908   5.907   8.474  0.5610  0.8166  0.5077
  125OSM   H18F13413   5.859   5.821   8.524 -1.3017  0.8943 -1.0573
  125OSM   H18G13414   5.836   5.991   8.472  2.1186  2.2046 -1.5033
  125OSM   H18H13415   5.998   5.935   8.534  0.9379 -1.3182  1.0203
  126OSM      N13416   4.759   4.281   6.744 -0.3506  0.1177  0.1781
  126OSM    C1513417   4.699   4.303   6.604 -0.5683  0.0330 -0.4080
  126OSM   H15A13418   4.750   4.381   6.550  1.0518 -1.2826 -0.8378
  126OSM   H15B13419   4.592   4.313   6.616 -1.0046 -0.3795 -3.1968
  126OSM   H15C13420   4.712   4.214   6.544  2.3000  0.4010 -0.4533
  126OSM    C1413421   4.697   4.169   6.818 -0.2446  0.1173 -0.6118
  126OSM   H14A13422   4.593   4.190   6.842 -0.2936  0.5417 -1.1816
  126OSM   H14B13423   4.748   4.160   6.913  1.6174  0.5514 -1.5320
  126OSM   H14C13424   4.705   4.076   6.765 -0.8262 -0.3254  0.0662
  126OSM    C1313425   4.906   4.253   6.715  0.5748  0.4306 -0.1130
  126OSM   H13A13426   4.948   4.231   6.811 -1.6410 -0.7518  0.6661
  126OSM   H13B13427   4.953   4.338   6.667 -2.0709  0.0529 -3.8313
  126OSM   H13C13428   4.924   4.170   6.649  0.3876 -0.1458  0.5498
  126OSM    C1213429   4.750   4.414   6.819 -0.5814  0.2278  0.2663
  126OSM   H12A13430   4.797   4.490   6.758  1.1023  0.5875  1.9053
  126OSM   H12B13431   4.806   4.411   6.911  1.4488  1.9646 -0.8318
  126OSM    C1113432   4.606   4.459   6.858 -0.2166 -0.4177  0.1035
  126OSM   H11A13433   4.618   4.534   6.939 -0.2092  1.0816 -1.2309
  126OSM   H11B13434   4.550   4.375   6.904  1.6205  0.1368  3.7330
  126OSM      P13435   4.468   4.654   6.738 -0.0777 -0.3379  0.3829
  126OSM    O1313436   4.548   4.763   6.801 -0.0172  0.0159 -0.2939
  126OSM    O1413437   4.417   4.678   6.602 -0.6123 -0.5141 -0.7609
  126OSM    O1113438   4.338   4.611   6.823  0.0322  0.3275  0.1457
  126OSM    O1213439   4.543   4.515   6.740  0.2463 -0.4383 -0.1542
  126OSM    C1S13440   4.344   4.645   6.960 -0.0410 -0.2741  0.3132
  126OSM    H1S13441   4.298   4.745   6.971 -0.8856 -0.4398 -1.3674
  126OSM    H1T13442   4.444   4.622   7.002 -0.2320 -2.8389 -0.4566
  126OSM     NF13443   4.247   4.583   7.176 -0.4199 -0.2172  0.1740
  126OSM    HNF13444   4.319   4.535   7.225  0.3441  0.5778 -0.1335
  126OSM    C2S13445   4.245   4.552   7.035  0.2307  0.1401  1.2962
  126OSM    H2S13446   4.141   4.572   7.001  0.8450 -0.6893 -1.2851
  126OSM    C3S13447   4.275   4.407   6.998 -0.0705  0.5796 -0.7101
  126OSM    H3S13448   4.380   4.376   7.015 -0.3165  0.3027  0.4043
  126OSM     O313449   4.247   4.378   6.867 -0.1163  0.8396  0.0725
  126OSM    HO313450   4.262   4.463   6.824  0.6416  1.4686  1.4846
  126OSM    C4S13451   4.186   4.319   7.074 -0.0042 -0.2243 -0.2125
  126OSM    H4S13452   4.085   4.309   7.034 -0.7176  0.3323  1.3566
  126OSM    C5S13453   4.207   4.260   7.193  0.3767  0.6078  0.2295
  126OSM    H5S13454   4.308   4.260   7.236 -0.2063 -0.5234  1.6965
  126OSM    C6S13455   4.094   4.177   7.261  0.0885  0.2874 -0.7218
  126OSM    H6S13456   4.096   4.075   7.217 -0.4348  0.7869 -1.9715
  126OSM    H6T13457   3.992   4.220   7.244 -0.6043 -0.9528  0.1508
  126OSM    C7S13458   4.106   4.173   7.417 -0.8693 -0.6788  0.5806
  126OSM    H7S13459   4.211   4.139   7.430 -0.6390  0.0390  0.6764
  126OSM    H7T13460   4.041   4.097   7.465  0.1463 -1.9580  0.0007
  126OSM    C8S13461   4.095   4.308   7.489  0.3456  0.2180  0.4990
  126OSM    H8S13462   3.993   4.349   7.477  1.0652  1.9465 -0.0239
  126OSM    H8T13463   4.163   4.386   7.448  0.6573 -0.9299 -1.2886
  126OSM    C9S13464   4.120   4.292   7.639 -0.4139 -0.0935 -0.0395
  126OSM    H9S13465   4.211   4.240   7.675  0.9705  1.4706 -1.1551
  126OSM    H9T13466   4.044   4.224   7.684  0.3344 -0.7171  0.3041
  126OSM   C10S13467   4.126   4.425   7.724  0.3256  0.2498 -0.3866
  126OSM   H10S13468   4.026   4.474   7.720 -0.2608 -0.7458  1.0457
  126OSM   H10T13469   4.205   4.489   7.682  0.4941  1.3244  1.4652
  126OSM   C11S13470   4.146   4.389   7.873 -0.0292 -0.4558  0.1405
  126OSM   H11S13471   4.216   4.303   7.879 -0.2845 -0.5721  1.9142
  126OSM   H11T13472   4.050   4.353   7.916  0.3230 -0.6916  0.7466
  126OSM   C12S13473   4.210   4.489   7.964 -0.4579 -0.6834  0.3988
  126OSM   H12S13474   4.163   4.585   7.932  1.4955 -0.2773 -1.4326
  126OSM   H12T13475   4.319   4.494   7.948 -0.3766 -1.1371  0.7772
  126OSM   C13S13476   4.185   4.458   8.107 -0.4757  0.3778 -0.6129
  126OSM   H13S13477   4.230   4.361   8.140 -2.4323 -0.1072  0.8011
  126OSM   H13T13478   4.077   4.451   8.130 -0.4613 -0.2696 -0.6969
  126OSM   C14S13479   4.263   4.562   8.196 -0.7387  0.1357 -0.1724
  126OSM   H14S13480   4.211   4.659   8.181  1.1909  1.4062  0.8107
  126OSM   H14T13481   4.365   4.577   8.155 -1.6061  0.1134 -2.4797
  126OSM   C15S13482   4.254   4.517   8.344 -0.3370 -0.2484  0.0744
  126OSM   H15S13483   4.229   4.409   8.350 -0.2011 -0.4001 -1.5584
  126OSM   H15T13484   4.163   4.567   8.384 -0.1346  0.7274 -0.6427
  126OSM   C16S13485   4.371   4.546   8.435  0.0505  0.2426  0.5045
  126OSM   H16S13486   4.382   4.657   8.439 -1.1445  0.3442  1.8497
  126OSM   H16T13487   4.463   4.504   8.389 -0.3907 -0.9838  0.7033
  126OSM   C17S13488   4.364   4.492   8.579  0.1845 -0.9114 -0.3502
  126OSM   H17S13489   4.453   4.508   8.644 -1.3284 -0.6450  1.7258
  126OSM   H17T13490   4.358   4.381   8.573  1.3864 -1.0476  0.5832
  126OSM   C18S13491   4.243   4.537   8.659 -0.5585 -0.1433  0.3428
  126OSM   H18S13492   4.243   4.488   8.758 -0.5355 -2.7489 -0.8679
  126OSM   H18T13493   4.142   4.533   8.612  0.1048  0.1358 -1.1593
  126OSM   H18U13494   4.233   4.645   8.683 -1.7535  0.1219 -1.1369
  126OSM    C1F13495   4.198   4.685   7.239  0.5515 -0.1893  0.0751
  126OSM     OF13496   4.131   4.774   7.180  0.1178  0.5375 -0.1758
  126OSM    C2F13497   4.219   4.692   7.387 -0.4284 -0.2803  0.1392
  126OSM    H2F13498   4.322   4.731   7.397  0.5516 -1.3179 -3.9056
  126OSM    H2G13499   4.203   4.592   7.435  0.1372 -0.8145 -0.7604
  126OSM    C3F13500   4.118   4.786   7.449 -0.0984  0.1167  0.3944
  126OSM    H3F13501   4.025   4.733   7.421 -0.3898  1.1206 -0.6266
  126OSM    H3G13502   4.132   4.887   7.404 -3.4793  0.6035  0.1341
  126OSM    C4F13503   4.134   4.795   7.603  0.1257  0.0106  0.6495
  126OSM    H4F13504   4.142   4.694   7.649 -0.1577 -0.1884  0.2604
  126OSM    H4G13505   4.051   4.849   7.653  0.1970 -1.3062  2.2840
  126OSM    C5F13506   4.260   4.874   7.639 -0.0176  0.2611 -0.2541
  126OSM    H5F13507   4.257   4.977   7.597 -0.1557 -0.8293 -3.1237
  126OSM    H5G13508   4.351   4.825   7.598 -0.4990 -0.7463 -0.1349
  126OSM    C6F13509   4.266   4.892   7.795 -0.0128  0.2216 -0.7157
  126OSM    H6F13510   4.272   4.791   7.842  1.2936  1.4440  1.9363
  126OSM    H6G13511   4.172   4.939   7.830 -0.1539 -0.2434 -0.4583
  126OSM    C7F13512   4.387   4.980   7.834  0.2638 -0.5913 -0.2116
  126OSM    H7F13513   4.393   5.069   7.768  0.3092 -0.8018 -0.4939
  126OSM    H7G13514   4.487   4.932   7.829  0.8071  0.4928 -0.0692
  126OSM    C8F13515   4.379   5.025   7.981 -0.0054 -0.4673  0.1782
  126OSM    H8F13516   4.287   5.083   8.003  1.9420  2.1301  2.1675
  126OSM    H8G13517   4.466   5.088   8.010  0.5043 -1.1975  0.2934
  126OSM    C9F13518   4.383   4.900   8.069 -0.4197 -0.0127 -0.9746
  126OSM    H9F13519   4.297   4.832   8.062 -0.1879 -0.3680 -0.3550
  126OSM   C10F13520   4.477   4.867   8.157  0.4107  0.2290  0.7118
  126OSM   H10F13521   4.447   4.786   8.225 -1.9104  0.8787  0.5393
  126OSM   C11F13522   4.607   4.939   8.168  0.0318  0.3256  0.3139
  126OSM   H11F13523   4.649   4.979   8.073  0.1768  1.1277  0.7000
  126OSM   H11G13524   4.668   4.855   8.208 -0.3326  0.4949  1.2634
  126OSM   C12F13525   4.601   5.046   8.280  0.2062 -0.0778  0.2229
  126OSM   H12F13526   4.520   5.022   8.352 -1.9051 -0.1807 -2.0738
  126OSM   H12G13527   4.585   5.144   8.230 -0.1254  0.4040  1.2555
  126OSM   C13F13528   4.733   5.064   8.356  0.1179  0.0868 -0.2437
  126OSM   H13F13529   4.814   5.075   8.281 -0.5831 -1.4273 -1.2642
  126OSM   H13G13530   4.745   4.970   8.413  0.1238  0.4861  0.4309
  126OSM   C14F13531   4.719   5.185   8.448  0.2791 -0.7543  0.0463
  126OSM   H14F13532   4.639   5.159   8.521  0.8798  1.9958  1.8348
  126OSM   H14G13533   4.686   5.278   8.396 -0.9517  0.8982  3.4598
  126OSM   C15F13534   4.844   5.198   8.535  0.0024  0.5008  0.2982
  126OSM   H15F13535   4.935   5.217   8.475  1.3611 -1.2571  1.6773
  126OSM   H15G13536   4.857   5.102   8.590  0.3921 -0.1285 -0.8670
  126OSM   C16F13537   4.828   5.313   8.640 -0.4775  0.0741 -0.1030
  126OSM   H16F13538   4.761   5.304   8.728 -1.2913  0.2222 -0.6971
  126OSM   H16G13539   4.780   5.396   8.583  0.0582  1.7157  1.7181
  126OSM   C17F13540   4.971   5.354   8.685 -0.4809 -0.1311 -0.0673
  126OSM   H17F13541   4.966   5.457   8.727  2.4419  0.6591 -1.3766
  126OSM   H17G13542   5.048   5.355   8.604 -1.1874  2.1325 -0.7950
  126OSM   C18F13543   5.024   5.270   8.802  0.0501 -0.6412  0.2605
  126OSM   H18F13544   5.021   5.162   8.778  0.6908 -0.4599 -0.7077
  126OSM   H18G13545   4.951   5.276   8.886 -2.6189 -2.8175 -1.7436
  126OSM   H18H13546   5.124   5.301   8.839  0.3838 -0.1615 -0.9949
  127OSM      N13547   0.202   3.076   6.062  0.6150 -0.1633  0.1884
  127OSM    C1513548   0.103   3.185   6.034 -0.1200  0.8977  0.3376
  127OSM   H15A13549   0.092   3.208   5.929  0.1592 -1.6558 -0.3117
  127OSM   H15B13550   0.148   3.276   6.071  0.8236  0.1274  1.1210
  127OSM   H15C13551   0.009   3.183   6.085 -0.8625 -0.4151 -0.9862
  127OSM    C1413552   0.164   2.948   6.017 -0.0714 -0.5816 -0.0046
  127OSM   H14A13553   0.233   2.882   6.066  2.1792  0.0454 -2.1100
  127OSM   H14B13554   0.160   2.944   5.909  1.5213  0.7747 -0.1599
  127OSM   H14C13555   0.065   2.931   6.057 -0.6898  0.9502 -0.7793
  127OSM    C1313556   0.328   3.115   5.989 -0.6186  0.5405  0.0105
  127OSM   H13A13557   0.356   3.216   6.013 -0.3629  0.7316 -1.0397
  127OSM   H13B13558   0.305   3.111   5.884 -1.1674 -0.1322  0.1488
  127OSM   H13C13559   0.409   3.044   6.001  0.2412  1.2006 -1.6185
  127OSM    C1213560   0.220   3.073   6.219  0.0938 -0.0790 -0.2188
  127OSM   H12A13561   0.123   3.046   6.256  1.0179 -2.5897  0.5930
  127OSM   H12B13562   0.231   3.177   6.247 -3.6774  1.0643 -2.2373
  127OSM    C1113563   0.337   2.987   6.270  0.0488 -0.8341 -0.1223
  127OSM   H11A13564   0.353   3.022   6.374 -0.1564 -1.3472  0.0840
  127OSM   H11B13565   0.430   3.006   6.212 -0.6182  0.6655 -0.7581
  127OSM      P13566   0.204   2.767   6.336 -0.0661 -0.9616 -0.2010
  127OSM    O1313567   0.067   2.838   6.334 -0.3491 -0.0698  0.9428
  127OSM    O1413568   0.202   2.634   6.289  0.5927  0.0979 -0.1746
  127OSM    O1113569   0.269   2.775   6.479  0.3349  0.1223  0.2492
  127OSM    O1213570   0.308   2.848   6.252 -0.2714 -0.1039 -0.2377
  127OSM    C1S13571   0.189   2.721   6.580 -0.1485  0.2292 -0.3177
  127OSM    H1S13572   0.189   2.610   6.574  2.9993  0.0509  0.9882
  127OSM    H1T13573   0.087   2.764   6.573  0.3626  1.7354  0.9347
  127OSM     NF13574   0.177   2.700   6.825 -0.7674  0.2431  0.2760
  127OSM    HNF13575   0.110   2.760   6.866 -1.3264 -0.8491  1.0233
  127OSM    C2S13576   0.256   2.758   6.713 -0.2483 -0.4444 -0.2652
  127OSM    H2S13577   0.352   2.703   6.712 -1.5543 -2.8546 -0.6270
  127OSM    C3S13578   0.282   2.910   6.727 -0.6366 -0.2106  0.8493
  127OSM    H3S13579   0.186   2.964   6.711 -0.1418  0.5311  0.3724
  127OSM     O313580   0.381   2.947   6.635  0.6514 -0.1295  0.5105
  127OSM    HO313581   0.353   2.891   6.562 -0.3633  1.2161 -0.1781
  127OSM    C4S13582   0.334   2.953   6.863 -0.2691 -0.4696 -0.7781
  127OSM    H4S13583   0.271   2.934   6.951 -0.4419 -0.5496 -0.9178
  127OSM    C5S13584   0.453   3.019   6.892  0.4670  1.1143 -0.5210
  127OSM    H5S13585   0.520   3.046   6.809  2.8285 -2.3049  0.0769
  127OSM    C6S13586   0.505   3.063   7.031  0.1537 -0.1156  0.1529
  127OSM    H6S13587   0.492   3.173   7.031 -1.1691 -0.2484  1.5548
  127OSM    H6T13588   0.608   3.030   7.054 -0.3159 -0.4472  1.9156
  127OSM    C7S13589   0.421   3.027   7.155 -0.0572  0.4094 -0.9158
  127OSM    H7S13590   0.415   2.917   7.171  1.9936 -0.0966 -3.1208
  127OSM    H7T13591   0.320   3.071   7.140  0.5118  1.6597 -1.2234
  127OSM    C8S13592   0.480   3.086   7.279 -0.4318  0.8131 -0.0036
  127OSM    H8S13593   0.464   3.196   7.275 -0.7377  0.7367 -1.9579
  127OSM    H8T13594   0.591   3.087   7.272 -0.4687  1.6380 -0.6269
  127OSM    C9S13595   0.443   3.012   7.409  0.4119  0.5340 -0.0448
  127OSM    H9S13596   0.506   2.923   7.425  0.1730 -0.2680 -2.8823
  127OSM    H9T13597   0.338   2.977   7.396  0.9951 -2.0265  1.4433
  127OSM   C10S13598   0.436   3.104   7.529 -0.2981 -0.5400  0.4861
  127OSM   H10S13599   0.373   3.190   7.499  1.4666  0.5633 -0.2456
  127OSM   H10T13600   0.542   3.132   7.547 -0.1000 -0.4609 -0.6970
  127OSM   C11S13601   0.376   3.033   7.655 -0.0665 -0.6367 -0.3489
  127OSM   H11S13602   0.277   2.990   7.627  0.5929 -2.9593  0.6270
  127OSM   H11T13603   0.372   3.117   7.726  2.3417  0.4290 -1.3643
  127OSM   C12S13604   0.454   2.919   7.719  0.0307  0.4781  0.4313
  127OSM   H12S13605   0.562   2.943   7.727  0.1900  0.2680 -0.7939
  127OSM   H12T13606   0.443   2.831   7.652  0.1288  1.2529 -0.6317
  127OSM   C13S13607   0.407   2.875   7.862  0.3587  0.3051 -0.6454
  127OSM   H13S13608   0.453   2.780   7.894 -2.9459 -1.2999 -0.2315
  127OSM   H13T13609   0.297   2.863   7.865  0.2141  1.6667  1.0741
  127OSM   C14S13610   0.434   2.982   7.973  0.4836  0.5918  0.4468
  127OSM   H14S13611   0.382   3.077   7.947 -0.8528 -0.5346 -1.2073
  127OSM   H14T13612   0.544   2.988   7.980  0.8143 -1.8130 -1.5991
  127OSM   C15S13613   0.386   2.939   8.121  0.3237 -0.1420  0.7438
  127OSM   H15S13614   0.438   3.008   8.192 -0.9569  0.2916  1.2871
  127OSM   H15T13615   0.430   2.837   8.131  2.1622  0.4110 -1.0826
  127OSM   C16S13616   0.233   2.947   8.131 -0.5690 -0.1236  0.4182
  127OSM   H16S13617   0.199   2.865   8.064  1.2059 -1.1733  0.7231
  127OSM   H16T13618   0.188   3.042   8.096 -2.2857 -1.0299  0.0608
  127OSM   C17S13619   0.185   2.926   8.268  0.3637 -0.0523 -0.7076
  127OSM   H17S13620   0.203   2.819   8.290 -0.8412 -0.0565  0.3453
  127OSM   H17T13621   0.075   2.928   8.281  0.2589 -1.6182 -1.1296
  127OSM   C18S13622   0.243   3.010   8.381 -0.0476 -0.2702  0.5711
  127OSM   H18S13623   0.353   3.017   8.362 -0.2964  1.1245 -0.5533
  127OSM   H18T13624   0.225   2.967   8.482 -1.2173 -1.5584 -0.1497
  127OSM   H18U13625   0.204   3.114   8.382 -1.0860 -0.6555  1.5267
  127OSM    C1F13626   0.171   2.571   6.850  0.6490  0.1638  0.4765
  127OSM     OF13627   0.260   2.491   6.813 -0.1920  0.2851 -0.3843
  127OSM    C2F13628   0.058   2.518   6.925  0.4227 -0.0889  0.6679
  127OSM    H2F13629   0.032   2.424   6.873 -0.4565 -1.8902  4.0994
  127OSM    H2G13630  -0.024   2.592   6.917  1.0177  0.6936  1.5187
  127OSM    C3F13631   0.104   2.479   7.064  0.2489 -0.3122 -0.3648
  127OSM    H3F13632   0.140   2.570   7.116  1.4100 -0.2250 -1.2918
  127OSM    H3G13633   0.189   2.408   7.071  0.0249 -0.6228 -0.7699
  127OSM    C4F13634  -0.009   2.408   7.144  0.4254 -0.5788  0.4842
  127OSM    H4F13635  -0.046   2.329   7.076 -1.0050  2.0061 -1.9737
  127OSM    H4G13636  -0.088   2.484   7.164  0.7335 -0.3732  0.9357
  127OSM    C5F13637   0.037   2.351   7.276 -0.1135 -0.0868  0.1563
  127OSM    H5F13638   0.139   2.306   7.268  1.1765  2.5016  0.9107
  127OSM    H5G13639  -0.029   2.263   7.291  0.0328 -0.5852 -1.8265
  127OSM    C6F13640   0.026   2.451   7.398 -0.0612 -0.3091  0.1288
  127OSM    H6F13641  -0.079   2.486   7.412 -0.3336 -1.5700  1.4612
  127OSM    H6G13642   0.097   2.533   7.373 -0.9146  0.6729  0.8157
  127OSM    C7F13643   0.055   2.371   7.529  0.0568 -0.8864  0.7441
  127OSM    H7F13644   0.156   2.324   7.520  0.0911 -0.5768 -0.9162
  127OSM    H7G13645  -0.028   2.297   7.534 -0.7342 -0.1293 -0.5674
  127OSM    C8F13646   0.045   2.469   7.648  0.6576 -0.6934  0.5875
  127OSM    H8F13647  -0.058   2.511   7.647  0.4113 -1.2703  1.2336
  127OSM    H8G13648   0.119   2.551   7.638 -0.4550  0.4878  1.6581
  127OSM    C9F13649   0.075   2.410   7.777  0.6609  0.0472 -1.4641
  127OSM    H9F13650   0.132   2.316   7.773 -0.4532 -0.7873  0.7136
  127OSM   C10F13651   0.054   2.472   7.894  0.4947 -0.0806 -0.4846
  127OSM   H10F13652   0.082   2.423   7.988 -2.6015  0.2299  0.7048
  127OSM   C11F13653  -0.009   2.608   7.918  0.6296 -0.7926  0.2956
  127OSM   H11F13654  -0.015   2.675   7.829  0.2756 -2.1159 -0.6982
  127OSM   H11G13655   0.043   2.667   7.997  2.5155  0.8975 -2.0829
  127OSM   C12F13656  -0.153   2.582   7.963 -0.8500  0.0870  0.1229
  127OSM   H12F13657  -0.207   2.555   7.870  1.3366 -3.5416 -0.3112
  127OSM   H12G13658  -0.209   2.671   7.999 -1.0899  0.9371 -2.2399
  127OSM   C13F13659  -0.187   2.482   8.080 -0.1339  0.5924 -0.2254
  127OSM   H13F13660  -0.129   2.388   8.066 -1.8998 -0.3732 -1.4504
  127OSM   H13G13661  -0.297   2.472   8.074 -0.1401  1.4804 -2.3617
  127OSM   C14F13662  -0.148   2.551   8.212  0.1279 -0.0060 -0.4408
  127OSM   H14F13663  -0.206   2.641   8.238 -0.3578 -0.7935  1.3873
  127OSM   H14G13664  -0.045   2.592   8.201 -0.2346  1.0828  0.1584
  127OSM   C15F13665  -0.150   2.465   8.340 -0.1156 -0.3796 -0.2109
  127OSM   H15F13666  -0.160   2.361   8.301  2.5988 -1.4232  1.5889
  127OSM   H15G13667  -0.246   2.480   8.394 -1.2305 -0.3819 -2.0986
  127OSM   C16F13668  -0.032   2.484   8.430  0.3773  0.1296 -0.6840
  127OSM   H16F13669   0.052   2.511   8.361  0.2305 -0.5768 -1.1465
  127OSM   H16G13670  -0.005   2.393   8.487 -3.3408 -0.2423  0.6913
  127OSM   C17F13671  -0.055   2.611   8.512  0.4716  0.2118 -0.3247
  127OSM   H17F13672  -0.079   2.701   8.451  0.6691  1.2584  1.0982
  127OSM   H17G13673   0.040   2.641   8.560 -0.4091  0.8688  1.0651
  127OSM   C18F13674  -0.161   2.599   8.627  0.4179  0.2157  0.7159
  127OSM   H18F13675  -0.256   2.569   8.579  1.5412 -2.9383  0.1813
  127OSM   H18G13676  -0.166   2.702   8.667  0.8019  2.4186 -4.1740
  127OSM   H18H13677  -0.136   2.528   8.710 -2.2722 -0.1809  1.2828
  128OSM      N13678   1.173   6.026   6.367  0.1466 -0.5872 -0.1112
  128OSM    C1513679   1.119   5.891   6.395 -0.5880  0.0444  0.5231
  128OSM   H15A13680   1.199   5.820   6.380 -1.2305 -0.1445 -2.8252
  128OSM   H15B13681   1.042   5.852   6.330 -0.3013 -2.6161  1.6330
  128OSM   H15C13682   1.091   5.892   6.499  1.6193 -0.2790  1.1804
  128OSM    C1413683   1.054   6.121   6.381 -0.2494 -0.0246 -0.0644
  128OSM   H14A13684   1.081   6.225   6.373 -1.5079  0.4166  1.1339
  128OSM   H14B13685   1.013   6.118   6.480  0.4252  1.5304  0.2870
  128OSM   H14C13686   0.982   6.099   6.303  0.9044 -0.2339 -1.1033
  128OSM    C1313687   1.273   6.068   6.473  0.1364  0.4806  0.1344
  128OSM   H13A13688   1.358   6.003   6.466 -0.6588 -0.5071 -0.7660
  128OSM   H13B13689   1.230   6.061   6.572 -2.9017 -0.1060 -1.1000
  128OSM   H13C13690   1.297   6.172   6.454 -0.3732  0.3986 -1.0906
  128OSM    C1213691   1.239   6.033   6.228  0.0381 -0.0573 -0.7328
  128OSM   H12A13692   1.269   6.135   6.216  0.1775  0.0478  0.3715
  128OSM   H12B13693   1.161   6.008   6.158  0.9960 -1.6630 -1.2701
  128OSM    C1113694   1.364   5.946   6.207  0.3018  0.2835 -0.2003
  128OSM   H11A13695   1.400   5.978   6.106  1.4770 -1.8939 -0.5281
  128OSM   H11B13696   1.337   5.839   6.210  3.0086 -0.4428  0.4584
  128OSM      P13697   1.619   5.911   6.274  0.0078  0.0961  0.5370
  128OSM    O1313698   1.615   5.763   6.278  0.4551 -0.0919 -0.3187
  128OSM    O1413699   1.670   5.974   6.149  0.1752 -0.4456  0.4056
  128OSM    O1113700   1.704   5.972   6.395  0.1294 -0.2141 -0.1011
  128OSM    O1213701   1.471   5.965   6.302 -0.1936  0.1873 -0.5285
  128OSM    C1S13702   1.656   6.080   6.473  0.3184 -0.4590 -0.6499
  128OSM    H1S13703   1.556   6.070   6.521  1.0148 -0.7059  0.8225
  128OSM    H1T13704   1.646   6.172   6.411 -0.1568  0.0651  0.1821
  128OSM     NF13705   1.699   6.201   6.690 -0.4875 -0.8157 -0.9288
  128OSM    HNF13706   1.733   6.295   6.692  1.3432 -1.4624 -0.4301
  128OSM    C2S13707   1.757   6.123   6.575  0.1614 -0.2234 -0.3049
  128OSM    H2S13708   1.805   6.032   6.616  0.0909  0.3890  1.1830
  128OSM    C3S13709   1.877   6.197   6.501 -0.1681  0.2334 -0.8717
  128OSM    H3S13710   1.842   6.291   6.454  1.1517  2.5739  2.4182
  128OSM     O313711   1.938   6.119   6.400  0.2775  1.0111  0.3530
  128OSM    HO313712   1.867   6.060   6.374 -0.4526  2.6091 -1.4961
  128OSM    C4S13713   1.990   6.224   6.599 -0.3735 -0.2462  0.2748
  128OSM    H4S13714   2.050   6.136   6.626  1.0671 -0.2854 -2.7132
  128OSM    C5S13715   2.018   6.346   6.651  0.6253  0.0790 -0.3648
  128OSM    H5S13716   1.950   6.425   6.614  1.1172 -0.2436 -2.0247
  128OSM    C6S13717   2.123   6.387   6.746  0.8340  0.0066 -0.2011
  128OSM    H6S13718   2.166   6.489   6.735  2.0717 -0.2923  1.4303
  128OSM    H6T13719   2.208   6.320   6.724  1.3130 -0.3375  2.3183
  128OSM    C7S13720   2.069   6.363   6.890 -0.1957  0.3610  0.4673
  128OSM    H7S13721   1.973   6.414   6.913  0.5809  1.7657  0.6715
  128OSM    H7T13722   2.148   6.399   6.959  0.0284  1.9262 -0.5469
  128OSM    C8S13723   2.044   6.214   6.925  0.4115  0.5541  0.4634
  128OSM    H8S13724   2.094   6.149   6.850  1.7741  0.4427  1.4373
  128OSM    H8T13725   1.934   6.198   6.924  0.8179 -3.3212 -0.0818
  128OSM    C9S13726   2.087   6.172   7.065 -0.2785 -0.2168  0.3405
  128OSM    H9S13727   2.198   6.175   7.065 -0.2892  1.5440 -1.1633
  128OSM    H9T13728   2.055   6.066   7.076 -2.5464  0.3474 -0.3831
  128OSM   C10S13729   2.024   6.250   7.187 -0.1028  0.4858  0.2498
  128OSM   H10S13730   1.914   6.250   7.175  0.0690 -1.7553 -2.5326
  128OSM   H10T13731   2.057   6.356   7.180  2.0510 -0.1675 -0.1737
  128OSM   C11S13732   2.047   6.184   7.321 -0.2479  0.1540  0.8562
  128OSM   H11S13733   2.015   6.078   7.317 -0.5250  0.2528 -2.3029
  128OSM   H11T13734   1.994   6.230   7.408  0.4616 -2.9020  3.0622
  128OSM   C12S13735   2.199   6.182   7.353 -0.3554  0.5103 -0.4214
  128OSM   H12S13736   2.235   6.283   7.323 -0.7193  0.3771 -1.3300
  128OSM   H12T13737   2.234   6.098   7.289 -1.7518  0.1213 -0.7080
  128OSM   C13S13738   2.234   6.165   7.500  0.0212 -0.0939 -0.1278
  128OSM   H13S13739   2.203   6.264   7.538  0.2151 -0.1180  0.0890
  128OSM   H13T13740   2.345   6.166   7.497  0.0584  3.1242 -0.9367
  128OSM   C14S13741   2.183   6.048   7.584  0.9146  0.4878 -0.7486
  128OSM   H14S13742   2.218   5.950   7.545  1.9557  1.5630 -2.6328
  128OSM   H14T13743   2.073   6.059   7.574  0.8933  1.4253  0.2985
  128OSM   C15S13744   2.232   6.065   7.727  0.0848  0.0965 -0.3015
  128OSM   H15S13745   2.166   6.140   7.775 -2.3063  0.0069 -3.1632
  128OSM   H15T13746   2.337   6.100   7.716 -0.6694  2.2871 -1.0306
  128OSM   C16S13747   2.219   5.930   7.805 -0.3087 -0.1788  0.5988
  128OSM   H16S13748   2.278   5.867   7.736  0.0275  1.5426 -0.7582
  128OSM   H16T13749   2.116   5.890   7.814 -0.0737 -1.5527 -1.9331
  128OSM   C17S13750   2.281   5.937   7.946  0.3807 -0.0303  0.3964
  128OSM   H17S13751   2.385   5.973   7.928  0.0926  0.1743 -0.9293
  128OSM   H17T13752   2.289   5.834   7.985 -0.8650 -0.2382  0.1280
  128OSM   C18S13753   2.215   6.027   8.045  0.1461  0.9645  0.2363
  128OSM   H18S13754   2.230   5.988   8.148 -1.1111 -0.0837  0.0440
  128OSM   H18T13755   2.104   6.018   8.045  0.2635 -1.1142  0.9798
  128OSM   H18U13756   2.240   6.133   8.027  1.4590  0.7129  0.5148
  128OSM    C1F13757   1.612   6.160   6.773 -0.3785  0.4591 -0.3658
  128OSM     OF13758   1.574   6.045   6.763  0.5403 -0.0107  0.1872
  128OSM    C2F13759   1.548   6.261   6.862 -0.1170  0.5576 -0.0273
  128OSM    H2F13760   1.464   6.208   6.912 -0.2732  0.7085 -0.1278
  128OSM    H2G13761   1.503   6.337   6.796 -1.2563 -1.9884 -2.3514
  128OSM    C3F13762   1.636   6.332   6.971 -0.2761  0.8702  0.2834
  128OSM    H3F13763   1.717   6.390   6.922 -0.6838  0.3819 -0.9997
  128OSM    H3G13764   1.680   6.254   7.037 -0.3884 -0.0648 -0.7350
  128OSM    C4F13765   1.577   6.442   7.056  0.2352 -0.4559  0.0323
  128OSM    H4F13766   1.475   6.424   7.096 -1.1451  3.2944 -1.3036
  128OSM    H4G13767   1.566   6.530   6.989  1.3445 -1.0612 -0.9823
  128OSM    C5F13768   1.676   6.485   7.161 -0.2337  0.1835  0.3692
  128OSM    H5F13769   1.747   6.564   7.127  0.4025  0.2394  1.7492
  128OSM    H5G13770   1.739   6.398   7.187 -0.9190 -0.6585 -0.7241
  128OSM    C6F13771   1.615   6.530   7.296 -0.2386 -0.2117 -0.0736
  128OSM    H6F13772   1.539   6.468   7.347 -1.2425  0.7949 -0.3025
  128OSM    H6G13773   1.554   6.616   7.261 -0.1916 -0.5012 -0.9059
  128OSM    C7F13774   1.722   6.565   7.401 -0.1895  0.2937  0.2809
  128OSM    H7F13775   1.677   6.618   7.487  1.9143  2.2047  0.2914
  128OSM    H7G13776   1.801   6.637   7.369  1.2266 -1.7556 -1.0956
  128OSM    C8F13777   1.783   6.441   7.465 -0.1813 -0.0388 -0.2817
  128OSM    H8F13778   1.877   6.483   7.507  0.4661  0.0202 -1.7140
  128OSM    H8G13779   1.812   6.365   7.389  0.5359 -1.4883  1.3722
  128OSM    C9F13780   1.682   6.387   7.556  0.8708 -0.1123 -0.3294
  128OSM    H9F13781   1.576   6.409   7.537  1.2071  2.1383  0.1114
  128OSM   C10F13782   1.701   6.320   7.673 -0.3821 -0.0941 -0.2859
  128OSM   H10F13783   1.621   6.306   7.747 -1.2112  0.8204 -0.9828
  128OSM   C11F13784   1.841   6.283   7.727 -0.8133 -0.5470 -0.2392
  128OSM   H11F13785   1.915   6.296   7.644 -0.2113  0.1657  0.3960
  128OSM   H11G13786   1.843   6.179   7.766 -2.3507 -1.1583 -1.6830
  128OSM   C12F13787   1.893   6.379   7.834  0.8683  0.4214  0.6981
  128OSM   H12F13788   1.871   6.484   7.805  1.6889  0.4513  0.1725
  128OSM   H12G13789   2.004   6.374   7.834  1.3573  5.1891 -2.4425
  128OSM   C13F13790   1.851   6.329   7.977 -0.1721 -0.2237  0.0645
  128OSM   H13F13791   1.856   6.218   7.981  1.0719 -0.1954 -0.2028
  128OSM   H13G13792   1.747   6.355   8.006 -1.0889  0.1079 -3.1111
  128OSM   C14F13793   1.954   6.364   8.092 -0.2222  1.3755 -0.0993
  128OSM   H14F13794   1.987   6.468   8.070  2.2759  0.5047 -0.8089
  128OSM   H14G13795   2.042   6.297   8.081  0.1319  1.5886  1.2436
  128OSM   C15F13796   1.892   6.342   8.228  0.9107  0.0306  1.0142
  128OSM   H15F13797   1.978   6.345   8.299  1.7746 -2.4466  0.1816
  128OSM   H15G13798   1.851   6.239   8.234 -3.2128  1.4449  0.2724
  128OSM   C16F13799   1.782   6.436   8.279 -0.2220  0.4913 -0.2817
  128OSM   H16F13800   1.773   6.422   8.389  0.4069 -0.6672 -0.3672
  128OSM   H16G13801   1.678   6.425   8.239 -1.1546  3.0433  1.2125
  128OSM   C17F13802   1.807   6.591   8.260  0.2387 -0.4940 -0.3812
  128OSM   H17F13803   1.718   6.631   8.313 -0.4637 -1.0082 -1.1412
  128OSM   H17G13804   1.814   6.633   8.158  2.2859  3.2086  1.1021
  128OSM   C18F13805   1.939   6.634   8.325 -0.7773  0.3604  0.1476
  128OSM   H18F13806   1.930   6.608   8.433 -1.9409 -0.6960 -0.1714
  128OSM   H18G13807   1.944   6.743   8.310 -1.5884  0.5803  1.3228
  128OSM   H18H13808   2.027   6.585   8.277  0.9832  1.4310  2.1223
  129OSM      N13809   6.365   1.840   6.001 -0.3542  0.6440  0.1394
  129OSM    C1513810   6.370   1.694   6.003 -0.1004 -0.2264  0.1162
  129OSM   H15A13811   6.336   1.643   5.914  1.3141 -0.1281 -0.5097
  129OSM   H15B13812   6.309   1.652   6.081 -0.8790 -0.1017 -0.4199
  129OSM   H15C13813   6.470   1.655   6.020  0.8278  1.9151 -0.0998
  129OSM    C1413814   6.463   1.875   5.894  0.3946  0.5365 -0.2936
  129OSM   H14A13815   6.559   1.831   5.915  0.9594  0.6204 -2.4736
  129OSM   H14B13816   6.480   1.981   5.899  4.6094  0.0750 -1.1873
  129OSM   H14C13817   6.423   1.838   5.801  0.5305 -0.2559 -0.0466
  129OSM    C1313818   6.226   1.885   5.951 -0.5844  0.1917 -0.2752
  129OSM   H13A13819   6.143   1.873   6.018 -0.4423  0.0896 -0.1154
  129OSM   H13B13820   6.203   1.836   5.857 -0.2984 -1.6157  0.5675
  129OSM   H13C13821   6.230   1.990   5.924 -0.6747  0.6741  1.4889
  129OSM    C1213822   6.404   1.895   6.135 -0.2891 -0.2156 -0.2727
  129OSM   H12A13823   6.333   1.860   6.208 -1.5185  2.6309  0.0233
  129OSM   H12B13824   6.390   2.002   6.137  1.2448  0.0239 -0.5924
  129OSM    C1113825   6.540   1.855   6.193 -0.4553 -0.1357  0.2394
  129OSM   H11A13826   6.543   1.744   6.188 -2.0778 -0.1719 -0.6055
  129OSM   H11B13827   6.543   1.878   6.301  1.0869 -0.4728  0.2934
  129OSM      P13828   6.723   2.048   6.166  0.0645  0.0526  0.3403
  129OSM    O1313829   6.801   2.109   6.054  0.4845 -0.7188 -0.1494
  129OSM    O1413830   6.625   2.127   6.239 -0.1373  0.2671  0.2151
  129OSM    O1113831   6.825   1.988   6.270  0.0949 -0.6457 -0.3414
  129OSM    O1213832   6.649   1.917   6.112 -0.3704  0.3772  0.1945
  129OSM    C1S13833   6.854   2.057   6.395  0.1499  0.1663 -0.1729
  129OSM    H1S13834   6.800   2.152   6.415  1.4105  0.5128  1.8635
  129OSM    H1T13835   6.963   2.073   6.405 -0.0469  1.7821 -0.3514
  129OSM     NF13836   6.873   2.034   6.632  0.3110 -0.4457  0.4740
  129OSM    HNF13837   6.971   2.037   6.646  0.4487 -0.1909 -0.5228
  129OSM    C2S13838   6.836   1.960   6.514  0.2687 -0.0682  0.5407
  129OSM    H2S13839   6.727   1.940   6.520  0.0169  1.3413  1.0520
  129OSM    C3S13840   6.911   1.818   6.483  0.3843 -0.0849 -0.1096
  129OSM    H3S13841   7.016   1.850   6.472  0.6170 -0.0639  1.8012
  129OSM     O313842   6.859   1.746   6.372 -0.2583 -0.3863  0.5302
  129OSM    HO313843   6.824   1.813   6.313  0.4634  0.8921  1.5202
  129OSM    C4S13844   6.903   1.728   6.605  0.4583 -0.5877  0.3120
  129OSM    H4S13845   6.797   1.713   6.629 -0.8944  2.5910 -2.7426
  129OSM    C5S13846   7.002   1.683   6.677  0.7630  0.9373  0.4815
  129OSM    H5S13847   7.105   1.719   6.663  0.6138  1.3974  0.5586
  129OSM    C6S13848   6.994   1.590   6.799  0.0262 -0.3023  0.0821
  129OSM    H6S13849   7.044   1.497   6.766 -2.3217 -1.0398 -1.6507
  129OSM    H6T13850   6.891   1.554   6.818  0.5224 -0.5437  2.6744
  129OSM    C7S13851   7.052   1.647   6.926 -0.1713  0.1805 -0.7295
  129OSM    H7S13852   6.986   1.730   6.960 -0.7124 -1.0852  1.4665
  129OSM    H7T13853   7.151   1.696   6.908 -0.6329  1.0978 -0.8311
  129OSM    C8S13854   7.074   1.545   7.033 -0.0214 -0.0679 -0.2775
  129OSM    H8S13855   7.151   1.469   7.007  2.0987  1.8170  0.1484
  129OSM    H8T13856   6.978   1.491   7.048  0.6914 -1.3853 -0.2982
  129OSM    C9S13857   7.116   1.609   7.166  0.5985  0.4692 -0.5554
  129OSM    H9S13858   7.032   1.677   7.191  0.3603 -0.3555  1.0015
  129OSM    H9T13859   7.211   1.667   7.163  0.3095  1.0509  0.6851
  129OSM   C10S13860   7.126   1.508   7.280 -0.0435 -0.3516 -0.1219
  129OSM   H10S13861   7.225   1.458   7.291 -1.7857 -4.1850 -0.1858
  129OSM   H10T13862   7.054   1.424   7.271 -0.8424  0.1898  0.8840
  129OSM   C11S13863   7.089   1.578   7.416  0.8150 -0.2415 -0.3313
  129OSM   H11S13864   7.015   1.661   7.410  0.4575 -0.5700 -0.5952
  129OSM   H11T13865   7.179   1.625   7.459  0.6585 -1.1995  1.1399
  129OSM   C12S13866   7.040   1.478   7.515 -0.4985 -0.1175 -0.2545
  129OSM   H12S13867   7.102   1.386   7.505 -1.4101 -0.4870 -3.4599
  129OSM   H12T13868   6.938   1.443   7.487 -0.5841  1.3630 -1.9631
  129OSM   C13S13869   7.033   1.542   7.659 -0.0358  0.5088  0.3012
  129OSM   H13S13870   6.975   1.471   7.721  0.1733  0.2293  0.1797
  129OSM   H13T13871   6.983   1.641   7.647 -0.2904  0.2620 -0.7787
  129OSM   C14S13872   7.165   1.565   7.739  0.4766  0.3568 -0.3225
  129OSM   H14S13873   7.204   1.663   7.704  0.0966 -0.2425 -2.6511
  129OSM   H14T13874   7.241   1.489   7.710  1.4574  1.5349 -0.9714
  129OSM   C15S13875   7.147   1.552   7.893  0.7545 -0.4306 -1.2540
  129OSM   H15S13876   7.247   1.576   7.935  0.1588  0.1293 -0.0838
  129OSM   H15T13877   7.134   1.442   7.902 -1.4753 -0.1357 -0.0971
  129OSM   C16S13878   7.037   1.633   7.967 -0.0181  0.2281  0.2493
  129OSM   H16S13879   6.943   1.615   7.911  1.0891 -2.2061 -0.9825
  129OSM   H16T13880   7.059   1.742   7.966  0.4611  0.1304 -0.4441
  129OSM   C17S13881   7.019   1.602   8.115 -0.5149  0.5195 -0.3713
  129OSM   H17S13882   7.014   1.493   8.132  0.5609  0.5175  0.0165
  129OSM   H17T13883   6.927   1.647   8.158 -0.3803 -0.8831  1.4857
  129OSM   C18S13884   7.144   1.641   8.199  0.4361 -0.0341 -0.4462
  129OSM   H18S13885   7.167   1.747   8.179 -2.5614  0.9976  0.9377
  129OSM   H18T13886   7.232   1.576   8.178  0.6425 -0.9770  2.7069
  129OSM   H18U13887   7.118   1.634   8.307  0.3692  1.3040 -0.3582
  129OSM    C1F13888   6.796   2.111   6.703 -0.0227 -0.6008 -0.0374
  129OSM     OF13889   6.680   2.138   6.666 -0.4992 -0.0187  0.1820
  129OSM    C2F13890   6.847   2.162   6.830  0.3287 -0.5674  0.5044
  129OSM    H2F13891   6.753   2.206   6.869 -1.3790 -0.7595 -3.0248
  129OSM    H2G13892   6.934   2.228   6.814 -0.4881  0.5448  0.5494
  129OSM    C3F13893   6.874   2.041   6.914 -0.1170  0.5987  0.1607
  129OSM    H3F13894   6.972   1.996   6.886 -0.4191  0.2658 -0.3863
  129OSM    H3G13895   6.795   1.963   6.915 -0.4674  0.9437 -0.3961
  129OSM    C4F13896   6.905   2.086   7.059  0.5002 -0.2409 -0.6587
  129OSM    H4F13897   6.823   2.146   7.102  2.0202  1.1178  0.4818
  129OSM    H4G13898   6.992   2.155   7.058  0.8091 -0.6186 -0.3906
  129OSM    C5F13899   6.955   1.976   7.153  0.5384  0.0085  0.0779
  129OSM    H5F13900   7.050   1.924   7.130 -0.6788 -2.4317  0.2418
  129OSM    H5G13901   6.894   1.883   7.156 -0.1802  0.4497  3.6835
  129OSM    C6F13902   6.969   2.035   7.292  0.0759 -0.0316  0.2834
  129OSM    H6F13903   6.883   2.092   7.332  1.1510  1.0933  1.0728
  129OSM    H6G13904   7.044   2.116   7.281  2.2362 -2.0355 -0.5447
  129OSM    C7F13905   7.001   1.938   7.404  0.6676  0.5166  0.0355
  129OSM    H7F13906   7.088   1.874   7.378 -0.0163 -0.3672 -0.1620
  129OSM    H7G13907   6.919   1.866   7.429  0.2044  0.7688 -0.7289
  129OSM    C8F13908   7.027   2.011   7.535 -0.5231 -0.2061 -0.3930
  129OSM    H8F13909   6.944   2.077   7.570 -0.7781 -0.7825  0.1092
  129OSM    H8G13910   7.113   2.076   7.510 -2.7074  1.9452 -2.9204
  129OSM    C9F13911   7.077   1.926   7.642  0.0200  0.2038  0.3467
  129OSM    H9F13912   7.137   1.851   7.588  0.7825  0.8922  0.2211
  129OSM   C10F13913   7.070   1.928   7.772 -0.2717 -0.3939 -0.5392
  129OSM   H10F13914   7.131   1.867   7.840 -1.1945 -1.1894 -0.4003
  129OSM   C11F13915   7.009   2.041   7.853  0.3408 -0.0708 -0.7039
  129OSM   H11F13916   6.967   2.115   7.782 -0.2272 -1.8221 -2.2710
  129OSM   H11G13917   7.084   2.084   7.924 -0.0258 -0.8161  0.1565
  129OSM   C12F13918   6.893   1.995   7.942  1.1812 -0.2245  0.6728
  129OSM   H12F13919   6.904   1.900   7.998 -0.6319 -3.0368 -3.2432
  129OSM   H12G13920   6.817   1.957   7.870  0.9432 -0.9591  1.2861
  129OSM   C13F13921   6.833   2.108   8.026  0.4898 -0.2893  0.2053
  129OSM   H13F13922   6.724   2.093   8.044  0.5650 -0.1196  0.8313
  129OSM   H13G13923   6.850   2.199   7.966  0.5092  0.4463  1.3015
  129OSM   C14F13924   6.896   2.122   8.163  0.2345 -0.6219  0.2106
  129OSM   H14F13925   6.870   2.218   8.211 -1.6496 -0.3403 -1.2647
  129OSM   H14G13926   7.005   2.102   8.147  0.6252  2.1495 -1.0795
  129OSM   C15F13927   6.857   2.013   8.258 -0.7481  0.0454 -0.6859
  129OSM   H15F13928   6.908   1.920   8.227 -1.1924 -1.4027  2.5766
  129OSM   H15G13929   6.749   1.988   8.269 -0.0265 -1.9457  3.5864
  129OSM   C16F13930   6.899   2.047   8.400 -0.3041  0.0375 -0.5642
  129OSM   H16F13931   6.844   2.139   8.427 -0.0980 -0.7878  3.1853
  129OSM   H16G13932   7.008   2.068   8.394  0.2045 -1.8580  0.8212
  129OSM   C17F13933   6.869   1.933   8.501 -0.0482  0.3195 -0.4725
  129OSM   H17F13934   6.760   1.913   8.505 -0.3931  2.1214  0.9118
  129OSM   H17G13935   6.908   1.957   8.603 -0.6470  0.8319 -0.3601
  129OSM   C18F13936   6.938   1.800   8.458  0.1462 -0.2199  0.9077
  129OSM   H18F13937   6.898   1.761   8.363 -0.4007  1.3170  0.4853
  129OSM   H18G13938   6.911   1.730   8.540 -0.6548  0.2590  1.0627
  129OSM   H18H13939   7.049   1.814   8.456 -0.0890  1.9007 -0.3491
  130OSM      N13940   2.049   5.949   5.908  0.5792 -0.3363 -0.3297
  130OSM    C1513941   1.976   5.974   5.782 -0.1887  1.1807 -0.1451
  130OSM   H15A13942   1.988   5.879   5.734  0.1298  0.2552  1.6805
  130OSM   H15B13943   2.033   6.047   5.727  2.2684 -0.5966 -0.0926
  130OSM   H15C13944   1.872   6.003   5.788 -0.9555 -1.3083 -0.3842
  130OSM    C1413945   2.172   5.867   5.891  0.3829  0.3449  0.1150
  130OSM   H14A13946   2.217   5.825   5.980  0.3767 -0.0344 -0.0559
  130OSM   H14B13947   2.250   5.923   5.842  0.0690 -0.4058 -1.3178
  130OSM   H14C13948   2.159   5.774   5.837  1.1717  1.0637 -1.3674
  130OSM    C1313949   2.084   6.086   5.955 -0.2736  0.4902  0.0614
  130OSM   H13A13950   2.133   6.069   6.050  0.1660  0.0696 -0.2341
  130OSM   H13B13951   2.004   6.158   5.966 -0.8258 -0.1586  0.3508
  130OSM   H13C13952   2.157   6.136   5.892 -0.3914 -0.0958 -0.5595
  130OSM    C1213953   1.951   5.889   6.010 -0.7070  0.5409  0.2593
  130OSM   H12A13954   1.920   5.794   5.969 -0.1590  0.4480  0.0530
  130OSM   H12B13955   1.867   5.953   6.028 -1.1046  0.9991 -2.7550
  130OSM    C1113956   2.016   5.853   6.148  0.0367  0.5788  0.2218
  130OSM   H11A13957   1.928   5.821   6.208  0.2195  1.1836  0.8202
  130OSM   H11B13958   2.051   5.940   6.208  0.3657 -0.1590  1.1181
  130OSM      P13959   2.200   5.729   6.274  0.0529  0.2081  0.4353
  130OSM    O1313960   2.211   5.584   6.302  0.5150  0.4248 -0.9719
  130OSM    O1413961   2.326   5.806   6.253  0.0128  0.5178 -0.6924
  130OSM    O1113962   2.118   5.789   6.389  0.4209  0.3779  0.0327
  130OSM    O1213963   2.113   5.755   6.138  0.3001 -0.0877 -0.4858
  130OSM    C1S13964   2.004   5.737   6.457  0.4168 -0.0098 -0.6649
  130OSM    H1S13965   1.964   5.643   6.413 -1.2223 -1.4052  3.3245
  130OSM    H1T13966   1.919   5.807   6.451  0.8754  0.6847  0.6055
  130OSM     NF13967   1.922   5.652   6.668  0.5351 -0.1124 -0.7155
  130OSM    HNF13968   1.869   5.716   6.724 -1.0640 -0.2730 -1.9744
  130OSM    C2S13969   2.040   5.710   6.606 -0.6724 -0.0716 -0.6909
  130OSM    H2S13970   2.119   5.632   6.605 -1.4866 -0.9240 -0.2239
  130OSM    C3S13971   2.092   5.836   6.674 -0.2496 -0.2956 -0.0884
  130OSM    H3S13972   2.008   5.908   6.665  0.0846  0.0050 -1.0055
  130OSM     O313973   2.202   5.897   6.614 -0.2382 -0.2361 -0.2349
  130OSM    HO313974   2.187   5.864   6.526 -4.4081  0.8514 -0.1195
  130OSM    C4S13975   2.109   5.810   6.821 -0.4490 -0.0024 -0.2979
  130OSM    H4S13976   2.018   5.825   6.881  0.6742 -1.7981  2.0341
  130OSM    C5S13977   2.218   5.770   6.880 -0.7813 -0.1218  0.3643
  130OSM    H5S13978   2.310   5.743   6.826 -1.3432 -0.9602 -0.1875
  130OSM    C6S13979   2.235   5.739   7.026 -0.0572 -0.2056 -0.0056
  130OSM    H6S13980   2.283   5.821   7.084 -0.9451 -0.1309  0.6503
  130OSM    H6T13981   2.302   5.651   7.022 -0.7816 -0.8218  1.1084
  130OSM    C7S13982   2.112   5.703   7.114 -0.2019 -0.2515 -0.2215
  130OSM    H7S13983   2.063   5.611   7.075 -1.0405  0.1003 -0.0116
  130OSM    H7T13984   2.033   5.780   7.109 -0.2522 -0.3472 -1.0430
  130OSM    C8S13985   2.154   5.673   7.256  0.5143 -0.0778  0.0253
  130OSM    H8S13986   2.195   5.768   7.296  1.5452 -0.6881  0.4547
  130OSM    H8T13987   2.233   5.595   7.252 -0.8214 -1.4406 -1.2756
  130OSM    C9S13988   2.039   5.622   7.348 -0.5204 -0.5499  0.6539
  130OSM    H9S13989   2.008   5.521   7.313  1.1631 -1.5784  1.9649
  130OSM    H9T13990   1.952   5.690   7.354 -1.1760 -1.2632 -0.4446
  130OSM   C10S13991   2.093   5.609   7.497 -0.2366  0.3080  0.5889
  130OSM   H10S13992   2.131   5.710   7.520  0.4454  0.0765  0.5127
  130OSM   H10T13993   2.174   5.533   7.502 -2.2433 -2.1551 -1.1827
  130OSM   C11S13994   1.982   5.561   7.590  0.1753  0.1561  0.0421
  130OSM   H11S13995   1.944   5.461   7.558 -0.3535 -0.3551  2.0869
  130OSM   H11T13996   1.900   5.635   7.583  1.4759  1.5061 -1.7159
  130OSM   C12S13997   2.032   5.533   7.736  0.5614  0.2690  0.5349
  130OSM   H12S13998   2.101   5.614   7.767  1.0252 -0.1550  0.6261
  130OSM   H12T13999   2.085   5.435   7.734  0.8852  0.4493 -0.1762
  130OSM   C13S14000   1.928   5.506   7.844 -0.0928  0.5618  1.3135
  130OSM   H13S14001   1.864   5.420   7.813  2.0547 -0.5017 -0.4571
  130OSM   H13T14002   1.863   5.596   7.848  0.2132  0.8358  0.3552
  130OSM   C14S14003   1.989   5.486   7.983 -0.4083 -0.1637  0.0127
  130OSM   H14S14004   2.033   5.580   8.023 -3.2500  0.6831  1.4147
  130OSM   H14T14005   2.072   5.413   7.991 -0.6242 -0.2822  1.4739
  130OSM   C15S14006   1.885   5.429   8.088 -0.3875  0.2676 -0.3192
  130OSM   H15S14007   1.856   5.325   8.061 -1.9539  0.0597  1.8849
  130OSM   H15T14008   1.799   5.499   8.088 -0.3819  0.2759 -0.5895
  130OSM   C16S14009   1.939   5.428   8.237  0.0878  0.1486 -0.7132
  130OSM   H16S14010   2.000   5.520   8.250  2.4678 -0.7957 -3.8683
  130OSM   H16T14011   2.016   5.349   8.246 -1.8360 -1.6781  0.3493
  130OSM   C17S14012   1.831   5.426   8.342  0.6280 -0.2669  0.2663
  130OSM   H17S14013   1.774   5.330   8.352  1.8099 -1.0279 -0.1155
  130OSM   H17T14014   1.749   5.500   8.334  1.7105  0.8361 -0.9113
  130OSM   C18S14015   1.887   5.456   8.478 -0.0820  0.0082 -1.0656
  130OSM   H18S14016   1.846   5.390   8.557  0.6930  0.6718 -0.0662
  130OSM   H18T14017   1.874   5.565   8.496 -2.0748 -0.1029 -1.6123
  130OSM   H18U14018   1.998   5.445   8.480  0.0003  0.8489 -0.0716
  130OSM    C1F14019   1.879   5.529   6.642 -0.7895 -0.9256  0.5475
  130OSM     OF14020   1.954   5.446   6.583  0.8409 -0.2002  0.1509
  130OSM    C2F14021   1.743   5.494   6.686  0.1955  0.3761 -0.7466
  130OSM    H2F14022   1.678   5.437   6.616 -1.1272  0.5016  0.3305
  130OSM    H2G14023   1.692   5.591   6.703  1.7980  1.0519  0.4399
  130OSM    C3F14024   1.738   5.400   6.817 -0.0296 -0.9809 -0.6194
  130OSM    H3F14025   1.776   5.300   6.789 -1.3922 -1.5738 -0.4302
  130OSM    H3G14026   1.634   5.384   6.853 -0.4550 -2.1886 -2.2451
  130OSM    C4F14027   1.825   5.452   6.929 -0.1218 -0.5449 -0.5034
  130OSM    H4F14028   1.778   5.524   6.999  0.5511 -0.0027 -0.6104
  130OSM    H4G14029   1.919   5.493   6.886 -2.4688  3.0555 -2.7836
  130OSM    C5F14030   1.870   5.336   7.029 -0.2488 -0.0193 -0.4342
  130OSM    H5F14031   1.943   5.371   7.105 -0.9722 -0.8488  0.6598
  130OSM    H5G14032   1.916   5.247   6.981 -1.7914  0.4591 -3.0149
  130OSM    C6F14033   1.750   5.283   7.112 -0.0733  0.7486 -0.4930
  130OSM    H6F14034   1.677   5.228   7.050  0.7519 -1.9773  0.7898
  130OSM    H6G14035   1.690   5.367   7.151  0.0814 -0.1236  1.7858
  130OSM    C7F14036   1.800   5.206   7.233  0.1064 -0.5271  0.2652
  130OSM    H7F14037   1.880   5.262   7.286  0.6252 -2.7271  1.9716
  130OSM    H7G14038   1.851   5.110   7.209 -0.8763 -1.5212  1.9392
  130OSM    C8F14039   1.679   5.167   7.330  0.7883  0.0969  0.2319
  130OSM    H8F14040   1.617   5.096   7.273  0.7958 -0.4129  0.8464
  130OSM    H8G14041   1.627   5.264   7.344  0.7674  0.3341 -1.3238
  130OSM    C9F14042   1.725   5.095   7.454 -0.1549  0.4873  0.2482
  130OSM    H9F14043   1.778   5.000   7.441 -1.9206 -0.6880  1.1614
  130OSM   C10F14044   1.702   5.125   7.585 -1.4061 -1.0008 -0.6666
  130OSM   H10F14045   1.740   5.055   7.661 -1.2444 -1.4546 -1.1595
  130OSM   C11F14046   1.621   5.242   7.643  0.2056  0.0927  0.2355
  130OSM   H11F14047   1.551   5.286   7.568 -1.4222  1.1351  2.2603
  130OSM   H11G14048   1.681   5.329   7.679 -2.1904  0.7846  2.9201
  130OSM   C12F14049   1.534   5.201   7.765  0.2775  0.3201  0.3644
  130OSM   H12F14050   1.482   5.104   7.747 -0.3767  0.5917  0.7433
  130OSM   H12G14051   1.458   5.282   7.765  0.9317  0.9439  0.3242
  130OSM   C13F14052   1.617   5.201   7.893  0.4534 -0.9020  0.5182
  130OSM   H13F14053   1.662   5.302   7.898 -3.0407  0.7795  1.6647
  130OSM   H13G14054   1.683   5.112   7.882 -0.1380 -1.2070 -0.8232
  130OSM   C14F14055   1.535   5.198   8.027  0.3343  0.3220 -0.1449
  130OSM   H14F14056   1.609   5.171   8.105  0.4641  1.4754  0.1478
  130OSM   H14G14057   1.452   5.125   8.023  0.4015  0.1204  1.5369
  130OSM   C15F14058   1.476   5.336   8.060  0.4007 -0.4677 -0.0939
  130OSM   H15F14059   1.425   5.389   7.976  0.3856 -0.9363 -0.3840
  130OSM   H15G14060   1.566   5.401   8.072  0.2917 -0.4918  0.9193
  130OSM   C16F14061   1.399   5.347   8.195  0.8263  0.6516 -0.9357
  130OSM   H16F14062   1.452   5.289   8.274  0.8305  2.7004  0.6548
  130OSM   H16G14063   1.301   5.298   8.179  1.0245 -0.5056  1.0205
  130OSM   C17F14064   1.370   5.497   8.233 -0.2387 -0.1410  0.2843
  130OSM   H17F14065   1.313   5.548   8.152  1.9245  0.8650 -0.6781
  130OSM   H17G14066   1.464   5.554   8.245 -1.0192  0.7193  2.8546
  130OSM   C18F14067   1.293   5.525   8.366 -0.6058  0.2010 -1.0122
  130OSM   H18F14068   1.210   5.453   8.381 -0.0354 -0.3167 -0.2591
  130OSM   H18G14069   1.254   5.628   8.364  0.9170  0.8018 -1.4829
  130OSM   H18H14070   1.359   5.515   8.455 -1.5068  3.3058  0.1098
  131OSM      N14071   0.864   2.169   5.922 -0.4865 -0.4086 -0.7354
  131OSM    C1514072   0.781   2.043   5.925  0.7729 -0.2323 -0.4926
  131OSM   H15A14073   0.681   2.054   5.884  0.9721 -2.9711 -1.9768
  131OSM   H15B14074   0.776   2.003   6.025  1.8621 -2.1390 -1.1418
  131OSM   H15C14075   0.820   1.957   5.873  1.4824 -1.4312  1.8758
  131OSM    C1414076   0.997   2.125   5.967 -0.3615 -0.2458  0.4238
  131OSM   H14A14077   1.040   2.044   5.910 -0.0658 -0.8038  1.4258
  131OSM   H14B14078   0.984   2.082   6.065  3.2589 -1.6890  0.4134
  131OSM   H14C14079   1.074   2.200   5.960 -0.5821 -0.1408 -1.5529
  131OSM    C1314080   0.857   2.235   5.792 -0.2706 -0.2490  0.1339
  131OSM   H13A14081   0.899   2.172   5.715  0.4152  0.5059 -0.1286
  131OSM   H13B14082   0.906   2.331   5.783 -0.0310 -0.0404  2.9276
  131OSM   H13C14083   0.754   2.247   5.760 -0.5844 -0.2785  1.0983
  131OSM    C1214084   0.815   2.272   6.026  0.6118 -1.2264 -0.4093
  131OSM   H12A14085   0.717   2.305   5.996  0.2141 -2.9425 -1.1283
  131OSM   H12B14086   0.877   2.360   6.034 -3.3863  1.7974  0.1059
  131OSM    C1114087   0.774   2.235   6.171 -0.0642  0.6400  0.1898
  131OSM   H11A14088   0.720   2.327   6.205 -0.5103  0.3493  0.2780
  131OSM   H11B14089   0.857   2.222   6.244 -0.0455 -0.2478  0.0138
  131OSM      P14090   0.532   2.124   6.212 -0.0385  0.0890  0.4023
  131OSM    O1314091   0.494   2.270   6.216  0.0824  0.0190  0.1148
  131OSM    O1414092   0.464   2.038   6.115 -0.0605  0.4325  0.2301
  131OSM    O1114093   0.530   2.073   6.357  0.2848  0.0527  0.0238
  131OSM    O1214094   0.680   2.122   6.174 -0.4337 -0.0578 -0.1114
  131OSM    C1S14095   0.635   1.994   6.404 -0.3237  0.3313 -0.0184
  131OSM    H1S14096   0.730   2.022   6.354 -0.1781  0.5865  0.3942
  131OSM    H1T14097   0.612   1.889   6.375  0.7786  0.4670 -1.5404
  131OSM     NF14098   0.791   1.935   6.605  0.5410  0.2543  0.0523
  131OSM    HNF14099   0.772   1.841   6.632  0.1111  0.2595 -0.2210
  131OSM    C2S14100   0.672   2.007   6.556  1.2438  0.9908  0.9224
  131OSM    H2S14101   0.703   2.112   6.575 -0.7767  1.4709  1.9009
  131OSM    C3S14102   0.547   1.981   6.644 -0.4866 -0.1581 -0.6908
  131OSM    H3S14103   0.526   1.873   6.629  1.4814 -0.4659 -1.5208
  131OSM     O314104   0.433   2.047   6.603 -0.3436 -0.1434  0.2842
  131OSM    HO314105   0.457   2.072   6.513 -0.3118 -2.0939 -0.2962
  131OSM    C4S14106   0.579   2.008   6.792 -0.5331  0.4059  0.5596
  131OSM    H4S14107   0.657   1.939   6.827 -1.1444  0.0083  1.1757
  131OSM    C5S14108   0.535   2.099   6.886  0.1619  0.4352 -0.3408
  131OSM    H5S14109   0.441   2.146   6.853 -0.5146 -1.2122 -0.8758
  131OSM    C6S14110   0.584   2.101   7.034  0.8091  0.1013  0.7510
  131OSM    H6S14111   0.495   2.096   7.100  0.9891 -3.3225  0.8939
  131OSM    H6T14112   0.622   2.204   7.052 -0.0509  0.8177 -1.2677
  131OSM    C7S14113   0.684   2.000   7.098 -0.3057 -0.0251 -0.3261
  131OSM    H7S14114   0.782   1.998   7.044  0.1566 -0.4427  0.5141
  131OSM    H7T14115   0.636   1.900   7.095 -0.1954 -0.0880  0.0266
  131OSM    C8S14116   0.719   2.031   7.248 -0.0645 -0.3353  0.3015
  131OSM    H8S14117   0.627   2.041   7.309 -0.9256 -0.7351 -0.9238
  131OSM    H8T14118   0.767   2.129   7.269  0.3354 -0.7941  1.6563
  131OSM    C9S14119   0.796   1.921   7.309 -0.1206  0.0273 -0.5122
  131OSM    H9S14120   0.881   1.891   7.244 -1.0555 -0.4629 -1.5399
  131OSM    H9T14121   0.724   1.836   7.311  0.3574 -0.5565 -3.4881
  131OSM   C10S14122   0.833   1.951   7.458  0.3961 -0.5189 -0.0905
  131OSM   H10S14123   0.882   2.050   7.463  1.2087 -0.9522  0.8095
  131OSM   H10T14124   0.909   1.876   7.489  2.1101  1.1048 -0.1720
  131OSM   C11S14125   0.709   1.959   7.549 -0.2734  0.4645 -0.3385
  131OSM   H11S14126   0.660   1.860   7.541 -0.4029  0.5649 -0.8422
  131OSM   H11T14127   0.643   2.044   7.523 -0.6240  0.0966 -0.6540
  131OSM   C12S14128   0.748   1.982   7.695 -0.3868 -0.1292 -0.2937
  131OSM   H12S14129   0.808   2.076   7.696  1.3186 -1.1365  2.1381
  131OSM   H12T14130   0.827   1.910   7.725  0.7943  0.6252 -1.4683
  131OSM   C13S14131   0.637   1.963   7.799  0.3452 -0.0678  0.3428
  131OSM   H13S14132   0.607   1.857   7.789  0.8721 -0.1941  0.0477
  131OSM   H13T14133   0.552   2.028   7.769  0.6462  0.4176  0.5285
  131OSM   C14S14134   0.686   1.993   7.938 -0.3880 -0.5156 -0.3320
  131OSM   H14S14135   0.742   2.089   7.934 -0.2977 -0.5906 -3.4989
  131OSM   H14T14136   0.767   1.924   7.971  1.3063  1.6755  0.3266
  131OSM   C15S14137   0.578   2.011   8.039  0.4873 -0.2071 -0.3821
  131OSM   H15S14138   0.505   1.927   8.037 -1.2748  1.2625 -0.6437
  131OSM   H15T14139   0.523   2.105   8.015  0.9267 -0.5189 -2.8808
  131OSM   C16S14140   0.627   2.029   8.187  0.5839  0.1013 -0.9376
  131OSM   H16S14141   0.689   2.120   8.187  0.1568  0.4100  0.1505
  131OSM   H16T14142   0.684   1.937   8.215 -0.5186 -0.4757 -0.5046
  131OSM   C17S14143   0.509   2.047   8.283 -0.1709 -0.4851  0.3781
  131OSM   H17S14144   0.434   1.971   8.251 -0.0402 -0.1306 -0.8354
  131OSM   H17T14145   0.465   2.147   8.263 -1.9484 -1.2876  0.1149
  131OSM   C18S14146   0.541   2.016   8.426  0.1094  0.0513 -0.7276
  131OSM   H18S14147   0.600   2.103   8.464  1.4420 -1.6794  1.3652
  131OSM   H18T14148   0.598   1.921   8.432  0.0847  0.1273  1.4888
  131OSM   H18U14149   0.451   1.998   8.487  0.6306  1.7331  0.6218
  131OSM    C1F14150   0.914   1.961   6.560  0.6546 -0.4948 -0.1113
  131OSM     OF14151   0.935   2.065   6.497  0.0780 -0.1086  0.7265
  131OSM    C2F14152   1.019   1.859   6.564 -0.0762  0.0795  0.1530
  131OSM    H2F14153   1.077   1.852   6.470 -0.3501 -0.6725  0.0303
  131OSM    H2G14154   0.961   1.764   6.557  0.7931 -0.4134 -0.5695
  131OSM    C3F14155   1.114   1.879   6.681 -0.3546  0.3105 -0.2656
  131OSM    H3F14156   1.164   1.977   6.661  1.8737 -1.1596 -2.4310
  131OSM    H3G14157   1.199   1.808   6.680  0.2858  0.9313  2.4836
  131OSM    C4F14158   1.048   1.877   6.825 -0.0056  0.2310  0.6828
  131OSM    H4F14159   1.006   1.776   6.845 -2.1810  1.3306  2.0640
  131OSM    H4G14160   0.966   1.952   6.833 -1.0286 -0.6931 -0.6513
  131OSM    C5F14161   1.156   1.909   6.933  0.2847  0.4016  0.6002
  131OSM    H5F14162   1.208   2.006   6.918  2.4854 -0.9853 -1.5247
  131OSM    H5G14163   1.239   1.845   6.896  1.1385  2.6888 -1.7633
  131OSM    C6F14164   1.126   1.881   7.089 -0.4282  0.7671 -0.1392
  131OSM    H6F14165   1.095   1.776   7.108 -0.5388  1.0303  1.2056
  131OSM    H6G14166   1.052   1.957   7.122 -0.3289  0.4838  0.7477
  131OSM    C7F14167   1.254   1.897   7.168  0.0243 -0.3091  0.9065
  131OSM    H7F14168   1.298   1.997   7.149  0.1391 -0.3325  1.0414
  131OSM    H7G14169   1.328   1.816   7.150  0.8324 -0.0673  2.8352
  131OSM    C8F14170   1.233   1.914   7.315  0.3024 -0.5140  0.0439
  131OSM    H8F14171   1.171   2.005   7.335 -1.5337 -1.8903  0.8769
  131OSM    H8G14172   1.335   1.932   7.356  1.1562  1.0428 -2.5041
  131OSM    C9F14173   1.168   1.786   7.374 -0.1461  0.5620  0.5939
  131OSM    H9F14174   1.109   1.720   7.310  0.8960 -0.1824  0.3623
  131OSM   C10F14175   1.183   1.738   7.503  0.5356 -0.6782 -0.2519
  131OSM   H10F14176   1.128   1.645   7.522 -0.4681  0.1085  0.8804
  131OSM   C11F14177   1.264   1.797   7.616 -0.1848  0.0905  0.0684
  131OSM   H11F14178   1.302   1.901   7.611  0.1124  0.2697  3.4824
  131OSM   H11G14179   1.352   1.732   7.639 -0.7184 -0.1213  1.6368
  131OSM   C12F14180   1.177   1.799   7.749 -0.1037 -0.6162  0.0063
  131OSM   H12F14181   1.125   1.701   7.760  2.2653 -1.7690  1.6974
  131OSM   H12G14182   1.099   1.877   7.766  0.6282 -0.6055  4.5838
  131OSM   C13F14183   1.275   1.798   7.868  0.3775  0.1485  0.0202
  131OSM   H13F14184   1.359   1.871   7.864 -0.3428  0.9888 -0.4187
  131OSM   H13G14185   1.320   1.698   7.886 -0.8145 -0.4420 -0.1830
  131OSM   C14F14186   1.214   1.845   8.002  0.1951 -0.7410  0.7453
  131OSM   H14F14187   1.174   1.946   7.981  0.6787 -0.8439 -0.8317
  131OSM   H14G14188   1.293   1.861   8.078 -0.8764  1.3900  1.4760
  131OSM   C15F14189   1.109   1.752   8.054  0.0200  0.1754  0.0373
  131OSM   H15F14190   1.138   1.646   8.069  0.6916  0.3926  0.3413
  131OSM   H15G14191   1.034   1.750   7.971 -0.0421 -2.1879  0.0877
  131OSM   C16F14192   1.041   1.809   8.182 -0.2448  0.4063  0.4587
  131OSM   H16F14193   0.998   1.911   8.172 -0.3868  0.3096  0.0436
  131OSM   H16G14194   1.118   1.812   8.261 -0.5740 -0.3055  0.8211
  131OSM   C17F14195   0.939   1.717   8.244  0.4715 -0.3259 -0.1503
  131OSM   H17F14196   0.863   1.702   8.165  0.6149 -3.0352  0.1460
  131OSM   H17G14197   0.898   1.768   8.334  0.4826 -1.6855  0.6461
  131OSM   C18F14198   0.990   1.584   8.297  0.5201 -0.7808 -0.2798
  131OSM   H18F14199   1.093   1.609   8.329 -0.3459 -0.2136  2.3201
  131OSM   H18G14200   0.997   1.509   8.215  1.8783 -1.0579  0.0779
  131OSM   H18H14201   0.930   1.542   8.380  0.4487 -1.0164 -0.4476
  132OSM      N14202   1.985   2.866   6.180  0.7449 -0.4315 -0.1370
  132OSM    C1514203   2.085   2.868   6.067  0.1187  0.2441 -0.1615
  132OSM   H15A14204   2.097   2.951   5.999  3.5720 -0.0764 -0.1282
  132OSM   H15B14205   2.061   2.790   5.996 -0.3066  0.0662  0.1746
  132OSM   H15C14206   2.187   2.854   6.099 -0.0919 -2.0590 -0.3515
  132OSM    C1414207   2.000   2.989   6.266 -0.0039  0.3240  0.5848
  132OSM   H14A14208   1.930   2.992   6.348  0.3277 -1.6043  0.9867
  132OSM   H14B14209   1.979   3.078   6.209  0.4980  1.8023  2.5837
  132OSM   H14C14210   2.104   2.997   6.294  0.4745 -0.2468 -0.9234
  132OSM    C1314211   1.855   2.861   6.106  0.6295 -0.0228  0.2210
  132OSM   H13A14212   1.834   2.927   6.024 -0.1714 -0.5854 -0.0369
  132OSM   H13B14213   1.767   2.859   6.169  0.6239 -1.4044  0.2123
  132OSM   H13C14214   1.847   2.766   6.054 -1.4535 -1.3361  2.7065
  132OSM    C1214215   2.002   2.740   6.269 -0.7598 -0.0776  0.2233
  132OSM   H12A14216   1.926   2.752   6.345 -0.0054  1.6286  0.7788
  132OSM   H12B14217   2.094   2.742   6.326 -0.9704  0.7928  0.5494
  132OSM    C1114218   2.002   2.597   6.209 -0.0149 -0.1045  0.7719
  132OSM   H11A14219   2.029   2.525   6.290  1.5369  0.4753  0.8149
  132OSM   H11B14220   2.078   2.596   6.128 -2.2338 -0.6517 -1.4346
  132OSM      P14221   1.747   2.547   6.241  0.1605 -0.3010  0.4367
  132OSM    O1314222   1.629   2.625   6.189 -0.3802 -0.2366  0.5912
  132OSM    O1414223   1.739   2.400   6.244  0.1233  0.7363 -0.9472
  132OSM    O1114224   1.792   2.597   6.386  0.3666 -0.0996 -0.2679
  132OSM    O1214225   1.875   2.585   6.149  0.1124 -0.1140 -0.0747
  132OSM    C1S14226   1.707   2.679   6.473  0.1955  0.1077  0.6482
  132OSM    H1S14227   1.601   2.671   6.442 -0.2778  1.1857  1.8570
  132OSM    H1T14228   1.740   2.785   6.461  1.5319 -0.5087 -1.8721
  132OSM     NF14229   1.614   2.730   6.694 -0.4675 -0.1114 -0.1266
  132OSM    HNF14230   1.648   2.789   6.767 -0.2636  2.2666 -2.0568
  132OSM    C2S14231   1.704   2.641   6.623 -0.1393  0.2078  0.7271
  132OSM    H2S14232   1.671   2.535   6.629 -1.7610  0.4143 -2.3149
  132OSM    C3S14233   1.849   2.619   6.684  0.1311  0.3120  0.0667
  132OSM    H3S14234   1.896   2.720   6.683  0.6449  0.0965  0.9308
  132OSM     O314235   1.931   2.532   6.603  0.6843  0.5046  0.3847
  132OSM    HO314236   1.878   2.521   6.523  0.8619 -0.8021  0.4224
  132OSM    C4S14237   1.829   2.572   6.826  0.0515 -0.4906 -0.1944
  132OSM    H4S14238   1.839   2.662   6.888  1.4078 -1.6878  1.4266
  132OSM    C5S14239   1.809   2.449   6.885  0.3368 -0.4883  0.2461
  132OSM    H5S14240   1.812   2.360   6.820  2.9847  1.3453 -2.3982
  132OSM    C6S14241   1.802   2.421   7.035 -0.4551  0.0407  0.6847
  132OSM    H6S14242   1.861   2.328   7.045  0.9149  0.4575 -2.3541
  132OSM    H6T14243   1.696   2.394   7.054 -1.0938  0.9988 -1.2658
  132OSM    C7S14244   1.838   2.524   7.144  0.4518  0.1802 -0.8556
  132OSM    H7S14245   1.762   2.604   7.129 -1.2504 -1.2073  0.0087
  132OSM    H7T14246   1.930   2.576   7.110  0.7571  0.5662  0.5093
  132OSM    C8S14247   1.849   2.459   7.281  0.3513  0.8257 -0.0666
  132OSM    H8S14248   1.936   2.391   7.282 -0.5374 -0.3959 -1.5072
  132OSM    H8T14249   1.754   2.402   7.290  0.5241  0.5441 -0.0394
  132OSM    C9S14250   1.845   2.567   7.390  0.0436  0.4469 -0.9211
  132OSM    H9S14251   1.746   2.616   7.395  0.3328  0.9924 -0.3345
  132OSM    H9T14252   1.915   2.650   7.366  1.0420 -0.2451 -0.4903
  132OSM   C10S14253   1.872   2.494   7.524  0.7604 -0.1309  0.6154
  132OSM   H10S14254   1.981   2.472   7.515  1.5235  2.1872  2.8803
  132OSM   H10T14255   1.818   2.397   7.532  0.3313 -0.0213 -0.6806
  132OSM   C11S14256   1.835   2.583   7.646  0.3151 -0.1699  0.3063
  132OSM   H11S14257   1.726   2.603   7.629  0.3212 -0.2994  0.1123
  132OSM   H11T14258   1.903   2.671   7.639  0.6151 -0.4509 -0.4399
  132OSM   C12S14259   1.853   2.526   7.783  0.3444 -0.0070 -0.3756
  132OSM   H12S14260   1.950   2.474   7.773  0.9693  1.0778 -0.0883
  132OSM   H12T14261   1.775   2.450   7.806  0.8407 -1.0174 -1.9003
  132OSM   C13S14262   1.856   2.635   7.888 -0.5727  0.6837  0.2390
  132OSM   H13S14263   1.764   2.697   7.882 -1.7425 -1.1364 -2.1571
  132OSM   H13T14264   1.949   2.695   7.884 -0.4216  0.4823  0.6785
  132OSM   C14S14265   1.850   2.567   8.024 -0.1268 -0.3952 -0.1775
  132OSM   H14S14266   1.920   2.481   8.026  1.1861  0.5099  3.8287
  132OSM   H14T14267   1.751   2.522   8.044  0.9863 -4.3224 -2.4210
  132OSM   C15S14268   1.867   2.660   8.142  0.0018  0.2414  0.0515
  132OSM   H15S14269   1.797   2.747   8.137  2.7325  2.5042 -2.1553
  132OSM   H15T14270   1.969   2.702   8.138  1.1721 -2.3909 -0.0215
  132OSM   C16S14271   1.854   2.592   8.284 -0.3285  0.3932 -0.7242
  132OSM   H16S14272   1.904   2.493   8.278 -0.0728  0.5103 -0.5171
  132OSM   H16T14273   1.745   2.585   8.307  0.1447 -1.7284  1.2719
  132OSM   C17S14274   1.907   2.687   8.389 -0.2188 -0.2665 -0.5312
  132OSM   H17S14275   1.857   2.786   8.387 -0.5970 -0.4005  0.9722
  132OSM   H17T14276   2.008   2.712   8.352 -0.7712  0.8700 -1.2944
  132OSM   C18S14277   1.897   2.633   8.535 -0.1762  0.3180  0.7885
  132OSM   H18S14278   1.963   2.543   8.538 -0.0558  0.3960  0.4111
  132OSM   H18T14279   1.790   2.611   8.554 -0.3899  0.2874 -0.4060
  132OSM   H18U14280   1.933   2.694   8.621 -0.3083 -0.0297  1.0959
  132OSM    C1F14281   1.486   2.728   6.670  0.2480 -0.0591 -0.0426
  132OSM     OF14282   1.425   2.642   6.606  0.9404  0.1024 -0.1082
  132OSM    C2F14283   1.404   2.829   6.741  0.0205 -0.0010 -0.2778
  132OSM    H2F14284   1.329   2.888   6.683  0.7073 -0.7964 -2.0537
  132OSM    H2G14285   1.459   2.913   6.788 -0.8126  2.0967 -2.8090
  132OSM    C3F14286   1.342   2.758   6.867  0.6534 -0.4796 -0.1574
  132OSM    H3F14287   1.417   2.697   6.922  0.7596 -0.1489  0.0682
  132OSM    H3G14288   1.264   2.689   6.829  1.8377 -0.9488 -1.8239
  132OSM    C4F14289   1.277   2.847   6.970 -0.4504 -0.4731  0.1479
  132OSM    H4F14290   1.204   2.911   6.915 -2.3511 -2.3494  0.3550
  132OSM    H4G14291   1.353   2.915   7.014  0.2020 -2.7495  2.8314
  132OSM    C5F14292   1.211   2.770   7.085  0.5556 -0.2124  0.1621
  132OSM    H5F14293   1.289   2.717   7.143  0.4082  0.2438  0.7912
  132OSM    H5G14294   1.147   2.687   7.048 -2.8538  1.6677  1.3055
  132OSM    C6F14295   1.136   2.881   7.173  0.6057  0.4935  0.2568
  132OSM    H6F14296   1.075   2.954   7.117  0.0955  0.5220  0.8480
  132OSM    H6G14297   1.206   2.940   7.236 -1.8737  1.3040  2.4039
  132OSM    C7F14298   1.039   2.800   7.266  0.2814  0.2400  0.5068
  132OSM    H7F14299   1.105   2.743   7.335 -0.2577  0.0789  0.8935
  132OSM    H7G14300   0.967   2.738   7.210  0.7172  1.3460 -1.3695
  132OSM    C8F14301   0.949   2.886   7.355 -0.0336  0.0256 -0.3406
  132OSM    H8F14302   0.880   2.942   7.288 -0.5767 -0.0124  0.1720
  132OSM    H8G14303   1.012   2.962   7.406  1.6754 -1.1143 -0.6768
  132OSM    C9F14304   0.892   2.787   7.456  0.1454  0.2514  0.3295
  132OSM    H9F14305   0.826   2.714   7.408  1.1479 -0.3039 -0.2435
  132OSM   C10F14306   0.913   2.779   7.592  0.0336  0.4821 -0.4551
  132OSM   H10F14307   0.851   2.704   7.644  2.2081 -0.9557  0.1862
  132OSM   C11F14308   1.005   2.857   7.681  0.1442 -0.2193  0.1122
  132OSM   H11F14309   1.067   2.935   7.630  1.7254 -0.7088  1.2086
  132OSM   H11G14310   1.087   2.791   7.718 -0.1854 -0.1306  1.0268
  132OSM   C12F14311   0.938   2.906   7.811 -0.8183  0.0429 -0.2396
  132OSM   H12F14312   0.832   2.928   7.786 -0.4473  0.5780 -1.4469
  132OSM   H12G14313   0.983   3.006   7.831 -0.6031 -0.4571  1.9415
  132OSM   C13F14314   0.945   2.809   7.929  0.0163 -0.4511 -0.0689
  132OSM   H13F14315   1.051   2.793   7.959 -0.1669 -3.4286 -0.7232
  132OSM   H13G14316   0.904   2.718   7.881 -0.6208  0.3107 -0.9829
  132OSM   C14F14317   0.862   2.856   8.051 -0.7980 -0.3992 -0.6208
  132OSM   H14F14318   0.758   2.851   8.010 -1.6643  0.6329  1.2885
  132OSM   H14G14319   0.892   2.961   8.074 -0.5781 -0.2777 -1.4165
  132OSM   C15F14320   0.893   2.772   8.177  0.5642  0.1265 -0.7401
  132OSM   H15F14321   0.848   2.819   8.267 -0.7448  0.5459 -1.5952
  132OSM   H15G14322   1.002   2.792   8.192  0.3602  0.3882  0.4914
  132OSM   C16F14323   0.868   2.616   8.173  0.5570  0.7765  0.1478
  132OSM   H16F14324   0.907   2.572   8.079 -1.7420 -0.7195 -0.1569
  132OSM   H16G14325   0.758   2.604   8.173  0.4584  1.3907 -1.4643
  132OSM   C17F14326   0.927   2.535   8.290 -0.8827  0.8045 -0.3472
  132OSM   H17F14327   1.035   2.556   8.282  0.1628 -3.5247  0.1392
  132OSM   H17G14328   0.910   2.426   8.281 -0.2375  0.6746 -0.0136
  132OSM   C18F14329   0.867   2.581   8.419 -0.2903 -0.4202 -0.0859
  132OSM   H18F14330   0.887   2.688   8.443 -2.0319 -0.7957  3.7547
  132OSM   H18G14331   0.900   2.531   8.512 -2.8940 -0.5478  0.8453
  132OSM   H18H14332   0.757   2.589   8.407 -0.0597 -0.9347 -4.6191
  133OSM      N14333   3.334   2.416   6.181 -0.1269 -0.0310  0.4008
  133OSM    C1514334   3.382   2.279   6.131 -0.5305  0.3686 -0.1089
  133OSM   H15A14335   3.370   2.280   6.024  0.7023  4.2394 -0.3487
  133OSM   H15B14336   3.313   2.208   6.175 -1.1991  1.1211  0.0873
  133OSM   H15C14337   3.486   2.278   6.159 -1.0469  0.1373  1.9457
  133OSM    C1414338   3.421   2.520   6.117  0.5070 -0.5254 -0.3245
  133OSM   H14A14339   3.393   2.617   6.158 -0.1790 -1.5634  1.8382
  133OSM   H14B14340   3.410   2.518   6.010 -0.4589  0.3171 -0.2601
  133OSM   H14C14341   3.525   2.509   6.141  0.3805 -1.1618 -0.0537
  133OSM    C1314342   3.192   2.434   6.133 -0.1844  0.1779  0.2798
  133OSM   H13A14343   3.141   2.524   6.164  1.5669  0.6748  1.8794
  133OSM   H13B14344   3.131   2.351   6.166 -1.3916  0.9580  0.0947
  133OSM   H13C14345   3.192   2.421   6.026 -0.7741  2.0911  0.0120
  133OSM    C1214346   3.334   2.429   6.331 -0.5247 -0.4961  0.5905
  133OSM   H12A14347   3.432   2.417   6.376 -0.4701  3.4134  1.9189
  133OSM   H12B14348   3.294   2.343   6.384  2.0546 -1.5663  0.9451
  133OSM    C1114349   3.275   2.559   6.389 -0.5616  0.1655  0.4506
  133OSM   H11A14350   3.267   2.555   6.500 -0.7720  3.7299  0.6847
  133OSM   H11B14351   3.176   2.577   6.342 -0.8345  0.9562  1.3054
  133OSM      P14352   3.315   2.809   6.347  0.0700 -0.4222 -0.1578
  133OSM    O1314353   3.433   2.898   6.343 -0.5551 -0.1550  0.1714
  133OSM    O1414354   3.230   2.825   6.227 -0.0695 -0.5461  0.0571
  133OSM    O1114355   3.235   2.847   6.480 -0.7766 -0.5901  0.4182
  133OSM    O1214356   3.363   2.664   6.362 -0.0811  0.0379  0.3211
  133OSM    C1S14357   3.309   2.846   6.602  0.0891 -0.1998 -0.0628
  133OSM    H1S14358   3.366   2.941   6.606 -2.9593  1.7467  0.4340
  133OSM    H1T14359   3.371   2.754   6.613 -0.6788 -0.5835  1.2664
  133OSM     NF14360   3.267   2.858   6.852 -0.6217 -0.2558  0.1465
  133OSM    HNF14361   3.286   2.773   6.899  3.3549 -0.1842 -0.9758
  133OSM    C2S14362   3.204   2.847   6.720 -0.4277 -0.1546  0.6331
  133OSM    H2S14363   3.145   2.939   6.698 -0.4821 -0.4382 -0.4842
  133OSM    C3S14364   3.099   2.734   6.703 -0.3516  0.8923  0.0147
  133OSM    H3S14365   3.158   2.642   6.727 -0.5471  0.5404 -0.8197
  133OSM     O314366   3.043   2.710   6.579  0.3578  0.4045 -0.0420
  133OSM    HO314367   3.092   2.776   6.529  1.2858 -0.4111 -0.2504
  133OSM    C4S14368   2.990   2.750   6.803 -0.7166 -0.1221  0.8321
  133OSM    H4S14369   2.927   2.838   6.780 -1.1361 -0.7096 -0.3200
  133OSM    C5S14370   2.960   2.659   6.902  0.3657 -0.5222 -0.2133
  133OSM    H5S14371   3.021   2.568   6.913  1.2681  0.0146 -0.5929
  133OSM    C6S14372   2.860   2.677   7.006  0.7222  0.0530 -0.0188
  133OSM    H6S14373   2.909   2.650   7.102  0.6853 -2.3461 -0.6177
  133OSM    H6T14374   2.790   2.592   6.996  0.0170  0.7831 -1.6389
  133OSM    C7S14375   2.781   2.806   7.025 -0.0865  0.2270 -0.8333
  133OSM    H7S14376   2.722   2.820   6.932  0.4510  2.0170 -0.9437
  133OSM    H7T14377   2.852   2.892   7.032  1.1611 -0.8896  4.0667
  133OSM    C8S14378   2.685   2.802   7.143  0.5868  0.2349  0.6030
  133OSM    H8S14379   2.597   2.739   7.123  0.3598  1.0304 -1.0899
  133OSM    H8T14380   2.649   2.907   7.145 -0.9058 -0.2137 -0.8236
  133OSM    C9S14381   2.753   2.769   7.279  0.5207  0.0598  0.0015
  133OSM    H9S14382   2.842   2.831   7.303  0.6224  0.2446 -0.8092
  133OSM    H9T14383   2.788   2.664   7.268 -0.5671 -0.3324  0.1690
  133OSM   C10S14384   2.656   2.772   7.400 -0.0080 -0.0519 -0.5172
  133OSM   H10S14385   2.569   2.704   7.385  0.5439 -0.7871 -0.4399
  133OSM   H10T14386   2.616   2.872   7.425 -1.1941 -0.6454  0.0705
  133OSM   C11S14387   2.730   2.723   7.525  0.1541  0.3815  0.3083
  133OSM   H11S14388   2.782   2.810   7.572 -1.1744  1.2780  0.1877
  133OSM   H11T14389   2.802   2.641   7.505 -0.8514 -0.7041  1.0476
  133OSM   C12S14390   2.632   2.673   7.629 -0.4567 -0.1470 -0.0164
  133OSM   H12S14391   2.619   2.566   7.602  1.3012 -0.0964 -1.2496
  133OSM   H12T14392   2.536   2.728   7.632  0.4472  1.4864 -0.0134
  133OSM   C13S14393   2.690   2.679   7.779 -0.7930  0.1667  0.3060
  133OSM   H13S14394   2.790   2.639   7.751 -0.8037  0.3716 -0.0345
  133OSM   H13T14395   2.638   2.618   7.856 -0.3100  1.2145  1.4838
  133OSM   C14S14396   2.692   2.816   7.828  0.6798  0.8715 -0.5395
  133OSM   H14S14397   2.595   2.870   7.825  0.0426 -0.0048  1.8142
  133OSM   H14T14398   2.752   2.884   7.763 -0.9588  1.8061 -1.1127
  133OSM   C15S14399   2.736   2.828   7.978  0.8086  0.4649  0.6180
  133OSM   H15S14400   2.794   2.919   8.001  1.8982 -0.1939  0.5357
  133OSM   H15T14401   2.804   2.746   8.010 -0.3073  0.1213  2.2889
  133OSM   C16S14402   2.615   2.814   8.065  0.4016  0.5736 -1.1689
  133OSM   H16S14403   2.580   2.711   8.040  0.1872  0.1993  0.4958
  133OSM   H16T14404   2.531   2.884   8.050  0.0551  0.0337 -1.8051
  133OSM   C17S14405   2.658   2.796   8.218  0.4863 -0.4171 -0.4535
  133OSM   H17S14406   2.762   2.757   8.226  0.1119 -1.2310  0.9228
  133OSM   H17T14407   2.590   2.728   8.273  1.7106  0.1715  1.9247
  133OSM   C18S14408   2.641   2.926   8.294 -0.3207 -0.2530  0.2298
  133OSM   H18S14409   2.703   3.003   8.245  1.3507 -1.5391  0.2573
  133OSM   H18T14410   2.666   2.915   8.402 -1.8258 -2.3408  0.4217
  133OSM   H18U14411   2.541   2.974   8.290 -0.6085 -0.6617  1.8188
  133OSM    C1F14412   3.327   2.973   6.883  0.0578  0.2583 -0.0017
  133OSM     OF14413   3.297   3.085   6.833 -0.4002 -0.1855  0.5204
  133OSM    C2F14414   3.432   2.953   6.994  0.5068 -0.1788 -0.1317
  133OSM    H2F14415   3.516   3.011   6.952  0.6111 -1.7417 -2.2342
  133OSM    H2G14416   3.463   2.848   7.013 -0.0626 -0.2398  0.5012
  133OSM    C3F14417   3.378   3.029   7.113 -0.0183  1.1818  0.5762
  133OSM    H3F14418   3.286   2.975   7.143 -0.1960  0.5032 -1.0392
  133OSM    H3G14419   3.349   3.134   7.093 -2.1023  0.8223  1.4901
  133OSM    C4F14420   3.473   3.038   7.236  0.6659 -0.2259  1.4017
  133OSM    H4F14421   3.482   3.142   7.275 -1.4000  0.1665  0.9492
  133OSM    H4G14422   3.574   3.002   7.204 -0.6432 -1.8479 -1.2762
  133OSM    C5F14423   3.422   2.962   7.356  0.7253 -0.0658 -0.9258
  133OSM    H5F14424   3.404   2.859   7.318 -1.1582  0.7866 -2.5603
  133OSM    H5G14425   3.323   3.000   7.391  0.9329 -0.3657  0.0093
  133OSM    C6F14426   3.524   2.964   7.470 -0.4892 -0.0902  0.7988
  133OSM    H6F14427   3.629   2.971   7.435 -0.4111  0.0314  1.0535
  133OSM    H6G14428   3.524   2.866   7.522  0.4013  0.6000  2.1481
  133OSM    C7F14429   3.496   3.066   7.576  0.1525 -0.6104 -0.3481
  133OSM    H7F14430   3.403   3.053   7.635  1.8389 -0.6371  2.4880
  133OSM    H7G14431   3.486   3.170   7.537 -0.7232 -1.3617 -2.2166
  133OSM    C8F14432   3.608   3.092   7.675  1.0632 -0.1890 -0.2682
  133OSM    H8F14433   3.583   3.188   7.725  0.7228 -0.1615 -0.4886
  133OSM    H8G14434   3.694   3.129   7.614  0.1053  1.2839 -0.7786
  133OSM    C9F14435   3.627   2.982   7.773  0.1698  0.1305  0.1902
  133OSM    H9F14436   3.717   2.921   7.754  0.1480  0.5250 -1.2890
  133OSM   C10F14437   3.554   2.954   7.886 -0.8507  0.2680  0.4117
  133OSM   H10F14438   3.580   2.865   7.946 -2.7647  0.1690  1.1555
  133OSM   C11F14439   3.431   3.018   7.938 -0.1930  0.2513  0.4327
  133OSM   H11F14440   3.354   2.938   7.940 -2.1602  2.0479 -0.3230
  133OSM   H11G14441   3.398   3.097   7.867 -2.2220 -0.3972  0.5989
  133OSM   C12F14442   3.446   3.089   8.076 -0.0596  0.1350  0.4672
  133OSM   H12F14443   3.375   3.174   8.084  1.2631  1.4867 -1.1407
  133OSM   H12G14444   3.546   3.138   8.086  0.7218 -0.8064 -1.9550
  133OSM   C13F14445   3.429   2.997   8.192  0.2635  0.2489 -0.3584
  133OSM   H13F14446   3.458   2.893   8.164  0.8411  0.4208 -0.4086
  133OSM   H13G14447   3.318   2.999   8.201  0.3515  2.1820  0.8503
  133OSM   C14F14448   3.478   3.047   8.330  0.8073 -0.1289  0.0464
  133OSM   H14F14449   3.428   3.134   8.377  0.6866  1.7221 -3.1607
  133OSM   H14G14450   3.586   3.065   8.314  0.7431  0.5518  0.3450
  133OSM   C15F14451   3.463   2.944   8.442  0.3381  0.4055  0.0763
  133OSM   H15F14452   3.515   2.851   8.411 -1.6735  0.4329 -4.1330
  133OSM   H15G14453   3.354   2.929   8.462  0.5642  0.5207  1.4601
  133OSM   C16F14454   3.516   2.997   8.576  0.2878  0.1950 -0.1033
  133OSM   H16F14455   3.489   3.105   8.580 -2.7012 -0.4788  0.2602
  133OSM   H16G14456   3.624   2.972   8.586 -0.2185 -1.2708  2.8317
  133OSM   C17F14457   3.436   2.924   8.688 -0.3733 -0.1128  0.8337
  133OSM   H17F14458   3.331   2.961   8.683 -0.0347  0.9274  1.1721
  133OSM   H17G14459   3.473   2.969   8.782  0.3311  0.6664  0.2016
  133OSM   C18F14460   3.451   2.770   8.689  0.7557 -0.5138 -0.3537
  133OSM   H18F14461   3.416   2.731   8.787 -1.2742  0.6015 -0.5745
  133OSM   H18G14462   3.559   2.746   8.682  0.6967 -1.1967  0.7591
  133OSM   H18H14463   3.399   2.725   8.602 -0.9949 -1.5014  1.1428
  134OSM      N14464   3.487   6.247   6.295  0.2267  0.4717 -0.4856
  134OSM    C1514465   3.385   6.291   6.193  0.2354 -0.3702 -0.0614
  134OSM   H15A14466   3.299   6.226   6.180  0.4088 -0.5571 -0.2814
  134OSM   H15B14467   3.431   6.326   6.102 -3.0710  3.1968 -0.6564
  134OSM   H15C14468   3.345   6.386   6.227  2.1900  0.1061  1.0422
  134OSM    C1414469   3.413   6.256   6.426 -0.3639  0.2984  0.0089
  134OSM   H14A14470   3.371   6.355   6.423  2.6123  1.6615  0.3971
  134OSM   H14B14471   3.480   6.242   6.509  0.6989 -0.0982 -0.8829
  134OSM   H14C14472   3.338   6.179   6.441 -0.6270  0.5897  0.2117
  134OSM    C1314473   3.527   6.100   6.268  0.1773 -0.1017  0.2943
  134OSM   H13A14474   3.440   6.037   6.267  0.0935  0.0107  0.3879
  134OSM   H13B14475   3.584   6.070   6.355 -0.1097 -3.0688 -0.4450
  134OSM   H13C14476   3.580   6.079   6.177  1.2292 -0.3004  0.9303
  134OSM    C1214477   3.608   6.332   6.302 -0.1309  0.7585 -0.5932
  134OSM   H12A14478   3.575   6.430   6.333 -0.8479  0.8832 -1.6975
  134OSM   H12B14479   3.643   6.352   6.201 -0.2359 -1.2055 -1.0457
  134OSM    C1114480   3.731   6.281   6.381 -0.1804  0.2444  0.3261
  134OSM   H11A14481   3.814   6.355   6.379  0.1715 -0.1274  0.7815
  134OSM   H11B14482   3.776   6.197   6.323  0.0032 -0.4088  1.3735
  134OSM      P14483   3.746   6.126   6.583 -0.0428  0.4406  0.3883
  134OSM    O1314484   3.717   6.010   6.489 -0.9237  0.0461 -0.4195
  134OSM    O1414485   3.889   6.126   6.630 -0.3233  0.1061 -0.0952
  134OSM    O1114486   3.651   6.111   6.704 -0.5823 -0.1110 -0.1205
  134OSM    O1214487   3.709   6.255   6.512  0.1725  0.1349 -0.3433
  134OSM    C1S14488   3.567   6.208   6.762  0.2004 -0.4868  0.6044
  134OSM    H1S14489   3.469   6.216   6.711  0.5034  1.8794  0.2976
  134OSM    H1T14490   3.608   6.311   6.768 -0.4495 -0.1810 -0.1424
  134OSM     NF14491   3.424   6.234   6.965  0.7817  0.1590 -0.3793
  134OSM    HNF14492   3.442   6.291   7.044  2.0486  0.5584 -0.9328
  134OSM    C2S14493   3.537   6.167   6.912  0.2046  0.9894  0.4629
  134OSM    H2S14494   3.512   6.059   6.915  0.1098  0.8646 -2.2590
  134OSM    C3S14495   3.675   6.171   6.992  0.4671 -0.8430  0.2598
  134OSM    H3S14496   3.699   6.280   6.994 -2.6131 -0.0735  1.2413
  134OSM     O314497   3.780   6.103   6.937 -0.3774  0.4572  0.2488
  134OSM    HO314498   3.737   6.065   6.859 -0.2237  1.7421 -0.4880
  134OSM    C4S14499   3.658   6.140   7.137 -0.7334  0.7152 -0.0043
  134OSM    H4S14500   3.608   6.224   7.189  0.9409 -0.0757  3.1439
  134OSM    C5S14501   3.691   6.026   7.204 -0.3972  0.3431  0.4766
  134OSM    H5S14502   3.738   5.938   7.159 -0.4887  1.0258 -1.0325
  134OSM    C6S14503   3.678   6.007   7.355 -0.0061 -0.5552 -0.4336
  134OSM    H6S14504   3.699   6.102   7.409  0.7166  0.1135 -1.8313
  134OSM    H6T14505   3.758   5.935   7.383 -0.7189 -0.1594  3.0033
  134OSM    C7S14506   3.546   5.950   7.405 -0.3718 -0.0230  0.8906
  134OSM    H7S14507   3.525   5.859   7.345  0.1005  0.2317  0.3303
  134OSM    H7T14508   3.468   6.028   7.387  2.6142  3.1467  0.6384
  134OSM    C8S14509   3.566   5.911   7.559 -0.3583  0.3949 -0.5912
  134OSM    H8S14510   3.638   5.827   7.568 -0.0016  0.7529 -0.0167
  134OSM    H8T14511   3.466   5.889   7.601  0.3815 -1.4380  0.2866
  134OSM    C9S14512   3.635   6.019   7.647 -0.8658  0.0886 -0.0776
  134OSM    H9S14513   3.593   6.113   7.605 -0.2252  0.8954  1.0512
  134OSM    H9T14514   3.738   6.041   7.613 -1.1718 -2.1153 -2.7974
  134OSM   C10S14515   3.621   6.005   7.793 -0.4085 -0.0170  0.0933
  134OSM   H10S14516   3.651   5.908   7.838 -0.4251 -0.2017 -0.2896
  134OSM   H10T14517   3.515   6.025   7.823  0.3877  2.4698  1.5368
  134OSM   C11S14518   3.709   6.111   7.869  0.0719  0.6905 -0.1316
  134OSM   H11S14519   3.816   6.105   7.837  0.4871  3.6686  0.3988
  134OSM   H11T14520   3.708   6.094   7.979 -0.8830  1.5198 -0.0015
  134OSM   C12S14521   3.683   6.261   7.835 -0.5837  0.2535  0.5229
  134OSM   H12S14522   3.578   6.285   7.865 -1.9045 -0.7406 -2.8569
  134OSM   H12T14523   3.692   6.274   7.725  3.5263  0.5889  0.7385
  134OSM   C13S14524   3.776   6.358   7.911  0.1882  0.2868 -0.0685
  134OSM   H13S14525   3.740   6.457   7.875  0.9833  0.3313 -0.7731
  134OSM   H13T14526   3.883   6.344   7.887  0.5599  2.5094  0.0814
  134OSM   C14S14527   3.761   6.371   8.059  0.4118 -0.1024  0.0339
  134OSM   H14S14528   3.815   6.283   8.100 -1.5451 -0.9412  0.9493
  134OSM   H14T14529   3.652   6.369   8.080  0.1546  1.3016 -1.0409
  134OSM   C15S14530   3.831   6.492   8.122 -0.8113 -0.3961  0.0173
  134OSM   H15S14531   3.797   6.582   8.066 -0.6318 -1.5670 -2.1005
  134OSM   H15T14532   3.941   6.488   8.115 -0.8826 -1.8757 -0.6107
  134OSM   C16S14533   3.775   6.512   8.262  0.6406 -0.2331  0.3867
  134OSM   H16S14534   3.812   6.429   8.326  0.9288  0.3917  1.0364
  134OSM   H16T14535   3.665   6.508   8.244  0.9181  1.1813 -2.1938
  134OSM   C17S14536   3.820   6.644   8.336  0.0693  0.5044  0.3174
  134OSM   H17S14537   3.752   6.644   8.424 -1.2232 -0.5793 -0.6454
  134OSM   H17T14538   3.788   6.731   8.273  0.4426  0.7378  0.4496
  134OSM   C18S14539   3.967   6.656   8.376 -0.2837  0.3973  0.5639
  134OSM   H18S14540   4.037   6.646   8.291 -1.5151  1.3131 -0.6118
  134OSM   H18T14541   4.001   6.581   8.450  2.2533  0.4722 -0.4450
  134OSM   H18U14542   3.985   6.755   8.425  2.9552  0.1493  0.1032
  134OSM    C1F14543   3.297   6.210   6.927  0.2451  0.0544 -0.0747
  134OSM     OF14544   3.270   6.121   6.844 -0.0779 -0.0759 -0.2663
  134OSM    C2F14545   3.193   6.293   6.999 -0.1886  0.6288 -0.4753
  134OSM    H2F14546   3.113   6.326   6.929  1.7443  5.9706 -0.6634
  134OSM    H2G14547   3.243   6.382   7.042  0.8198 -1.5993  3.4217
  134OSM    C3F14548   3.122   6.226   7.113  0.4954  0.0861 -0.3469
  134OSM    H3F14549   3.039   6.160   7.080 -0.0147 -1.3098  3.2477
  134OSM    H3G14550   3.064   6.308   7.159 -0.5726 -0.2072 -1.1338
  134OSM    C4F14551   3.203   6.167   7.230  0.3839  0.3165  0.7778
  134OSM    H4F14552   3.256   6.243   7.291 -1.2499  0.0862  2.5926
  134OSM    H4G14553   3.283   6.100   7.191 -0.5461 -0.1150 -0.4483
  134OSM    C5F14554   3.110   6.111   7.342 -0.3298  0.2924  0.1891
  134OSM    H5F14555   3.070   6.016   7.301 -0.3291  0.0287  0.7950
  134OSM    H5G14556   3.016   6.168   7.358 -0.9507 -0.5347 -0.4442
  134OSM    C6F14557   3.182   6.088   7.485 -0.8814  0.3810 -0.4537
  134OSM    H6F14558   3.230   6.183   7.517 -0.8321 -0.0946  0.9330
  134OSM    H6G14559   3.270   6.021   7.469 -1.2656 -0.6912  1.6276
  134OSM    C7F14560   3.105   6.009   7.595  0.1268  0.2883 -0.3918
  134OSM    H7F14561   3.042   5.927   7.554  0.0919  1.2441 -2.4153
  134OSM    H7G14562   3.027   6.074   7.641  1.3716  0.5993  1.3595
  134OSM    C8F14563   3.195   5.968   7.713 -0.2672  0.5178  0.7629
  134OSM    H8F14564   3.269   5.896   7.671  0.3766  1.4565  0.2394
  134OSM    H8G14565   3.125   5.910   7.776 -0.0434 -0.8056 -0.1510
  134OSM    C9F14566   3.264   6.091   7.776 -0.5451  0.3624 -0.2174
  134OSM    H9F14567   3.343   6.135   7.713  0.4479  0.6181  1.1542
  134OSM   C10F14568   3.234   6.150   7.886  0.5800 -0.3504  0.7883
  134OSM   H10F14569   3.296   6.238   7.908 -1.4925  1.4041  0.0331
  134OSM   C11F14570   3.129   6.115   7.978  0.5846  0.2342 -0.0672
  134OSM   H11F14571   3.153   6.029   8.045  2.6990  0.3294 -0.6236
  134OSM   H11G14572   3.030   6.086   7.939 -0.4739  1.8223  1.2896
  134OSM   C12F14573   3.108   6.232   8.084  0.6121 -0.0230  0.7167
  134OSM   H12F14574   3.014   6.195   8.132  2.1708 -2.4074  2.1266
  134OSM   H12G14575   3.082   6.322   8.025  0.7333 -0.7463 -0.4667
  134OSM   C13F14576   3.211   6.255   8.193  0.4308  0.5857 -0.0501
  134OSM   H13F14577   3.304   6.208   8.155  0.2249  0.3837 -0.3062
  134OSM   H13G14578   3.182   6.201   8.286 -1.6073  0.7324 -0.5456
  134OSM   C14F14579   3.234   6.400   8.225  0.0054  0.1249 -0.5365
  134OSM   H14F14580   3.140   6.445   8.262 -0.5378 -0.1197 -1.5879
  134OSM   H14G14581   3.275   6.449   8.134 -0.8404  1.0628 -0.4251
  134OSM   C15F14582   3.341   6.411   8.338  0.8449 -0.0746  0.1557
  134OSM   H15F14583   3.428   6.351   8.302 -0.9989 -3.3347  0.7232
  134OSM   H15G14584   3.293   6.360   8.424 -0.6619  1.4794  0.2685
  134OSM   C16F14585   3.371   6.558   8.379 -0.7212  0.3005  0.3059
  134OSM   H16F14586   3.281   6.611   8.418 -1.5505 -0.6606 -0.2662
  134OSM   H16G14587   3.404   6.608   8.285 -2.3850 -2.8520 -2.1232
  134OSM   C17F14588   3.463   6.565   8.499 -0.4349 -0.3503 -0.5105
  134OSM   H17F14589   3.556   6.505   8.491 -0.4179 -0.5624  0.9358
  134OSM   H17G14590   3.409   6.520   8.585 -0.3035 -1.7412 -1.1327
  134OSM   C18F14591   3.492   6.712   8.545 -0.3532 -0.5324 -0.2037
  134OSM   H18F14592   3.558   6.761   8.470 -1.4084  1.9499  0.3873
  134OSM   H18G14593   3.547   6.712   8.641 -0.2967  1.7838 -0.2006
  134OSM   H18H14594   3.393   6.760   8.561 -0.2315 -0.2503 -0.3006
  135OSM      N14595   2.873   6.289   5.963  0.0479 -0.5326 -0.4818
  135OSM    C1514596   2.847   6.354   5.829  0.0014 -0.2136  0.8581
  135OSM   H15A14597   2.867   6.459   5.842  0.1677 -0.3228  1.5546
  135OSM   H15B14598   2.748   6.341   5.790 -0.0403 -1.4699  1.3439
  135OSM   H15C14599   2.927   6.324   5.763 -3.3917 -2.0244 -2.8332
  135OSM    C1414600   2.895   6.140   5.958  0.2493 -0.0936 -0.0394
  135OSM   H14A14601   2.987   6.104   5.914  0.1824  1.4872 -1.6055
  135OSM   H14B14602   2.814   6.089   5.909 -0.0452  0.1471  0.1960
  135OSM   H14C14603   2.907   6.095   6.055  0.7599 -3.1826 -1.4037
  135OSM    C1314604   3.000   6.354   6.020 -0.9718  0.1598 -0.0855
  135OSM   H13A14605   3.009   6.342   6.127 -2.2427  1.5824  0.2230
  135OSM   H13B14606   3.003   6.461   6.006  0.7791  0.0326 -0.8978
  135OSM   H13C14607   3.089   6.314   5.973  0.3785 -0.0494  2.4759
  135OSM    C1214608   2.749   6.313   6.049  0.6178 -0.3061  0.3264
  135OSM   H12A14609   2.664   6.278   5.992  0.2713 -0.0304  0.6716
  135OSM   H12B14610   2.737   6.419   6.062 -0.6393 -0.3404 -0.3957
  135OSM    C1114611   2.748   6.258   6.196 -0.8092 -0.8179 -0.2030
  135OSM   H11A14612   2.808   6.165   6.191  2.4377  1.1848 -2.4345
  135OSM   H11B14613   2.645   6.235   6.231 -0.1230 -1.0310  1.7950
  135OSM      P14614   2.774   6.460   6.373 -0.1864  0.4501 -0.1189
  135OSM    O1314615   2.887   6.482   6.469  0.5296 -0.1827  0.7255
  135OSM    O1414616   2.736   6.570   6.281  0.6650  0.0636 -0.1341
  135OSM    O1114617   2.650   6.400   6.449 -0.6945  0.2893 -0.1574
  135OSM    O1214618   2.823   6.345   6.285  0.1296  0.3947 -0.3138
  135OSM    C1S14619   2.661   6.261   6.505 -0.0546 -0.2198 -0.7119
  135OSM    H1S14620   2.765   6.224   6.505 -0.4877 -1.4957 -0.1343
  135OSM    H1T14621   2.594   6.191   6.450  1.4364 -1.9798 -0.3730
  135OSM     NF14622   2.665   6.126   6.716  0.5630 -0.2062 -0.4572
  135OSM    HNF14623   2.587   6.064   6.710 -2.7850  3.7116 -2.2698
  135OSM    C2S14624   2.639   6.258   6.657 -0.1435  0.8222 -0.0968
  135OSM    H2S14625   2.702   6.328   6.716 -0.3611  2.4768 -1.7599
  135OSM    C3S14626   2.494   6.308   6.691  0.3186 -0.2198  0.0158
  135OSM    H3S14627   2.426   6.237   6.640  0.6201  0.0552 -0.7800
  135OSM     O314628   2.473   6.432   6.630  0.5714  0.9841 -0.0131
  135OSM    HO314629   2.535   6.430   6.557  0.7950 -0.6112  0.1718
  135OSM    C4S14630   2.475   6.312   6.839  0.3187  0.5107  0.7847
  135OSM    H4S14631   2.419   6.229   6.883 -1.1163  0.7532 -0.5126
  135OSM    C5S14632   2.520   6.403   6.927 -0.3523  0.0905  0.6414
  135OSM    H5S14633   2.583   6.484   6.886 -0.8627 -0.7083 -1.9002
  135OSM    C6S14634   2.487   6.405   7.078  0.3439 -0.6261 -0.0305
  135OSM    H6S14635   2.386   6.362   7.097  0.4856 -0.4372  1.2396
  135OSM    H6T14636   2.487   6.508   7.120  1.3253  0.3167 -2.1780
  135OSM    C7S14637   2.588   6.311   7.145 -0.5070  0.0222  0.4193
  135OSM    H7S14638   2.692   6.339   7.117 -0.6981 -0.0574 -0.3839
  135OSM    H7T14639   2.561   6.212   7.103 -2.3222  0.6104  0.0832
  135OSM    C8S14640   2.572   6.294   7.299 -0.8546  1.2786  0.5047
  135OSM    H8S14641   2.466   6.269   7.322 -1.2371  3.1213  0.9176
  135OSM    H8T14642   2.594   6.390   7.351  0.1719  0.4214  1.6814
  135OSM    C9S14643   2.677   6.179   7.331 -0.3976 -0.1056  0.3302
  135OSM    H9S14644   2.771   6.237   7.323 -0.2768 -0.2033  0.9886
  135OSM    H9T14645   2.685   6.111   7.244  2.1879 -0.5087  0.7829
  135OSM   C10S14646   2.655   6.118   7.466 -0.0964  0.2138 -0.1204
  135OSM   H10S14647   2.719   6.028   7.483 -1.4244 -0.5615  0.9322
  135OSM   H10T14648   2.552   6.079   7.474  0.9866 -2.5406  2.2117
  135OSM   C11S14649   2.673   6.215   7.584  0.0235  0.0109 -1.0164
  135OSM   H11S14650   2.605   6.303   7.586  2.4435  1.9702 -0.4162
  135OSM   H11T14651   2.777   6.255   7.580 -0.1298  0.3111 -2.3737
  135OSM   C12S14652   2.656   6.151   7.725 -0.2111  0.3367  0.3388
  135OSM   H12S14653   2.740   6.079   7.734 -0.3533  0.1019 -0.1661
  135OSM   H12T14654   2.561   6.092   7.720 -0.5744  0.8850  0.6032
  135OSM   C13S14655   2.660   6.238   7.848 -0.4723 -0.9957  0.7838
  135OSM   H13S14656   2.562   6.288   7.862  0.6433  1.3027  0.9120
  135OSM   H13T14657   2.743   6.311   7.845 -1.8141  0.5707  0.5480
  135OSM   C14S14658   2.692   6.153   7.974  0.0670 -1.5815  0.1531
  135OSM   H14S14659   2.788   6.103   7.950  0.3429  0.4851 -3.7713
  135OSM   H14T14660   2.616   6.071   7.979  2.8203 -4.2804  0.6021
  135OSM   C15S14661   2.701   6.231   8.109 -0.8608  0.3401  0.3395
  135OSM   H15S14662   2.607   6.290   8.107 -2.7232 -2.4447 -0.9482
  135OSM   H15T14663   2.795   6.290   8.095  0.9309 -2.2930  0.5320
  135OSM   C16S14664   2.712   6.127   8.217 -1.0567  0.2401  0.2567
  135OSM   H16S14665   2.762   6.170   8.307  2.2987 -0.0813 -1.3090
  135OSM   H16T14666   2.784   6.051   8.181 -0.5075  0.3915  1.0130
  135OSM   C17S14667   2.581   6.052   8.255 -0.0412 -0.2720  0.0254
  135OSM   H17S14668   2.597   5.982   8.340 -0.5533 -1.6868 -1.0160
  135OSM   H17T14669   2.566   5.991   8.164  0.3621  2.2362 -1.8318
  135OSM   C18S14670   2.460   6.141   8.283 -0.4224  0.1900  0.8427
  135OSM   H18S14671   2.443   6.208   8.197  1.4076 -0.8948 -0.4392
  135OSM   H18T14672   2.459   6.200   8.377 -0.7471  2.2878 -0.4161
  135OSM   H18U14673   2.371   6.076   8.290 -0.4368  0.2266  1.0115
  135OSM    C1F14674   2.782   6.071   6.734 -0.7810  0.1833  0.5605
  135OSM     OF14675   2.893   6.123   6.716 -0.0290  0.3169  0.4644
  135OSM    C2F14676   2.778   5.929   6.761  0.4812 -0.5646 -0.2454
  135OSM    H2F14677   2.811   5.864   6.678 -2.3191  0.4841 -2.3343
  135OSM    H2G14678   2.674   5.895   6.778  0.5059 -0.4551  0.1431
  135OSM    C3F14679   2.849   5.878   6.890 -0.3947 -0.5597  0.1881
  135OSM    H3F14680   2.948   5.929   6.895  1.0968 -3.1930 -0.3290
  135OSM    H3G14681   2.868   5.769   6.873 -0.3044 -0.3258 -1.3339
  135OSM    C4F14682   2.777   5.906   7.028 -0.0248 -0.0170  0.1880
  135OSM    H4F14683   2.733   6.008   7.029  0.9147  0.4170 -0.5548
  135OSM    H4G14684   2.851   5.891   7.109 -0.8506 -0.5387  0.8619
  135OSM    C5F14685   2.672   5.794   7.052  0.4555  0.8368  0.2352
  135OSM    H5F14686   2.711   5.700   7.009 -1.6823  1.0117 -2.3837
  135OSM    H5G14687   2.573   5.811   7.003 -0.3187 -0.0031  1.4562
  135OSM    C6F14688   2.636   5.773   7.204 -0.6971  0.4170  0.5190
  135OSM    H6F14689   2.586   5.867   7.233  1.8690  2.7076 -1.7732
  135OSM    H6G14690   2.739   5.762   7.246  0.7220  1.8903 -2.2599
  135OSM    C7F14691   2.563   5.636   7.224  0.5433 -0.1703 -0.9924
  135OSM    H7F14692   2.610   5.549   7.175 -1.0402 -2.1305  0.7756
  135OSM    H7G14693   2.463   5.633   7.177 -0.5706  1.8254  1.0533
  135OSM    C8F14694   2.548   5.601   7.372  0.5287 -1.0493 -0.2196
  135OSM    H8F14695   2.651   5.585   7.412  0.8929 -0.7254 -1.0141
  135OSM    H8G14696   2.496   5.503   7.375 -0.5673 -0.5406 -1.5985
  135OSM    C9F14697   2.489   5.713   7.455  0.2657 -1.0516  0.4446
  135OSM    H9F14698   2.413   5.763   7.393 -0.5100  1.1954  3.0088
  135OSM   C10F14699   2.525   5.766   7.570 -0.0144 -0.5282  0.2630
  135OSM   H10F14700   2.492   5.865   7.604 -0.2169 -0.7302  0.6686
  135OSM   C11F14701   2.634   5.714   7.661  0.1222 -0.2879 -0.2374
  135OSM   H11F14702   2.728   5.738   7.608  0.8151 -1.7494  0.2895
  135OSM   H11G14703   2.636   5.603   7.662  1.3172 -0.2765  0.8100
  135OSM   C12F14704   2.623   5.761   7.804  0.6892 -0.1026 -0.8683
  135OSM   H12F14705   2.551   5.689   7.850 -0.2324  1.0808 -0.4004
  135OSM   H12G14706   2.586   5.865   7.821 -0.6320 -0.7183  0.2575
  135OSM   C13F14707   2.748   5.744   7.890  0.4489  0.0125 -0.1664
  135OSM   H13F14708   2.816   5.826   7.859  1.9681  0.0106  2.7823
  135OSM   H13G14709   2.794   5.642   7.890  3.6819  1.3529 -0.3697
  135OSM   C14F14710   2.709   5.766   8.038 -0.3211  0.3035 -0.0350
  135OSM   H14F14711   2.626   5.695   8.060  0.2740  0.0069  1.3635
  135OSM   H14G14712   2.668   5.869   8.052  1.6897  0.8970  2.1703
  135OSM   C15F14713   2.825   5.761   8.138 -0.3145 -0.4502 -0.0995
  135OSM   H15F14714   2.867   5.862   8.122 -2.2171  0.3538 -0.3336
  135OSM   H15G14715   2.909   5.692   8.117  1.5029 -0.0704  4.6865
  135OSM   C16F14716   2.780   5.751   8.285  1.0076  0.5040 -0.2322
  135OSM   H16F14717   2.762   5.642   8.290 -0.4313  0.7329  0.1218
  135OSM   H16G14718   2.681   5.801   8.295  0.4437 -0.1794 -1.9054
  135OSM   C17F14719   2.897   5.791   8.382  0.1843  0.2254 -0.4651
  135OSM   H17F14720   2.857   5.767   8.483  1.2448 -0.8088 -0.2669
  135OSM   H17G14721   2.913   5.901   8.380  0.6488  0.1426 -1.3575
  135OSM   C18F14722   3.030   5.717   8.373 -0.2682  0.6795 -0.2314
  135OSM   H18F14723   3.009   5.609   8.388 -1.0408  0.9292  0.6274
  135OSM   H18G14724   3.103   5.747   8.451 -0.4072 -1.8897  0.9999
  135OSM   H18H14725   3.067   5.730   8.269 -0.7634  0.4907 -0.4337
  136OSM      N14726   2.239   0.132   6.084 -0.0762 -0.4053 -0.1064
  136OSM    C1514727   2.344   0.032   6.058 -0.4243  0.0636 -0.0383
  136OSM   H15A14728   2.311  -0.022   5.971  0.9287 -0.6708 -0.1280
  136OSM   H15B14729   2.362  -0.030   6.145 -1.4542  1.6435  1.3738
  136OSM   H15C14730   2.434   0.082   6.025 -1.3376  0.1408 -2.5795
  136OSM    C1414731   2.220   0.213   5.956 -0.2853  0.8686  0.1381
  136OSM   H14A14732   2.314   0.251   5.918 -0.4820 -2.1527 -4.2048
  136OSM   H14B14733   2.155   0.295   5.980 -0.9580 -0.1362  1.9299
  136OSM   H14C14734   2.183   0.157   5.871 -2.8256 -1.2784  2.4628
  136OSM    C1314735   2.119   0.050   6.102 -0.0052 -0.5848 -0.0135
  136OSM   H13A14736   2.032   0.112   6.112  0.7192  0.3513  0.5774
  136OSM   H13B14737   2.123  -0.010   6.191 -0.5415 -1.1551 -0.3620
  136OSM   H13C14738   2.106  -0.026   6.025  1.2399 -0.4924 -0.3460
  136OSM    C1214739   2.277   0.228   6.200  0.0676  0.3287 -0.3647
  136OSM   H12A14740   2.364   0.283   6.169  0.2173 -0.1299 -0.7676
  136OSM   H12B14741   2.319   0.173   6.283 -1.5620 -0.3081  0.0779
  136OSM    C1114742   2.166   0.326   6.251 -0.1398  0.4539 -0.3834
  136OSM   H11A14743   2.217   0.386   6.330  1.8386 -0.3104 -1.0164
  136OSM   H11B14744   2.086   0.268   6.302  1.3168 -0.4894  0.9043
  136OSM      P14745   2.112   0.548   6.115 -0.0872  0.1056  0.0726
  136OSM    O1314746   2.243   0.577   6.054 -0.0190  0.1936  0.0044
  136OSM    O1414747   1.996   0.588   6.040 -0.0597  0.0892  0.2530
  136OSM    O1114748   2.106   0.614   6.256 -0.0580  0.0039  0.2127
  136OSM    O1214749   2.101   0.393   6.143  0.4453 -0.2775 -0.7244
  136OSM    C1S14750   1.995   0.643   6.338 -0.1051 -0.6678  0.5948
  136OSM    H1S14751   1.902   0.604   6.293  1.1433 -1.9396 -1.0337
  136OSM    H1T14752   1.987   0.754   6.342  1.0051 -0.5835  0.9155
  136OSM     NF14753   1.901   0.646   6.567  0.4461 -0.1748  0.1811
  136OSM    HNF14754   1.915   0.729   6.620  2.2947 -0.6434  0.5108
  136OSM    C2S14755   2.015   0.599   6.485 -0.2283  0.1666 -0.5455
  136OSM    H2S14756   2.008   0.488   6.493 -2.5707  0.2938  0.1417
  136OSM    C3S14757   2.157   0.645   6.542  0.6686  0.1809 -0.0510
  136OSM    H3S14758   2.140   0.752   6.563 -3.3148 -0.0011 -1.5270
  136OSM     O314759   2.267   0.640   6.457  0.6780  0.4870  0.4509
  136OSM    HO314760   2.231   0.624   6.370  0.5337 -1.8147  0.8693
  136OSM    C4S14761   2.181   0.584   6.677 -0.3367 -0.1421 -0.4324
  136OSM    H4S14762   2.144   0.642   6.763 -0.2812 -1.5947  0.6116
  136OSM    C5S14763   2.257   0.479   6.697 -0.6674  0.6963  0.1884
  136OSM    H5S14764   2.327   0.452   6.617  2.0164 -0.0381  2.6187
  136OSM    C6S14765   2.289   0.422   6.828  0.3005 -0.0099  0.3403
  136OSM    H6S14766   2.400   0.414   6.833  0.1383 -1.8263  2.1888
  136OSM    H6T14767   2.256   0.317   6.835 -1.7371  0.6526  1.2912
  136OSM    C7S14768   2.263   0.500   6.956 -0.4127 -0.4702  0.0575
  136OSM    H7S14769   2.156   0.521   6.977 -0.3752  1.3061 -1.2718
  136OSM    H7T14770   2.320   0.595   6.961  0.5007 -1.0814  2.5317
  136OSM    C8S14771   2.318   0.416   7.070  0.2670 -0.7289  0.0875
  136OSM    H8S14772   2.428   0.414   7.055 -0.1189  1.2303 -4.6054
  136OSM    H8T14773   2.269   0.317   7.061 -1.7585  0.2788 -0.3802
  136OSM    C9S14774   2.271   0.463   7.214 -0.3278  0.6643  0.1638
  136OSM    H9S14775   2.318   0.392   7.286  0.5602 -0.3205 -1.3495
  136OSM    H9T14776   2.161   0.445   7.219 -0.1529 -1.2603 -1.8050
  136OSM   C10S14777   2.315   0.607   7.259 -0.0457  0.5604 -0.8382
  136OSM   H10S14778   2.273   0.682   7.189  1.6049  0.2128 -2.2665
  136OSM   H10T14779   2.425   0.605   7.246  0.0526  1.3480 -0.2351
  136OSM   C11S14780   2.282   0.639   7.403  0.4033  0.3970  0.6558
  136OSM   H11S14781   2.328   0.737   7.430  2.1626 -0.5326  1.1824
  136OSM   H11T14782   2.330   0.565   7.470 -1.0306 -0.5953  0.6212
  136OSM   C12S14783   2.135   0.656   7.434  0.7223  0.2917  0.0771
  136OSM   H12S14784   2.085   0.558   7.415 -0.6155  1.0906 -0.6810
  136OSM   H12T14785   2.089   0.726   7.362 -0.1412 -0.1325  0.1956
  136OSM   C13S14786   2.107   0.698   7.582  0.6004  0.0961 -0.2113
  136OSM   H13S14787   2.149   0.797   7.607  0.4259 -0.3160  1.9152
  136OSM   H13T14788   2.158   0.620   7.643 -2.1756 -1.0377  0.8465
  136OSM   C14S14789   1.958   0.702   7.623 -0.1000  0.6019  0.0544
  136OSM   H14S14790   1.889   0.746   7.548 -1.2755  0.0881  0.8011
  136OSM   H14T14791   1.952   0.775   7.706 -0.1179  1.0985 -0.3739
  136OSM   C15S14792   1.909   0.562   7.666 -0.3136 -0.2156  0.4188
  136OSM   H15S14793   1.962   0.513   7.750 -1.8813 -1.9734  0.4427
  136OSM   H15T14794   1.908   0.486   7.585 -0.9509  1.2002 -0.9652
  136OSM   C16S14795   1.763   0.564   7.722 -0.7073 -0.1496 -0.1172
  136OSM   H16S14796   1.707   0.594   7.631  1.4938 -2.1295 -2.2967
  136OSM   H16T14797   1.758   0.635   7.806 -1.2386  0.5770 -0.7541
  136OSM   C17S14798   1.711   0.420   7.747  0.2167 -0.5201 -0.6644
  136OSM   H17S14799   1.631   0.410   7.824  0.3538  1.7846 -0.1468
  136OSM   H17T14800   1.794   0.350   7.774 -1.4149 -2.1510  0.3792
  136OSM   C18S14801   1.660   0.380   7.612  0.4672 -0.2088 -0.6309
  136OSM   H18S14802   1.714   0.415   7.521 -1.0736  0.4688 -1.3267
  136OSM   H18T14803   1.554   0.412   7.606  0.5225  0.2851  0.6872
  136OSM   H18U14804   1.653   0.270   7.608  2.9766 -0.6150  2.2911
  136OSM    C1F14805   1.779   0.592   6.568 -0.0389 -0.0075  0.2605
  136OSM     OF14806   1.754   0.487   6.511  0.9321 -0.4799  0.2026
  136OSM    C2F14807   1.680   0.675   6.644  0.3067  0.3840  0.5272
  136OSM    H2F14808   1.671   0.770   6.587  2.4433 -0.5667 -1.5489
  136OSM    H2G14809   1.720   0.706   6.742 -0.2513  1.9789  0.2847
  136OSM    C3F14810   1.547   0.601   6.653 -0.6571  0.2083  0.3573
  136OSM    H3F14811   1.523   0.545   6.560 -0.7670  1.0180 -0.1163
  136OSM    H3G14812   1.468   0.680   6.658 -2.3061 -1.0176 -2.8315
  136OSM    C4F14813   1.539   0.502   6.770  0.2858 -0.6375 -0.2270
  136OSM    H4F14814   1.554   0.544   6.871 -1.8893  0.4448 -0.2761
  136OSM    H4G14815   1.627   0.437   6.757  0.6686 -0.3545  0.8980
  136OSM    C5F14816   1.405   0.426   6.779  0.5520  0.1691  0.0234
  136OSM    H5F14817   1.398   0.360   6.690  2.0201 -1.4261  1.0195
  136OSM    H5G14818   1.319   0.496   6.776  0.9842  0.7748  1.1928
  136OSM    C6F14819   1.382   0.337   6.897 -0.3935 -0.6723 -0.1107
  136OSM    H6F14820   1.282   0.345   6.945 -0.4820 -1.3210 -0.1773
  136OSM    H6G14821   1.450   0.374   6.977  1.6571 -0.7649 -1.7362
  136OSM    C7F14822   1.410   0.185   6.875 -0.6291 -0.2879  0.7516
  136OSM    H7F14823   1.504   0.181   6.817 -0.4154  0.0812  1.0701
  136OSM    H7G14824   1.334   0.136   6.810  0.0167 -0.2330 -0.0640
  136OSM    C8F14825   1.396   0.101   7.000 -0.0664  0.3941 -0.5611
  136OSM    H8F14826   1.406  -0.001   6.957  0.5226  1.7092 -3.8357
  136OSM    H8G14827   1.293   0.115   7.038  0.1353  1.3992 -0.3615
  136OSM    C9F14828   1.509   0.119   7.104  0.0708 -0.3880  0.2592
  136OSM    H9F14829   1.609   0.148   7.068 -0.0190 -0.8892 -0.4116
  136OSM   C10F14830   1.492   0.115   7.238  0.7107  0.3576  0.0993
  136OSM   H10F14831   1.573   0.136   7.309  0.2542  0.2934  0.6508
  136OSM   C11F14832   1.361   0.111   7.319 -0.7760  0.3361 -0.2942
  136OSM   H11F14833   1.271   0.085   7.259 -1.3549 -0.1024  0.7430
  136OSM   H11G14834   1.342   0.214   7.355 -0.2683 -0.2027  1.5989
  136OSM   C12F14835   1.353   0.000   7.436  0.4027 -0.0477  0.2569
  136OSM   H12F14836   1.388  -0.099   7.399  2.4924  0.9723 -0.6670
  136OSM   H12G14837   1.251  -0.005   7.480  0.2760  2.0299  0.3164
  136OSM   C13F14838   1.438   0.037   7.556 -0.2073 -0.8498  0.6444
  136OSM   H13F14839   1.424   0.141   7.592 -0.7090 -0.3696 -0.8411
  136OSM   H13G14840   1.542   0.036   7.517  0.3502  0.1235  2.0597
  136OSM   C14F14841   1.420  -0.066   7.665 -0.4938 -0.9303 -0.4635
  136OSM   H14F14842   1.456  -0.161   7.620  0.3819 -0.9039  0.1445
  136OSM   H14G14843   1.313  -0.079   7.694 -0.5168 -1.1452 -0.6418
  136OSM   C15F14844   1.516  -0.053   7.786  0.4558  1.0388  0.0313
  136OSM   H15F14845   1.621  -0.035   7.754 -0.1145 -1.3874 -4.0296
  136OSM   H15G14846   1.509  -0.151   7.838 -2.9814  1.2505  0.1872
  136OSM   C16F14847   1.470   0.042   7.900 -0.1183  0.8155 -0.1880
  136OSM   H16F14848   1.490   0.144   7.862 -1.4794  0.4977 -1.8892
  136OSM   H16G14849   1.543   0.024   7.982 -1.8607  1.0026  1.4612
  136OSM   C17F14850   1.321   0.014   7.959  0.4727  0.2456  0.6599
  136OSM   H17F14851   1.307  -0.096   7.971 -1.8941  0.5161  0.7028
  136OSM   H17G14852   1.250   0.045   7.880 -2.1429 -0.9029  2.4162
  136OSM   C18F14853   1.294   0.094   8.084 -0.5828  0.1894  0.4138
  136OSM   H18F14854   1.193   0.076   8.127 -1.3774 -1.1435 -1.8404
  136OSM   H18G14855   1.282   0.201   8.055  0.5027  0.0090 -0.7934
  136OSM   H18H14856   1.373   0.073   8.159 -1.3851 -0.6577  1.0524
  137OSM      N14857   3.527   4.959   6.405 -0.4641 -0.2447 -0.3617
  137OSM    C1514858   3.629   5.023   6.322  0.3905  0.3980  0.1685
  137OSM   H15A14859   3.639   4.970   6.228  1.2502  1.6019 -0.4646
  137OSM   H15B14860   3.723   5.036   6.373 -0.4066 -0.9320  2.0548
  137OSM   H15C14861   3.586   5.121   6.305 -1.4842 -0.3402  0.4175
  137OSM    C1414862   3.498   5.066   6.509 -0.1329 -0.3417  0.0747
  137OSM   H14A14863   3.445   5.151   6.469 -1.4737 -1.8060 -1.3880
  137OSM   H14B14864   3.595   5.102   6.540 -1.2606  1.4538  1.7007
  137OSM   H14C14865   3.448   5.024   6.595  0.6402  1.1232  1.3028
  137OSM    C1314866   3.403   4.925   6.331 -0.3347  0.1204  0.4638
  137OSM   H13A14867   3.344   4.853   6.386  1.0061 -0.6334  0.9506
  137OSM   H13B14868   3.432   4.877   6.239  0.2759  0.1686  0.6324
  137OSM   H13C14869   3.345   5.008   6.294 -0.3140 -0.1187 -0.1202
  137OSM    C1214870   3.580   4.831   6.466 -0.0571 -0.0144 -0.3285
  137OSM   H12A14871   3.609   4.766   6.384  0.2985 -0.5655  0.2203
  137OSM   H12B14872   3.505   4.777   6.522 -0.6821  0.4454 -0.7209
  137OSM    C1114873   3.715   4.841   6.543  1.1333  0.2706 -0.5203
  137OSM   H11A14874   3.726   4.738   6.582 -0.2876  0.7238  1.1932
  137OSM   H11B14875   3.694   4.912   6.626 -0.9032 -0.3528 -0.4421
  137OSM      P14876   3.958   4.918   6.507 -0.0712  0.1703 -0.1832
  137OSM    O1314877   4.064   4.853   6.428 -0.0440 -0.1051 -0.1904
  137OSM    O1414878   3.956   5.067   6.515  0.1744  0.1746  0.2584
  137OSM    O1114879   3.962   4.839   6.641 -0.6307  0.5631 -0.6784
  137OSM    O1214880   3.818   4.871   6.453  0.7717 -0.1059  0.4881
  137OSM    C1S14881   4.067   4.865   6.738  0.1980 -0.5519 -0.0553
  137OSM    H1S14882   4.158   4.912   6.696 -1.7431  0.3818 -3.7190
  137OSM    H1T14883   4.103   4.767   6.774 -0.1138 -0.5613  0.2379
  137OSM     NF14884   4.106   4.980   6.951 -1.0580  0.8027  0.3581
  137OSM    HNF14885   4.127   4.918   7.026  3.3165  2.0387  0.4363
  137OSM    C2S14886   4.003   4.936   6.859 -0.0581 -0.1830 -0.0973
  137OSM    H2S14887   3.948   5.027   6.826  0.3496 -0.4110 -1.5039
  137OSM    C3S14888   3.891   4.842   6.918 -0.3590 -0.3123  0.2286
  137OSM    H3S14889   3.935   4.742   6.937  0.2713 -0.8244 -3.3356
  137OSM     O314890   3.781   4.814   6.838  0.2275 -0.0742 -0.4867
  137OSM    HO314891   3.817   4.814   6.749 -1.7108 -0.7812 -1.3367
  137OSM    C4S14892   3.846   4.893   7.053  0.6755 -0.4060  0.1435
  137OSM    H4S14893   3.909   4.860   7.137 -1.3335 -2.6651  0.8778
  137OSM    C5S14894   3.742   4.975   7.078 -1.1018 -0.1527  0.2566
  137OSM    H5S14895   3.670   5.013   7.004 -3.2546  1.9026  3.1663
  137OSM    C6S14896   3.710   5.031   7.214 -0.2999 -0.2743 -0.2583
  137OSM    H6S14897   3.605   5.001   7.233  0.5320 -2.0092  2.1073
  137OSM    H6T14898   3.713   5.142   7.214 -1.8534 -0.1192 -3.3213
  137OSM    C7S14899   3.790   4.988   7.337 -0.2643 -0.0063 -0.6260
  137OSM    H7S14900   3.900   5.008   7.335 -0.1636 -0.2581  0.8968
  137OSM    H7T14901   3.777   4.879   7.351  1.6118 -0.2360 -0.3445
  137OSM    C8S14902   3.736   5.052   7.462  0.0620  0.1117 -0.5685
  137OSM    H8S14903   3.628   5.025   7.462 -0.2826  1.3735 -1.9294
  137OSM    H8T14904   3.735   5.162   7.451  0.4721  0.2194  0.3534
  137OSM    C9S14905   3.813   5.013   7.586 -0.5673  0.4437 -0.1883
  137OSM    H9S14906   3.922   5.028   7.571 -0.3695 -1.1254 -0.4670
  137OSM    H9T14907   3.820   4.904   7.606 -0.1124  0.3939 -0.6064
  137OSM   C10S14908   3.774   5.075   7.717 -0.3522  0.0205 -0.2347
  137OSM   H10S14909   3.673   5.045   7.751 -0.1006 -0.6758 -0.0917
  137OSM   H10T14910   3.767   5.185   7.709  1.0230  0.0160 -2.0618
  137OSM   C11S14911   3.882   5.056   7.828  0.0794 -0.3766 -0.5647
  137OSM   H11S14912   3.978   5.099   7.792  1.0384 -1.5508  0.4913
  137OSM   H11T14913   3.895   4.951   7.863 -2.1540 -0.8142 -0.9203
  137OSM   C12S14914   3.840   5.132   7.952  0.2194  0.4206 -0.2788
  137OSM   H12S14915   3.741   5.093   7.986  1.2257 -0.3705  1.9032
  137OSM   H12T14916   3.841   5.239   7.922  1.0267  0.1975 -1.0875
  137OSM   C13S14917   3.935   5.102   8.070 -0.0064  0.1557  0.1083
  137OSM   H13S14918   4.038   5.143   8.054  1.0453 -2.1628  0.4992
  137OSM   H13T14919   3.944   4.993   8.091  0.0771  0.6998  3.4866
  137OSM   C14S14920   3.864   5.152   8.197 -0.2241  0.3000 -0.4285
  137OSM   H14S14921   3.764   5.106   8.215 -0.5924  0.7834 -1.1610
  137OSM   H14T14922   3.846   5.260   8.183 -0.5633  0.4827  1.2555
  137OSM   C15S14923   3.953   5.141   8.315 -0.2940  0.9354  0.1359
  137OSM   H15S14924   4.041   5.206   8.292  0.0009  0.0114 -1.5031
  137OSM   H15T14925   3.988   5.036   8.323 -2.7017  0.1458  1.1137
  137OSM   C16S14926   3.891   5.182   8.449  0.0739  0.0575  0.6082
  137OSM   H16S14927   3.809   5.112   8.475  0.2912  0.0310  1.2298
  137OSM   H16T14928   3.846   5.284   8.441  0.9767  0.4980  0.9636
  137OSM   C17S14929   3.977   5.169   8.577  0.2764 -0.6923  0.5753
  137OSM   H17S14930   3.989   5.059   8.587 -0.1081 -0.6958  1.0639
  137OSM   H17T14931   3.929   5.208   8.669  3.2720  0.8510  1.6342
  137OSM   C18S14932   4.116   5.226   8.562 -0.4063  0.3638  0.5131
  137OSM   H18S14933   4.181   5.183   8.482 -0.7423  1.8727 -0.6165
  137OSM   H18T14934   4.175   5.216   8.656 -0.6750  1.0928  0.7597
  137OSM   H18U14935   4.098   5.333   8.540  1.4142  1.0405  2.0256
  137OSM    C1F14936   4.194   5.074   6.936  0.6500 -0.4402 -0.2345
  137OSM     OF14937   4.185   5.143   6.838  0.1496 -0.4061  0.2593
  137OSM    C2F14938   4.304   5.096   7.037  0.1728 -0.3206 -0.6026
  137OSM    H2F14939   4.405   5.107   6.993  0.0538 -1.6099 -1.2328
  137OSM    H2G14940   4.314   5.003   7.097  1.5109 -0.4230 -0.9502
  137OSM    C3F14941   4.282   5.208   7.137 -0.9837  0.1361  0.3743
  137OSM    H3F14942   4.268   5.311   7.097  0.9043  0.3266  0.1024
  137OSM    H3G14943   4.371   5.211   7.204  0.8436  0.1371 -1.9069
  137OSM    C4F14944   4.162   5.188   7.227 -0.0618  0.2613  0.0675
  137OSM    H4F14945   4.173   5.104   7.299  1.0385  1.1950  1.0379
  137OSM    H4G14946   4.069   5.161   7.174 -1.4154  0.0585  2.4020
  137OSM    C5F14947   4.133   5.311   7.312  0.0768 -0.2520 -0.1767
  137OSM    H5F14948   4.106   5.398   7.248 -1.6736  1.6698  2.9242
  137OSM    H5G14949   4.228   5.343   7.360 -0.3586 -1.0321  1.2741
  137OSM    C6F14950   4.036   5.292   7.430  0.2393 -0.4712 -0.5742
  137OSM    H6F14951   4.061   5.202   7.490 -1.3818  0.1404  1.1499
  137OSM    H6G14952   3.937   5.254   7.397 -0.9593  0.8531  1.2609
  137OSM    C7F14953   4.031   5.424   7.513 -0.4701 -0.8382  0.2125
  137OSM    H7F14954   3.928   5.467   7.511 -0.8188 -1.6373  0.4321
  137OSM    H7G14955   4.100   5.499   7.468 -0.2374 -0.8573  0.5314
  137OSM    C8F14956   4.068   5.389   7.654  0.2925  0.9300 -0.9035
  137OSM    H8F14957   4.163   5.332   7.646  0.5838  0.8344  2.0162
  137OSM    H8G14958   3.987   5.323   7.692 -0.5404  2.1203 -0.5334
  137OSM    C9F14959   4.082   5.517   7.738 -0.2494  0.3122 -0.3123
  137OSM    H9F14960   4.016   5.603   7.719  0.5479  1.9055  3.2878
  137OSM   C10F14961   4.171   5.539   7.835  0.5206 -0.1427  0.5080
  137OSM   H10F14962   4.166   5.638   7.883  0.0692 -0.0790  0.3329
  137OSM   C11F14963   4.283   5.440   7.877 -0.1518 -0.3130  0.0072
  137OSM   H11F14964   4.381   5.474   7.838 -0.9784  0.2507 -1.7160
  137OSM   H11G14965   4.268   5.343   7.824  2.0277 -1.0582  0.6679
  137OSM   C12F14966   4.304   5.409   8.027  0.1574  0.8477 -0.4475
  137OSM   H12F14967   4.385   5.334   8.039 -0.1480  0.5508 -0.2172
  137OSM   H12G14968   4.215   5.369   8.080 -0.7441  1.6116 -1.3521
  137OSM   C13F14969   4.350   5.531   8.107 -0.2495  0.3308  0.5083
  137OSM   H13F14970   4.269   5.606   8.117  0.0980  0.8631 -0.5504
  137OSM   H13G14971   4.444   5.568   8.059 -0.6219 -2.8941 -3.1739
  137OSM   C14F14972   4.393   5.492   8.247  0.1050  0.4757 -0.4342
  137OSM   H14F14973   4.461   5.404   8.238 -0.8953 -0.3843  0.1027
  137OSM   H14G14974   4.293   5.469   8.291 -0.3372 -0.4628 -1.8338
  137OSM   C15F14975   4.475   5.601   8.327 -0.2085  0.5905  0.5626
  137OSM   H15F14976   4.406   5.688   8.334  2.2192  2.5027  2.5396
  137OSM   H15G14977   4.560   5.633   8.264  0.2855  0.3163  1.0825
  137OSM   C16F14978   4.511   5.546   8.468  0.1912  0.2579  0.2990
  137OSM   H16F14979   4.594   5.614   8.496 -0.2993  1.9906 -2.0980
  137OSM   H16G14980   4.548   5.442   8.459 -0.2846  0.1494 -0.5762
  137OSM   C17F14981   4.384   5.564   8.554 -0.1131 -0.5333 -0.2540
  137OSM   H17F14982   4.290   5.521   8.515 -0.8737  0.2881  0.6297
  137OSM   H17G14983   4.373   5.673   8.571 -0.0207 -0.2403 -1.9368
  137OSM   C18F14984   4.396   5.506   8.690  0.1468  0.0966 -0.6753
  137OSM   H18F14985   4.494   5.537   8.730 -0.6185  1.5615  0.1367
  137OSM   H18G14986   4.395   5.395   8.694 -1.2626  0.1206  0.5319
  137OSM   H18H14987   4.325   5.549   8.764  1.6414  1.8786 -0.2074
  138OSM      N14988   5.926   0.063   6.239 -0.0464  0.6213 -0.4208
  138OSM    C1514989   5.899   0.183   6.330 -0.0834  0.3279 -0.0935
  138OSM   H15A14990   5.852   0.155   6.422  1.1663  1.5344  0.9617
  138OSM   H15B14991   5.834   0.249   6.274 -1.6138 -0.2129  1.0022
  138OSM   H15C14992   5.996   0.224   6.354  0.6351 -1.9367  1.1140
  138OSM    C1414993   6.031  -0.014   6.306  0.2669  0.4621 -0.8941
  138OSM   H14A14994   6.048  -0.103   6.247 -0.6589 -2.8460  3.2471
  138OSM   H14B14995   6.011  -0.058   6.403 -2.9248 -1.2340 -2.1592
  138OSM   H14C14996   6.125   0.038   6.307 -0.1512  1.3630 -2.9770
  138OSM    C1314997   5.798  -0.018   6.220  0.2429 -0.1829 -0.3117
  138OSM   H13A14998   5.781  -0.079   6.308  0.9400  1.5989  1.1503
  138OSM   H13B14999   5.807  -0.082   6.134 -0.1585 -0.0959 -0.4197
  138OSM   H13C15000   5.723   0.059   6.205  4.3443  4.3395 -0.2467
  138OSM    C1215001   5.974   0.117   6.105 -0.1177  0.1385 -0.0238
  138OSM   H12A15002   5.900   0.188   6.072  0.9776  1.4781  0.3124
  138OSM   H12B15003   5.968   0.043   6.027  0.3758  1.5367 -1.4472
  138OSM    C1115004   6.108   0.183   6.093 -0.2991  0.3506  0.3044
  138OSM   H11A15005   6.144   0.181   5.988 -1.1482 -2.2774 -0.0068
  138OSM   H11B15006   6.187   0.119   6.137 -0.1980  0.9149  0.9573
  138OSM      P15007   6.101   0.438   6.072 -0.2395  0.3555 -0.1975
  138OSM    O1315008   6.208   0.433   5.972 -0.3625  0.3491  0.0196
  138OSM    O1415009   5.959   0.441   6.037  0.2301  0.4721  0.2305
  138OSM    O1115010   6.140   0.545   6.176  0.3195 -0.3091 -0.6448
  138OSM    O1215011   6.124   0.306   6.161 -0.4967  0.0332  0.6674
  138OSM    C1S15012   6.072   0.537   6.308 -0.5448  0.1479  0.4975
  138OSM    H1S15013   6.016   0.442   6.326 -0.7910 -0.3695 -2.5365
  138OSM    H1T15014   6.018   0.632   6.325 -0.2298  0.9048 -2.3548
  138OSM     NF15015   6.114   0.551   6.552 -0.4555 -1.2529  0.5432
  138OSM    HNF15016   6.099   0.636   6.602  0.4453 -1.3665  1.0496
  138OSM    C2S15017   6.178   0.558   6.423 -0.2284 -0.3852  0.0345
  138OSM    H2S15018   6.254   0.477   6.428  0.6475  0.5039  2.3119
  138OSM    C3S15019   6.257   0.694   6.398 -0.1581  0.1666 -0.5631
  138OSM    H3S15020   6.177   0.771   6.402  1.3873  1.7732  1.2025
  138OSM     O315021   6.324   0.712   6.273 -0.3754 -0.5520 -0.0416
  138OSM    HO315022   6.271   0.653   6.218 -0.2820 -1.4986  0.8583
  138OSM    C4S15023   6.342   0.723   6.525 -0.7211  0.2016  0.2307
  138OSM    H4S15024   6.405   0.640   6.561 -0.5444  0.1152 -0.2795
  138OSM    C5S15025   6.356   0.850   6.574  0.3877  0.6121  0.6665
  138OSM    H5S15026   6.307   0.931   6.518 -1.6721 -1.0967 -0.1195
  138OSM    C6S15027   6.431   0.886   6.693 -0.0697  0.2289 -0.1445
  138OSM    H6S15028   6.364   0.922   6.774  0.2872  2.3009 -0.7206
  138OSM    H6T15029   6.498   0.971   6.670  1.0694 -1.0554 -1.8549
  138OSM    C7S15030   6.528   0.785   6.757 -0.2130  0.5650 -0.0589
  138OSM    H7S15031   6.598   0.742   6.683  0.0241 -1.6358  1.3490
  138OSM    H7T15032   6.491   0.684   6.788  1.8152 -0.4638 -0.8109
  138OSM    C8S15033   6.589   0.852   6.876 -0.1847  0.4572  0.3419
  138OSM    H8S15034   6.514   0.921   6.921  0.2874  3.2078 -2.6986
  138OSM    H8T15035   6.679   0.912   6.851 -1.9862  2.1115 -2.9413
  138OSM    C9S15036   6.621   0.741   6.982 -0.7737 -0.2207 -0.3499
  138OSM    H9S15037   6.676   0.662   6.927 -0.3715  0.4961 -1.0007
  138OSM    H9T15038   6.525   0.693   7.008 -1.5631  1.6745  0.3768
  138OSM   C10S15039   6.691   0.783   7.111 -0.4744  0.6230 -0.2460
  138OSM   H10S15040   6.618   0.806   7.192  0.1973  1.4281  0.1407
  138OSM   H10T15041   6.757   0.868   7.084  0.8601 -0.5689 -0.8697
  138OSM   C11S15042   6.797   0.671   7.161  0.0522  0.7255  0.2195
  138OSM   H11S15043   6.881   0.657   7.090  1.5498 -0.9149  2.2137
  138OSM   H11T15044   6.739   0.577   7.159  1.5327 -0.2762  1.7982
  138OSM   C12S15045   6.850   0.681   7.305 -0.0401 -0.4824 -0.1373
  138OSM   H12S15046   6.900   0.780   7.317 -0.4439 -0.0389 -1.8722
  138OSM   H12T15047   6.926   0.601   7.311  0.7666  0.0632 -2.3339
  138OSM   C13S15048   6.749   0.663   7.411  0.1480 -0.1622  0.0374
  138OSM   H13S15049   6.701   0.564   7.394  0.7626 -0.0821 -2.7208
  138OSM   H13T15050   6.661   0.730   7.399 -0.9945 -1.4005  1.1699
  138OSM   C14S15051   6.802   0.682   7.562  0.4843  0.2811 -0.5383
  138OSM   H14S15052   6.851   0.781   7.577 -1.7153  1.2511  0.6545
  138OSM   H14T15053   6.880   0.609   7.591  0.8781  0.5557 -0.8875
  138OSM   C15S15054   6.684   0.690   7.665  0.4696  0.4061 -0.5460
  138OSM   H15S15055   6.606   0.614   7.642 -1.2662  2.2876 -1.1551
  138OSM   H15T15056   6.640   0.790   7.646  3.1923  2.0300  1.0501
  138OSM   C16S15057   6.730   0.661   7.807  0.1143 -0.2572 -0.9256
  138OSM   H16S15058   6.810   0.735   7.830 -1.5536  1.2420  0.2940
  138OSM   H16T15059   6.778   0.561   7.812 -1.7546 -1.1349  1.3742
  138OSM   C17S15060   6.626   0.661   7.915 -0.1301 -0.5920  0.1990
  138OSM   H17S15061   6.651   0.594   7.999 -1.4578  0.1076  1.1843
  138OSM   H17T15062   6.535   0.619   7.868 -0.1335 -0.0368 -0.3102
  138OSM   C18S15063   6.589   0.799   7.971 -0.2145 -0.1307  0.1682
  138OSM   H18S15064   6.518   0.797   8.056  1.9744 -0.1874  2.1129
  138OSM   H18T15065   6.558   0.864   7.887 -2.5388 -0.6000  0.5928
  138OSM   H18U15066   6.683   0.837   8.018 -0.9537 -2.8131  4.3264
  138OSM    C1F15067   6.040   0.442   6.600  0.1204  0.3743  0.3177
  138OSM     OF15068   6.058   0.329   6.549  0.2395 -0.1289  0.4619
  138OSM    C2F15069   5.933   0.465   6.700 -0.1119  0.0164 -0.2817
  138OSM    H2F15070   5.837   0.425   6.661 -1.5235  2.9502 -0.1264
  138OSM    H2G15071   5.922   0.574   6.722  0.1723  0.0822 -0.4644
  138OSM    C3F15072   5.950   0.376   6.825 -0.4554 -0.6253  0.0957
  138OSM    H3F15073   6.050   0.401   6.865 -0.6922  0.3004  0.1361
  138OSM    H3G15074   5.947   0.267   6.809 -1.7449 -0.5654 -0.2445
  138OSM    C4F15075   5.844   0.399   6.934 -0.2644 -0.8993 -0.6370
  138OSM    H4F15076   5.750   0.358   6.892 -0.3489  1.0437 -2.5673
  138OSM    H4G15077   5.819   0.507   6.945  2.5015 -0.2150 -0.2633
  138OSM    C5F15078   5.884   0.341   7.074 -0.2714  0.0989  0.0721
  138OSM    H5F15079   5.976   0.388   7.114  2.0798 -2.6124 -1.7443
  138OSM    H5G15080   5.919   0.239   7.047  1.5562  0.2106  1.7796
  138OSM    C6F15081   5.772   0.343   7.181 -0.5405  0.2929 -0.1517
  138OSM    H6F15082   5.685   0.282   7.149 -0.2747 -1.8521  2.7399
  138OSM    H6G15083   5.740   0.448   7.189  2.0077  1.0325  1.6580
  138OSM    C7F15084   5.812   0.297   7.319  0.1658 -0.5399 -0.0012
  138OSM    H7F15085   5.897   0.227   7.301  0.7517  0.4274 -1.1539
  138OSM    H7G15086   5.728   0.236   7.357  1.1534 -1.5139  0.7095
  138OSM    C8F15087   5.845   0.413   7.418  0.4822  0.2923 -0.6905
  138OSM    H8F15088   5.931   0.466   7.371  1.3608  0.0917  0.6244
  138OSM    H8G15089   5.887   0.361   7.507 -1.7276 -0.4322 -0.0129
  138OSM    C9F15090   5.734   0.502   7.471  0.1187  0.4570 -0.1884
  138OSM    H9F15091   5.706   0.584   7.402  0.8837  0.7879 -0.1182
  138OSM   C10F15092   5.665   0.477   7.588 -0.6319 -0.2863 -0.4039
  138OSM   H10F15093   5.593   0.557   7.611  1.0650  1.1840  0.0337
  138OSM   C11F15094   5.657   0.370   7.687  0.1188  0.6484 -0.9504
  138OSM   H11F15095   5.744   0.301   7.681  0.1241  0.5911 -0.2366
  138OSM   H11G15096   5.569   0.306   7.665 -0.2579  0.7885  0.1014
  138OSM   C12F15097   5.663   0.422   7.833 -0.3516  0.6207  0.1327
  138OSM   H12F15098   5.626   0.335   7.892 -0.8870  0.0062 -1.0695
  138OSM   H12G15099   5.575   0.488   7.847 -2.3592 -1.7563 -0.5831
  138OSM   C13F15100   5.804   0.485   7.870  0.0391 -0.2865 -0.4575
  138OSM   H13F15101   5.820   0.543   7.776 -1.6586  1.8010  0.4767
  138OSM   H13G15102   5.879   0.403   7.869  0.3755  0.0033 -2.0557
  138OSM   C14F15103   5.807   0.581   7.988  0.4191  0.3616  0.2220
  138OSM   H14F15104   5.787   0.529   8.083  0.6601  1.0900  0.6842
  138OSM   H14G15105   5.737   0.665   7.970 -0.7871 -0.3828  1.3526
  138OSM   C15F15106   5.952   0.644   8.000  0.3756 -0.0408 -0.4832
  138OSM   H15F15107   5.956   0.735   8.063 -2.4513 -0.0965 -0.0740
  138OSM   H15G15108   5.967   0.697   7.903  1.6036  2.4187  0.9573
  138OSM   C16F15109   6.063   0.543   8.042  0.1390 -0.4680  0.1159
  138OSM   H16F15110   6.155   0.600   8.018  0.1838 -1.0276 -1.1430
  138OSM   H16G15111   6.065   0.451   7.981 -0.7445 -2.5466  3.0260
  138OSM   C17F15112   6.053   0.504   8.187 -0.1518 -0.7728  0.3362
  138OSM   H17F15113   5.993   0.412   8.202 -1.2199  0.1635  2.1276
  138OSM   H17G15114   6.011   0.588   8.247  0.8245 -1.0701  1.4770
  138OSM   C18F15115   6.191   0.469   8.245 -0.0014 -0.3699  0.3587
  138OSM   H18F15116   6.226   0.376   8.196 -2.6078 -0.4350 -1.5787
  138OSM   H18G15117   6.191   0.455   8.356  0.3716  0.6554  0.5067
  138OSM   H18H15118   6.263   0.549   8.217  1.0628 -1.0635  1.0382
  139OSM      N15119   4.052   0.033   6.105 -0.9976 -0.1184 -0.5535
  139OSM    C1515120   4.137  -0.051   6.015  1.3872 -0.2090 -0.5158
  139OSM   H15A15121   4.111  -0.156   6.007  0.7747  0.0152 -1.9696
  139OSM   H15B15122   4.239  -0.063   6.047  1.5143 -0.9936 -1.1747
  139OSM   H15C15123   4.143  -0.008   5.916  2.2505  1.1661  0.0985
  139OSM    C1415124   4.107   0.172   6.113  0.7761  0.2273  0.4220
  139OSM   H14A15125   4.139   0.208   6.016  0.6087  0.6221  0.5088
  139OSM   H14B15126   4.195   0.175   6.175 -0.0945  1.0851  1.6591
  139OSM   H14C15127   4.038   0.242   6.157  0.2561 -0.8581  1.3706
  139OSM    C1315128   3.911   0.041   6.058  0.2050 -0.7197  0.4962
  139OSM   H13A15129   3.881  -0.062   6.044  0.8290 -0.6086 -2.2982
  139OSM   H13B15130   3.901   0.092   5.963  0.0716 -3.0334 -0.8196
  139OSM   H13C15131   3.840   0.084   6.126  2.2189  2.6259  0.6886
  139OSM    C1215132   4.063  -0.029   6.246  0.1714 -0.4139 -0.1078
  139OSM   H12A15133   4.148   0.005   6.302  0.3178  0.8065 -1.0119
  139OSM   H12B15134   4.086  -0.132   6.224  0.9852 -0.5946  1.4642
  139OSM    C1115135   3.943  -0.015   6.344  0.0568 -0.8426  0.1422
  139OSM   H11A15136   3.929   0.095   6.347 -1.1573 -0.9336 -1.0863
  139OSM   H11B15137   3.959  -0.049   6.448 -2.0408  2.7081  1.8081
  139OSM      P15138   3.682  -0.031   6.327  0.0846 -0.0755 -0.2781
  139OSM    O1315139   3.655   0.101   6.276  0.1466  0.4990 -0.0683
  139OSM    O1415140   3.580  -0.138   6.289  0.2064  0.0106 -0.3312
  139OSM    O1115141   3.691  -0.034   6.487 -0.1924 -0.5846  0.1812
  139OSM    O1215142   3.829  -0.081   6.287 -0.3765 -0.1956  0.1837
  139OSM    C1S15143   3.579   0.027   6.552  0.3272  0.7698 -0.3696
  139OSM    H1S15144   3.490  -0.039   6.550  1.2776 -0.5476 -0.2413
  139OSM    H1T15145   3.541   0.122   6.507 -0.5178  0.6855  0.1499
  139OSM     NF15146   3.513   0.097   6.789  0.1228  0.1841  0.1413
  139OSM    HNF15147   3.510   0.189   6.827 -0.4933 -0.6233  2.1652
  139OSM    C2S15148   3.620   0.064   6.698 -0.0308  0.0991 -0.7649
  139OSM    H2S15149   3.669  -0.025   6.743 -1.2806 -1.0037 -1.5256
  139OSM    C3S15150   3.740   0.162   6.697  0.0726  0.0139  0.5332
  139OSM    H3S15151   3.687   0.259   6.685 -2.5841 -1.3501  0.3544
  139OSM     O315152   3.836   0.141   6.592  0.0943 -0.1123 -0.0475
  139OSM    HO315153   3.795   0.066   6.548  0.3229 -0.7498  0.7989
  139OSM    C4S15154   3.809   0.164   6.831 -0.4477 -0.4469  0.2234
  139OSM    H4S15155   3.742   0.222   6.896 -1.9114  0.0465 -1.6418
  139OSM    C5S15156   3.901   0.085   6.883  0.4590 -1.1652  0.0684
  139OSM    H5S15157   3.937   0.009   6.812 -1.6672 -0.0777 -2.3651
  139OSM    C6S15158   3.962   0.086   7.019 -0.4635 -0.1512 -0.5654
  139OSM    H6S15159   4.068   0.117   7.016 -0.4914  0.1552  0.8384
  139OSM    H6T15160   3.962  -0.014   7.069  0.4561  0.4196  0.6229
  139OSM    C7S15161   3.899   0.183   7.130  0.3386 -0.5353 -0.4265
  139OSM    H7S15162   3.789   0.169   7.140  0.3379  0.3414  1.0827
  139OSM    H7T15163   3.914   0.288   7.097  1.8506 -0.5525  0.1349
  139OSM    C8S15164   3.974   0.163   7.264 -0.7525  1.0706 -0.2255
  139OSM    H8S15165   4.081   0.184   7.245 -0.3879 -0.5868 -0.1646
  139OSM    H8T15166   3.969   0.055   7.291  1.1440  1.4182  1.8064
  139OSM    C9S15167   3.901   0.239   7.379 -0.4577  0.9997  0.8508
  139OSM    H9S15168   3.828   0.183   7.441  0.5652 -1.7984 -0.2754
  139OSM    H9T15169   3.843   0.321   7.332 -2.2142 -0.2920  0.6523
  139OSM   C10S15170   4.009   0.294   7.468  0.5883 -0.4108  0.0632
  139OSM   H10S15171   4.061   0.380   7.419  1.3400  1.3586  3.6487
  139OSM   H10T15172   4.076   0.209   7.495  1.2119 -1.0140 -2.9971
  139OSM   C11S15173   3.951   0.364   7.596  0.4504  0.5368 -0.6040
  139OSM   H11S15174   3.885   0.307   7.664 -0.4203  2.3638  0.1367
  139OSM   H11T15175   3.878   0.435   7.552 -3.4027 -2.9711 -0.4361
  139OSM   C12S15176   4.046   0.437   7.691  0.2763  0.4724 -0.0255
  139OSM   H12S15177   4.126   0.478   7.626  0.8880 -1.0874 -0.2863
  139OSM   H12T15178   4.091   0.357   7.753 -0.1266 -0.1506 -0.5252
  139OSM   C13S15179   3.985   0.546   7.767  0.1996  0.0356 -0.6264
  139OSM   H13S15180   3.882   0.515   7.796  0.4106  2.2038  3.0017
  139OSM   H13T15181   3.976   0.638   7.705  0.1680  0.0433 -0.6103
  139OSM   C14S15182   4.062   0.582   7.889  0.7138  0.4892 -0.4535
  139OSM   H14S15183   4.155   0.643   7.881 -0.4618  2.1746 -2.3366
  139OSM   H14T15184   4.079   0.494   7.954 -0.7028  1.5906  1.5323
  139OSM   C15S15185   3.975   0.673   7.975 -0.0406 -0.7238 -0.4047
  139OSM   H15S15186   3.885   0.625   8.018 -1.2653  3.0269  1.6249
  139OSM   H15T15187   3.943   0.763   7.918  0.2864 -1.1604 -1.2978
  139OSM   C16S15188   4.043   0.722   8.106  0.1869  0.0920 -0.1941
  139OSM   H16S15189   4.124   0.798   8.094  1.6176 -1.5380 -1.4178
  139OSM   H16T15190   4.092   0.635   8.154 -1.9266  0.2190  2.3509
  139OSM   C17S15191   3.949   0.776   8.215 -0.3416 -0.0138  0.0144
  139OSM   H17S15192   4.007   0.773   8.310 -1.6401 -0.9796  0.8180
  139OSM   H17T15193   3.865   0.703   8.223 -0.5551  0.1572 -0.6874
  139OSM   C18S15194   3.902   0.919   8.191  0.6955  0.1492 -0.0924
  139OSM   H18S15195   3.881   0.923   8.082  2.4401 -0.6544 -0.4984
  139OSM   H18T15196   3.984   0.994   8.197 -0.7243  1.6382  2.1804
  139OSM   H18U15197   3.815   0.952   8.251 -0.8827 -1.5431 -1.3267
  139OSM    C1F15198   3.420   0.007   6.819 -0.2109  1.0236 -0.4898
  139OSM     OF15199   3.424  -0.108   6.773 -0.3600 -0.0313 -0.2978
  139OSM    C2F15200   3.312   0.045   6.915  0.3010  0.0573 -0.0515
  139OSM    H2F15201   3.242   0.117   6.867 -1.1657  0.8148  2.9215
  139OSM    H2G15202   3.363   0.098   6.999  2.2634  0.2127 -1.2988
  139OSM    C3F15203   3.226  -0.077   6.952 -0.5450  0.0738 -0.3618
  139OSM    H3F15204   3.293  -0.153   6.998 -1.1760 -0.0512  0.3714
  139OSM    H3G15205   3.185  -0.126   6.862  1.6660  0.7781 -1.8373
  139OSM    C4F15206   3.124  -0.040   7.059 -0.2089  0.2079 -0.0382
  139OSM    H4F15207   3.050   0.036   7.026  0.4644  1.3176  0.9221
  139OSM    H4G15208   3.175   0.010   7.145  1.0067  2.0562 -1.7375
  139OSM    C5F15209   3.042  -0.152   7.117  0.2247 -0.8245 -0.1640
  139OSM    H5F15210   3.111  -0.223   7.167  2.7757  2.0161  0.6543
  139OSM    H5G15211   2.988  -0.211   7.039  0.0703 -1.7467  0.6321
  139OSM    C6F15212   2.932  -0.097   7.203  0.3848 -0.3162  0.4425
  139OSM    H6F15213   2.863  -0.034   7.143 -0.6962  0.0034  1.9638
  139OSM    H6G15214   2.970  -0.031   7.283  2.1415 -2.0952  1.1522
  139OSM    C7F15215   2.845  -0.210   7.267  1.0331 -0.3348 -0.2015
  139OSM    H7F15216   2.850  -0.307   7.213 -1.7240 -0.3600 -0.5843
  139OSM    H7G15217   2.741  -0.171   7.261  1.0770 -0.3867 -1.6926
  139OSM    C8F15218   2.878  -0.244   7.418  0.5499 -0.3647 -0.0052
  139OSM    H8F15219   2.815  -0.328   7.452 -0.1200 -0.4629 -1.3838
  139OSM    H8G15220   2.835  -0.154   7.468  1.7895  1.1597 -1.5359
  139OSM    C9F15221   3.016  -0.280   7.456  0.3715 -0.6623 -0.0162
  139OSM    H9F15222   3.087  -0.300   7.374 -0.7468 -2.5444 -0.5895
  139OSM   C10F15223   3.063  -0.313   7.583 -0.6614 -0.8392 -0.2231
  139OSM   H10F15224   3.166  -0.349   7.593 -0.6203 -0.1296  2.5208
  139OSM   C11F15225   2.978  -0.323   7.702  0.1588 -0.1226  0.2085
  139OSM   H11F15226   2.979  -0.426   7.744 -1.6356 -0.7053 -1.0615
  139OSM   H11G15227   2.874  -0.297   7.676  0.5224  0.2209 -0.9331
  139OSM   C12F15228   3.016  -0.209   7.811 -0.0143  0.4619  0.2684
  139OSM   H12F15229   3.127  -0.205   7.819 -0.0079  1.7366 -0.2760
  139OSM   H12G15230   2.978  -0.248   7.907 -0.9813 -0.8930 -0.6194
  139OSM   C13F15231   2.960  -0.077   7.764 -0.0777  0.2573  0.0953
  139OSM   H13F15232   2.866  -0.094   7.708 -0.0218  2.2248 -0.6860
  139OSM   H13G15233   3.028  -0.035   7.686  0.8735 -1.3188  0.0274
  139OSM   C14F15234   2.938   0.018   7.879 -0.1107 -0.6234 -0.6628
  139OSM   H14F15235   2.924   0.121   7.839 -0.9995  0.2677  1.7334
  139OSM   H14G15236   3.031   0.021   7.940 -0.7403 -0.5586  0.3078
  139OSM   C15F15237   2.818  -0.021   7.969 -0.3289  0.4065  0.9019
  139OSM   H15F15238   2.829  -0.129   7.994 -0.0635  0.5070  1.2147
  139OSM   H15G15239   2.727   0.000   7.908  1.4366  2.9246 -1.0181
  139OSM   C16F15240   2.802   0.061   8.105 -0.5181 -1.3602 -0.5255
  139OSM   H16F15241   2.796   0.169   8.079 -0.0580 -1.4184 -0.8843
  139OSM   H16G15242   2.900   0.057   8.158 -1.3605 -0.3687  1.2001
  139OSM   C17F15243   2.680   0.015   8.194 -0.1499 -0.7611  0.6515
  139OSM   H17F15244   2.685  -0.095   8.203  1.2302 -0.7802 -0.0989
  139OSM   H17G15245   2.583   0.053   8.157 -0.6546  0.2563  2.8556
  139OSM   C18F15246   2.679   0.075   8.331 -0.7512  0.3172 -0.7961
  139OSM   H18F15247   2.656   0.183   8.319 -2.8944 -0.3189 -3.3956
  139OSM   H18G15248   2.777   0.057   8.381  0.9634  1.5080 -3.4513
  139OSM   H18H15249   2.605   0.031   8.400 -0.4159  0.6735 -0.1974
  140OSM      N15250   3.086   3.752   6.019 -0.5234 -0.0202 -0.0692
  140OSM    C1515251   3.035   3.652   5.914 -0.2514 -0.5808  0.5702
  140OSM   H15A15252   3.054   3.547   5.932 -1.1365 -0.7135  0.7879
  140OSM   H15B15253   3.074   3.679   5.817 -0.8945 -0.8854  0.2116
  140OSM   H15C15254   2.927   3.651   5.911 -0.2534 -0.2879  0.4929
  140OSM    C1415255   3.236   3.727   6.034 -0.1915  0.2378  0.1618
  140OSM   H14A15256   3.288   3.747   5.941 -1.8321 -2.2695 -1.4196
  140OSM   H14B15257   3.255   3.622   6.054 -1.4193 -0.0080  0.1005
  140OSM   H14C15258   3.286   3.780   6.113  1.1106 -1.5226  0.5975
  140OSM    C1315259   3.065   3.893   5.960  0.4393 -0.1531 -0.0585
  140OSM   H13A15260   3.096   3.953   6.044  2.5558 -1.0016 -0.1555
  140OSM   H13B15261   2.959   3.906   5.946  0.2963 -0.6846  0.4760
  140OSM   H13C15262   3.127   3.907   5.872  1.2635 -0.9448  0.3735
  140OSM    C1215263   3.014   3.734   6.149  0.3178 -0.3710  0.1590
  140OSM   H12A15264   3.069   3.797   6.218 -0.3027 -1.3161  1.5639
  140OSM   H12B15265   3.025   3.633   6.183  0.5359 -0.7549 -1.0071
  140OSM    C1115266   2.864   3.769   6.145  0.1647  0.2689  0.0259
  140OSM   H11A15267   2.819   3.723   6.055  0.3746  0.1366 -0.0128
  140OSM   H11B15268   2.850   3.878   6.135  3.0688  0.6856 -0.4078
  140OSM      P15269   2.779   3.582   6.314  0.3042 -0.0960 -0.3893
  140OSM    O1315270   2.638   3.542   6.295  0.0402  0.1301  0.0840
  140OSM    O1415271   2.876   3.491   6.253  0.1827  0.2454  0.2248
  140OSM    O1115272   2.797   3.580   6.471 -0.0076  0.6716 -0.4510
  140OSM    O1215273   2.796   3.730   6.275 -0.0503 -0.4796  0.2675
  140OSM    C1S15274   2.761   3.467   6.557 -0.0508 -0.1767 -0.2849
  140OSM    H1S15275   2.848   3.399   6.562  1.2666  1.4791  0.2131
  140OSM    H1T15276   2.672   3.413   6.519  0.4916  0.0097 -1.9198
  140OSM     NF15277   2.742   3.414   6.800  0.6330  0.1106  0.5282
  140OSM    HNF15278   2.656   3.375   6.832  0.0763  0.0663 -0.9108
  140OSM    C2S15279   2.722   3.514   6.700  0.3832 -0.8180 -0.4319
  140OSM    H2S15280   2.796   3.594   6.723  0.3443 -1.0252  0.4558
  140OSM    C3S15281   2.587   3.583   6.704 -0.2760  0.7426 -0.3312
  140OSM    H3S15282   2.512   3.510   6.663  0.1893  0.1605 -0.1575
  140OSM     O315283   2.586   3.692   6.616  0.2136 -0.3130 -1.3416
  140OSM    HO315284   2.661   3.687   6.556  1.3732  0.9749 -0.0718
  140OSM    C4S15285   2.543   3.626   6.835 -0.1371  0.2973 -0.3094
  140OSM    H4S15286   2.603   3.708   6.877  0.2543 -0.2151  0.1411
  140OSM    C5S15287   2.430   3.583   6.896  0.4460  0.2952 -0.8431
  140OSM    H5S15288   2.361   3.510   6.853  0.0279 -0.2785  0.7453
  140OSM    C6S15289   2.380   3.643   7.033 -0.9483 -0.1282  0.2967
  140OSM    H6S15290   2.269   3.643   7.039 -0.9934 -0.0066 -0.4628
  140OSM    H6T15291   2.406   3.751   7.034  0.2950 -0.3958 -0.8885
  140OSM    C7S15292   2.427   3.557   7.154 -0.3879 -0.4037 -0.2912
  140OSM    H7S15293   2.538   3.549   7.158 -0.4180 -0.8679  3.4376
  140OSM    H7T15294   2.403   3.448   7.148 -0.6651 -0.2858 -1.7905
  140OSM    C8S15295   2.380   3.612   7.289 -0.1637 -0.6007  0.7210
  140OSM    H8S15296   2.270   3.614   7.281 -0.1731  1.2966  0.9023
  140OSM    H8T15297   2.414   3.714   7.316 -0.0766  0.1054 -1.7812
  140OSM    C9S15298   2.410   3.525   7.408  0.4786  0.4476  0.0569
  140OSM    H9S15299   2.519   3.500   7.409  0.9944  2.4914  2.2771
  140OSM    H9T15300   2.362   3.425   7.405  2.4356 -0.5527  0.3717
  140OSM   C10S15301   2.368   3.592   7.540  0.3669 -0.9699 -0.4540
  140OSM   H10S15302   2.258   3.603   7.543  0.4397 -0.3654  1.8471
  140OSM   H10T15303   2.412   3.694   7.543  1.6022 -1.4696 -0.8061
  140OSM   C11S15304   2.417   3.503   7.650  0.3007 -0.5579 -0.8966
  140OSM   H11S15305   2.525   3.478   7.644  0.1901 -1.9801  1.5624
  140OSM   H11T15306   2.351   3.414   7.645 -1.1044  0.2829  1.1177
  140OSM   C12S15307   2.410   3.564   7.789  0.1072 -0.6116 -0.1362
  140OSM   H12S15308   2.474   3.653   7.800  0.4860 -0.9003  0.0213
  140OSM   H12T15309   2.451   3.488   7.859 -0.6078 -2.3322 -1.4846
  140OSM   C13S15310   2.265   3.582   7.843  0.3353  0.7743 -0.2130
  140OSM   H13S15311   2.221   3.480   7.848  1.4960  0.3254  1.9890
  140OSM   H13T15312   2.194   3.635   7.776 -0.1242  0.7290  0.2302
  140OSM   C14S15313   2.259   3.652   7.984  0.1987 -0.2119  0.0789
  140OSM   H14S15314   2.306   3.751   7.965  0.0871 -0.4358 -1.5486
  140OSM   H14T15315   2.326   3.609   8.061 -2.1417 -0.4010  2.1661
  140OSM   C15S15316   2.120   3.678   8.054 -0.6862  0.4544  1.4772
  140OSM   H15S15317   2.066   3.744   7.983  2.6367 -1.0286 -2.9174
  140OSM   H15T15318   2.151   3.744   8.138 -0.6238 -2.5786  4.0035
  140OSM   C16S15319   2.035   3.553   8.071 -0.4080 -0.6084  0.6344
  140OSM   H16S15320   2.106   3.480   8.114  0.2842 -1.8332 -2.3522
  140OSM   H16T15321   2.002   3.510   7.974 -0.0583 -2.5567  1.3363
  140OSM   C17S15322   1.913   3.583   8.157 -0.3919 -0.6370 -0.5420
  140OSM   H17S15323   1.850   3.664   8.115  0.8677  1.4345  1.3032
  140OSM   H17T15324   1.938   3.600   8.264 -1.6235  0.9210 -0.4536
  140OSM   C18S15325   1.818   3.464   8.168 -0.1858  0.4486 -0.1524
  140OSM   H18S15326   1.798   3.425   8.066  1.3635  1.2826 -0.8134
  140OSM   H18T15327   1.718   3.491   8.208 -0.3350 -0.1947 -0.0803
  140OSM   H18U15328   1.853   3.377   8.228 -3.2165 -0.1842  0.8369
  140OSM    C1F15329   2.854   3.357   6.833 -0.1259 -0.4452  0.5720
  140OSM     OF15330   2.953   3.397   6.781 -0.1258 -0.0510 -0.5333
  140OSM    C2F15331   2.849   3.245   6.926 -0.3829 -0.4054  0.5933
  140OSM    H2F15332   2.829   3.160   6.857  1.1731 -0.2798 -0.0441
  140OSM    H2G15333   2.775   3.255   7.008 -3.5853 -0.0311 -2.1214
  140OSM    C3F15334   2.993   3.233   6.981 -0.2883  0.5236 -0.7399
  140OSM    H3F15335   3.052   3.322   7.011  2.7783 -1.3521 -0.8076
  140OSM    H3G15336   3.059   3.179   6.909  0.7151  0.6520  0.0622
  140OSM    C4F15337   3.008   3.147   7.110  0.1592  0.7927 -0.3458
  140OSM    H4F15338   3.115   3.123   7.122  0.3915  2.0782  0.3641
  140OSM    H4G15339   2.934   3.065   7.105  0.6968  0.3318 -0.7542
  140OSM    C5F15340   2.970   3.224   7.240 -0.2236 -0.0311  0.7358
  140OSM    H5F15341   2.870   3.269   7.226  0.6817  1.9138  0.2102
  140OSM    H5G15342   3.045   3.306   7.235  0.4797 -0.7173 -0.3076
  140OSM    C6F15343   2.988   3.138   7.367  0.2053  0.3705 -0.1409
  140OSM    H6F15344   3.092   3.134   7.405  0.0416 -0.7186  0.2468
  140OSM    H6G15345   2.970   3.032   7.338  0.4168  0.2606  0.1305
  140OSM    C7F15346   2.893   3.184   7.483 -0.4177 -0.5694  0.0548
  140OSM    H7F15347   2.785   3.179   7.460 -1.1597  4.3958  1.4395
  140OSM    H7G15348   2.910   3.294   7.485 -2.2550 -0.2449 -0.7316
  140OSM    C8F15349   2.927   3.131   7.625  0.0836 -0.7327  0.3814
  140OSM    H8F15350   2.940   3.021   7.611 -1.0111 -1.0855  1.8693
  140OSM    H8G15351   2.834   3.151   7.683 -0.5262  1.6864 -1.2730
  140OSM    C9F15352   3.045   3.199   7.689 -0.1723 -0.3372  0.2550
  140OSM    H9F15353   3.081   3.289   7.638 -0.4948  0.5794  1.5779
  140OSM   C10F15354   3.097   3.172   7.808 -0.2035 -0.1879 -0.6631
  140OSM   H10F15355   3.178   3.238   7.841  0.3046 -1.0811 -0.0730
  140OSM   C11F15356   3.046   3.068   7.906 -0.1895 -0.1281  0.3227
  140OSM   H11F15357   3.119   2.985   7.897 -0.0605  0.1426 -1.5163
  140OSM   H11G15358   2.948   3.032   7.868 -0.7305  4.0645 -2.9522
  140OSM   C12F15359   3.043   3.113   8.052  0.2038 -0.1098  0.2603
  140OSM   H12F15360   2.959   3.185   8.064 -2.4400 -3.1500  1.5796
  140OSM   H12G15361   3.140   3.163   8.074 -0.8918  1.2974  2.3193
  140OSM   C13F15362   3.020   2.994   8.150  0.1935 -0.8293 -0.1023
  140OSM   H13F15363   3.103   2.923   8.135  4.7733  3.4099  2.2543
  140OSM   H13G15364   2.919   2.947   8.144  0.1980 -1.0359  1.2792
  140OSM   C14F15365   3.030   3.029   8.299 -0.6816 -0.1389  0.0330
  140OSM   H14F15366   2.943   3.088   8.334 -0.1407  0.8605 -0.2528
  140OSM   H14G15367   3.114   3.100   8.317  2.0503 -3.0246 -0.5409
  140OSM   C15F15368   3.059   2.910   8.390  0.1776  1.1619 -0.3250
  140OSM   H15F15369   3.159   2.873   8.358  0.0071  1.9570 -1.8723
  140OSM   H15G15370   2.991   2.825   8.368 -0.0254  1.1513  0.3335
  140OSM   C16F15371   3.064   2.949   8.540  0.3853 -0.0820  0.4890
  140OSM   H16F15372   3.111   3.049   8.553 -0.3802  0.1799  1.4027
  140OSM   H16G15373   3.136   2.874   8.581 -0.7778 -1.4439  0.1278
  140OSM   C17F15374   2.932   2.921   8.625  0.0402  0.0154 -0.1147
  140OSM   H17F15375   2.897   2.817   8.611  1.3990 -0.7003  1.4669
  140OSM   H17G15376   2.861   2.994   8.581 -3.0426 -2.4281  0.4764
  140OSM   C18F15377   2.937   2.941   8.779  0.0720  0.0805 -0.9020
  140OSM   H18F15378   2.836   2.944   8.823  0.4759  1.0342  0.0097
  140OSM   H18G15379   2.989   3.038   8.793 -0.9215  0.4898  0.0768
  140OSM   H18H15380   2.999   2.864   8.829 -0.0315  0.0406 -0.8374
  141OSM      N15381   2.748   4.344   6.570  0.7447 -0.1526  0.5057
  141OSM    C1515382   2.829   4.414   6.672  0.4329  0.2826 -0.6863
  141OSM   H15A15383   2.783   4.415   6.770  3.9595  0.8634  1.1505
  141OSM   H15B15384   2.832   4.519   6.649 -1.3300  0.3933 -0.5133
  141OSM   H15C15385   2.927   4.371   6.685  0.2831  0.2271  0.3617
  141OSM    C1415386   2.709   4.201   6.613 -0.2050 -0.2413 -0.4263
  141OSM   H14A15387   2.675   4.197   6.715  0.4285 -2.0581 -0.2459
  141OSM   H14B15388   2.791   4.132   6.602  0.7577  1.0210 -1.3708
  141OSM   H14C15389   2.623   4.169   6.555 -2.4270  3.7076  0.3331
  141OSM    C1315390   2.631   4.432   6.536  0.2584 -0.2869  0.0923
  141OSM   H13A15391   2.558   4.394   6.467  1.1600  2.1118 -2.3516
  141OSM   H13B15392   2.663   4.529   6.501  1.2404  0.2005  2.1502
  141OSM   H13C15393   2.576   4.452   6.627 -1.4407 -0.7396 -0.7818
  141OSM    C1215394   2.842   4.342   6.446 -0.0867  0.0719 -0.8151
  141OSM   H12A15395   2.802   4.273   6.373 -0.8299 -1.2817  0.7898
  141OSM   H12B15396   2.934   4.294   6.474  1.5022  2.8563 -0.9231
  141OSM    C1115397   2.869   4.479   6.375 -0.0775  0.0838  0.6622
  141OSM   H11A15398   2.777   4.516   6.326  1.5910  2.7103 -0.7433
  141OSM   H11B15399   2.935   4.443   6.294 -4.2078 -2.1435 -2.0438
  141OSM      P15400   2.996   4.703   6.403  0.0874 -0.1220  0.4489
  141OSM    O1315401   3.145   4.698   6.398  0.1165  0.0605  0.6242
  141OSM    O1415402   2.932   4.741   6.273 -1.0545 -0.0781 -0.4082
  141OSM    O1115403   2.967   4.815   6.514  0.0214  0.2107 -0.5913
  141OSM    O1215404   2.941   4.570   6.460  0.4813  0.2619 -0.2737
  141OSM    C1S15405   2.991   4.792   6.651 -0.4091  0.3236 -0.0991
  141OSM    H1S15406   3.100   4.798   6.672 -0.7562  1.9041  1.5482
  141OSM    H1T15407   2.964   4.688   6.680 -0.0655  0.2108 -0.1857
  141OSM     NF15408   2.967   4.866   6.887  0.2518  0.0968  0.1095
  141OSM    HNF15409   2.916   4.824   6.961 -0.7082  1.5824  0.3249
  141OSM    C2S15410   2.911   4.880   6.745  0.3052 -0.7475 -0.8580
  141OSM    H2S15411   2.908   4.987   6.715  1.5119  0.3055  2.2733
  141OSM    C3S15412   2.760   4.843   6.722  0.2784 -0.2933  0.3723
  141OSM    H3S15413   2.739   4.735   6.733  1.7918 -0.5780  0.6771
  141OSM     O315414   2.725   4.873   6.586 -0.4239 -0.0700  0.6754
  141OSM    HO315415   2.809   4.865   6.540 -1.0872  0.6036 -0.6894
  141OSM    C4S15416   2.677   4.918   6.814 -0.1240 -0.0661  0.3161
  141OSM    H4S15417   2.674   5.025   6.789  1.5566  0.1906  1.0809
  141OSM    C5S15418   2.615   4.863   6.918  0.8747  0.8789  0.1399
  141OSM    H5S15419   2.610   4.753   6.919  1.4898  0.8134 -1.5181
  141OSM    C6S15420   2.522   4.926   7.012  0.2205  0.0983 -1.0504
  141OSM    H6S15421   2.433   4.863   7.031  0.7878 -0.2915  0.3928
  141OSM    H6T15422   2.480   5.021   6.972  0.4864  0.9311  0.5660
  141OSM    C7S15423   2.583   4.948   7.152  0.7165 -0.4461 -0.8839
  141OSM    H7S15424   2.535   5.038   7.195  0.4639 -0.8363 -0.3491
  141OSM    H7T15425   2.692   4.966   7.149  0.7795 -0.4986  0.5144
  141OSM    C8S15426   2.555   4.829   7.241 -0.1725  0.3254  0.1286
  141OSM    H8S15427   2.601   4.733   7.208 -0.4326  0.6466 -1.2208
  141OSM    H8T15428   2.446   4.819   7.260 -0.2619  0.1716 -0.4344
  141OSM    C9S15429   2.611   4.846   7.387 -0.5146  0.0739 -0.1519
  141OSM    H9S15430   2.584   4.949   7.419  0.6694  0.7074 -1.0870
  141OSM    H9T15431   2.722   4.849   7.388 -0.5265  0.5084  0.7950
  141OSM   C10S15432   2.555   4.746   7.488  0.1281  0.3532 -0.2963
  141OSM   H10S15433   2.595   4.642   7.486  0.6053  0.3986  2.5527
  141OSM   H10T15434   2.444   4.747   7.474  0.2040 -0.2509 -0.9969
  141OSM   C11S15435   2.576   4.804   7.632 -0.5307 -0.4602  0.3384
  141OSM   H11S15436   2.530   4.732   7.703  0.1656 -1.3738 -0.1177
  141OSM   H11T15437   2.527   4.903   7.627 -0.2824 -0.3206  0.6148
  141OSM   C12S15438   2.720   4.842   7.667  0.1671 -0.1892 -0.6414
  141OSM   H12S15439   2.755   4.913   7.590  1.2534  1.7554  1.5121
  141OSM   H12T15440   2.776   4.746   7.663  1.7274  0.6847 -0.7749
  141OSM   C13S15441   2.749   4.905   7.806  0.0968  0.0048 -0.0401
  141OSM   H13S15442   2.736   4.827   7.885 -1.1790 -0.0398 -0.2821
  141OSM   H13T15443   2.678   4.989   7.817 -1.1984 -1.0594  0.0308
  141OSM   C14S15444   2.896   4.955   7.808  0.0451  0.4951 -0.0979
  141OSM   H14S15445   2.908   5.029   7.726  0.0222 -0.1414 -0.6866
  141OSM   H14T15446   2.955   4.861   7.797 -2.9437 -1.6762  0.9798
  141OSM   C15S15447   2.949   4.997   7.947  0.1781  0.9126 -0.2068
  141OSM   H15S15448   3.043   5.055   7.943 -0.8605  2.6904  0.4041
  141OSM   H15T15449   2.967   4.902   8.003 -0.2484 -1.3975 -3.6564
  141OSM   C16S15450   2.849   5.077   8.034  0.1715 -0.2665  0.1307
  141OSM   H16S15451   2.769   5.008   8.067  1.0386 -0.4992  1.8370
  141OSM   H16T15452   2.798   5.141   7.958  0.1187  0.5170  0.8129
  141OSM   C17S15453   2.903   5.143   8.167  0.3248 -0.4710  0.3310
  141OSM   H17S15454   2.987   5.209   8.136  2.6931 -1.5145  3.9078
  141OSM   H17T15455   2.947   5.062   8.229 -1.8850 -1.9013  0.1480
  141OSM   C18S15456   2.803   5.221   8.257 -0.4783 -0.3829 -0.9475
  141OSM   H18S15457   2.863   5.268   8.338  0.6348 -0.8829 -1.4607
  141OSM   H18T15458   2.722   5.151   8.288 -0.6487 -0.5400 -1.7487
  141OSM   H18U15459   2.747   5.304   8.210 -1.1823 -0.0110  0.4652
  141OSM    C1F15460   3.079   4.922   6.920 -0.3335 -0.5308  0.5507
  141OSM     OF15461   3.152   4.980   6.840 -0.3574 -0.1591 -0.0750
  141OSM    C2F15462   3.112   4.923   7.065  0.5126 -0.1451  0.5479
  141OSM    H2F15463   3.140   4.820   7.094 -0.3421 -0.3846  0.5620
  141OSM    H2G15464   3.012   4.937   7.111  0.0171 -0.0896 -0.5081
  141OSM    C3F15465   3.217   5.030   7.102  0.8260 -0.5004 -0.1429
  141OSM    H3F15466   3.166   5.124   7.075  0.5451 -0.8532 -0.8663
  141OSM    H3G15467   3.310   5.003   7.047  2.4779  0.6451  1.9590
  141OSM    C4F15468   3.242   5.025   7.247  0.0686  0.5858  0.0579
  141OSM    H4F15469   3.339   5.073   7.271  0.3716 -0.2584  0.5770
  141OSM    H4G15470   3.239   4.921   7.286  0.7009  0.5585  0.0367
  141OSM    C5F15471   3.142   5.113   7.328 -0.2324  0.7872 -0.0108
  141OSM    H5F15472   3.040   5.070   7.331 -0.6654  0.9402 -4.7817
  141OSM    H5G15473   3.140   5.219   7.293 -1.9763  0.5849 -0.6112
  141OSM    C6F15474   3.174   5.127   7.479 -0.3223  0.0678 -0.3610
  141OSM    H6F15475   3.081   5.174   7.516 -0.7898 -0.1740 -1.2107
  141OSM    H6G15476   3.258   5.199   7.468  0.3872 -0.8548 -1.1499
  141OSM    C7F15477   3.213   4.999   7.548 -0.5227 -0.0492  0.6383
  141OSM    H7F15478   3.281   4.932   7.491 -0.2375  1.2001 -0.5578
  141OSM    H7G15479   3.116   4.944   7.553 -1.1219  0.9433  0.3166
  141OSM    C8F15480   3.271   5.026   7.687 -0.3292 -0.0333  0.1301
  141OSM    H8F15481   3.195   5.085   7.743 -0.9203 -1.0708  0.4313
  141OSM    H8G15482   3.359   5.094   7.683 -1.6209  1.6774 -3.1604
  141OSM    C9F15483   3.302   4.901   7.759 -0.0890  0.0927 -0.6508
  141OSM    H9F15484   3.262   4.811   7.710  1.1493 -1.2479  0.6924
  141OSM   C10F15485   3.370   4.884   7.868  0.1014 -0.2569 -0.0378
  141OSM   H10F15486   3.362   4.790   7.926  1.5920 -0.1208  0.4352
  141OSM   C11F15487   3.448   4.999   7.932  0.0059  0.7848  0.6645
  141OSM   H11F15488   3.478   5.083   7.866 -2.5525 -0.2613 -2.0951
  141OSM   H11G15489   3.546   4.946   7.935 -0.6609 -0.6023 -0.4301
  141OSM   C12F15490   3.425   5.046   8.081  0.7270  0.3608 -0.2960
  141OSM   H12F15491   3.518   5.095   8.116  1.1012 -1.4002  1.2769
  141OSM   H12G15492   3.404   4.962   8.150  4.0278  1.1100  1.8615
  141OSM   C13F15493   3.304   5.143   8.086 -0.5758  0.2942  0.1737
  141OSM   H13F15494   3.222   5.086   8.039  0.0646  0.3668 -1.0775
  141OSM   H13G15495   3.315   5.238   8.030 -1.3217 -0.5583 -1.4660
  141OSM   C14F15496   3.272   5.175   8.229  0.2246 -0.0459 -0.8012
  141OSM   H14F15497   3.245   5.081   8.283 -2.4530 -0.4952 -2.6867
  141OSM   H14G15498   3.180   5.237   8.222 -0.4031 -0.5841  1.7101
  141OSM   C15F15499   3.367   5.270   8.306 -0.1628  0.0046 -0.1134
  141OSM   H15F15500   3.405   5.347   8.235  0.7435 -2.4814 -2.4727
  141OSM   H15G15501   3.456   5.220   8.348 -0.5442 -1.8131 -1.3488
  141OSM   C16F15502   3.291   5.337   8.423 -1.0943  0.4497  0.0655
  141OSM   H16F15503   3.239   5.256   8.478 -1.6575  0.2603 -0.7247
  141OSM   H16G15504   3.213   5.412   8.398 -1.1632  0.9082  1.5558
  141OSM   C17F15505   3.382   5.397   8.535 -0.1409  0.1408 -0.0872
  141OSM   H17F15506   3.453   5.458   8.476 -1.6469  0.4380 -1.6914
  141OSM   H17G15507   3.438   5.309   8.574  1.2855  0.9441 -0.2611
  141OSM   C18F15508   3.313   5.470   8.650  0.1743 -0.3806  0.3652
  141OSM   H18F15509   3.283   5.573   8.620  2.7446 -0.3889 -2.9159
  141OSM   H18G15510   3.383   5.477   8.735  1.3956  1.3381 -0.7183
  141OSM   H18H15511   3.224   5.417   8.690 -1.1732  1.4177 -0.1068
  142OSM      N15512   4.833   1.432   6.130 -0.3436 -0.3158  0.4570
  142OSM    C1515513   4.933   1.535   6.153 -0.3287 -0.5236  0.7798
  142OSM   H15A15514   4.971   1.588   6.067  1.1705 -1.2254  0.9686
  142OSM   H15B15515   5.023   1.493   6.196 -0.8364 -1.4424  0.9783
  142OSM   H15C15516   4.908   1.606   6.229  3.1893  0.7023  0.9778
  142OSM    C1415517   4.707   1.497   6.079 -0.6801 -0.3862  0.2020
  142OSM   H14A15518   4.732   1.557   5.993 -0.0302  1.0683  1.3534
  142OSM   H14B15519   4.676   1.566   6.156 -0.1801  0.7820 -0.6211
  142OSM   H14C15520   4.630   1.421   6.074  0.2713 -1.4844  1.4098
  142OSM    C1315521   4.888   1.343   6.017  0.7383  0.0689 -0.0366
  142OSM   H13A15522   4.923   1.403   5.934 -1.3072 -1.5298 -2.1885
  142OSM   H13B15523   4.808   1.288   5.970 -0.1213  0.5620  0.7974
  142OSM   H13C15524   4.970   1.284   6.055  2.0373  1.9467  0.2392
  142OSM    C1215525   4.811   1.351   6.248 -0.5834  0.7712  0.2451
  142OSM   H12A15526   4.906   1.322   6.291 -0.8661 -0.8575 -0.1882
  142OSM   H12B15527   4.776   1.252   6.222  1.3004 -0.7604  2.9862
  142OSM    C1115528   4.730   1.399   6.371 -0.3021  0.1037 -0.7054
  142OSM   H11A15529   4.794   1.483   6.406 -0.2447  0.3843 -1.4778
  142OSM   H11B15530   4.731   1.330   6.458  0.6323  2.9744  1.7413
  142OSM      P15531   4.483   1.324   6.349  0.2238 -0.1754  0.0243
  142OSM    O1315532   4.356   1.388   6.310 -0.1019  0.2774 -0.4298
  142OSM    O1415533   4.525   1.205   6.274  0.5052  0.0951  0.8159
  142OSM    O1115534   4.488   1.292   6.497  0.2777 -1.0775 -0.7750
  142OSM    O1215535   4.593   1.437   6.337 -1.0110  0.4239 -0.3960
  142OSM    C1S15536   4.502   1.392   6.593  0.1688 -0.2559 -0.0932
  142OSM    H1S15537   4.404   1.446   6.593 -0.2092 -0.9263  0.4410
  142OSM    H1T15538   4.581   1.468   6.573  0.8214  0.0446  3.0103
  142OSM     NF15539   4.545   1.450   6.831  0.5093 -0.0506  0.2082
  142OSM    HNF15540   4.636   1.486   6.851  0.2821  2.1004 -2.0695
  142OSM    C2S15541   4.537   1.339   6.732 -0.3902 -0.1178  0.7844
  142OSM    H2S15542   4.458   1.274   6.776 -0.9045  0.6594  1.0355
  142OSM    C3S15543   4.668   1.247   6.729 -0.1465 -0.7349  0.0496
  142OSM    H3S15544   4.755   1.313   6.711 -0.3443 -0.8143 -1.3150
  142OSM     O315545   4.665   1.139   6.636  0.1763 -0.0249 -0.4148
  142OSM    HO315546   4.593   1.165   6.578  1.2197  0.3540 -1.5820
  142OSM    C4S15547   4.684   1.185   6.872  0.7565 -0.3606  0.3460
  142OSM    H4S15548   4.726   1.265   6.935  0.8097 -0.2363  0.1525
  142OSM    C5S15549   4.655   1.061   6.931 -0.5385 -0.2214  0.7381
  142OSM    H5S15550   4.601   0.995   6.860  0.6155 -0.4176  0.0197
  142OSM    C6S15551   4.682   1.020   7.070  0.1658  0.2339  0.0378
  142OSM    H6S15552   4.744   0.928   7.071  0.8247  0.6479 -0.9978
  142OSM    H6T15553   4.582   0.990   7.109  0.3029  0.3206  0.4544
  142OSM    C7S15554   4.741   1.128   7.163 -0.0873 -0.0790  0.0311
  142OSM    H7S15555   4.677   1.219   7.162  0.4883  0.3232 -1.0398
  142OSM    H7T15556   4.833   1.164   7.113  1.5809  0.0275  2.9468
  142OSM    C8S15557   4.751   1.078   7.309  0.2639 -0.0632 -0.1785
  142OSM    H8S15558   4.813   1.152   7.365  0.1118  1.9687 -2.5123
  142OSM    H8T15559   4.801   0.980   7.317  0.0822 -0.1824 -0.5073
  142OSM    C9S15560   4.608   1.082   7.370 -0.2724  0.7465  0.2485
  142OSM    H9S15561   4.534   1.044   7.297 -1.1689  0.0107  1.4949
  142OSM    H9T15562   4.584   1.190   7.382 -3.1884  0.2202 -0.0158
  142OSM   C10S15563   4.590   1.029   7.509  0.4313 -0.2534  0.2678
  142OSM   H10S15564   4.614   0.921   7.500  0.4600 -0.1607 -0.8397
  142OSM   H10T15565   4.490   1.041   7.556 -0.2877  1.3008 -1.5660
  142OSM   C11S15566   4.687   1.099   7.606 -0.5089 -0.3066  0.5513
  142OSM   H11S15567   4.692   1.206   7.577  2.0065 -0.8103 -1.1945
  142OSM   H11T15568   4.787   1.058   7.578  0.5598  3.2217 -1.3543
  142OSM   C12S15569   4.644   1.086   7.751 -0.6682 -0.8008 -0.0978
  142OSM   H12S15570   4.661   0.979   7.775  0.4540 -0.5613  0.2253
  142OSM   H12T15571   4.541   1.127   7.753  0.6914  3.1486 -1.5397
  142OSM   C13S15572   4.721   1.165   7.855 -0.6834  0.2068 -0.0672
  142OSM   H13S15573   4.716   1.273   7.828 -2.5340  0.3758  0.7928
  142OSM   H13T15574   4.829   1.141   7.849 -0.5000  0.5611  1.4616
  142OSM   C14S15575   4.684   1.153   8.003 -0.0066  0.1466 -0.5584
  142OSM   H14S15576   4.582   1.187   8.031  0.6605  0.0332  2.3070
  142OSM   H14T15577   4.760   1.216   8.055 -1.0824  0.2359  0.9922
  142OSM   C15S15578   4.692   1.013   8.054  0.2895 -0.1504 -0.2337
  142OSM   H15S15579   4.771   0.959   7.998  0.5908 -2.1706  1.9872
  142OSM   H15T15580   4.604   0.959   8.014  0.5777  0.4741 -1.7966
  142OSM   C16S15581   4.693   0.989   8.208 -0.2697  0.2751 -0.2323
  142OSM   H16S15582   4.672   0.881   8.224 -2.5262  0.8286  1.0289
  142OSM   H16T15583   4.616   1.052   8.258 -0.4476  0.4272 -0.6883
  142OSM   C17S15584   4.824   1.011   8.280 -0.0603  0.2784 -0.1626
  142OSM   H17S15585   4.864   1.111   8.255  1.3313  0.2055  1.5288
  142OSM   H17T15586   4.897   0.938   8.238  0.5687 -0.0951  1.4680
  142OSM   C18S15587   4.816   0.989   8.432  0.3418 -0.2937  0.6519
  142OSM   H18S15588   4.787   1.086   8.479 -1.1723  0.0930 -1.0031
  142OSM   H18T15589   4.918   0.972   8.474  0.7287 -0.3333 -0.2819
  142OSM   H18U15590   4.743   0.908   8.450  1.5266 -1.4928  0.2456
  142OSM    C1F15591   4.446   1.525   6.869  0.9672 -0.1619 -0.4138
  142OSM     OF15592   4.335   1.519   6.824 -0.4052  0.3872  0.6748
  142OSM    C2F15593   4.483   1.604   6.987  0.9122  0.1468  0.0572
  142OSM    H2F15594   4.532   1.697   6.951 -1.5967  0.3404 -3.3733
  142OSM    H2G15595   4.552   1.545   7.050  1.1362 -1.9363 -2.0097
  142OSM    C3F15596   4.364   1.633   7.094 -0.1041  0.3411 -0.2804
  142OSM    H3F15597   4.307   1.548   7.137  1.5456 -0.9931 -0.6198
  142OSM    H3G15598   4.295   1.700   7.039 -2.9782  0.4645  3.1066
  142OSM    C4F15599   4.424   1.707   7.215 -0.5719  0.5502  0.0616
  142OSM    H4F15600   4.502   1.774   7.173 -1.2467  0.5962 -1.1855
  142OSM    H4G15601   4.472   1.638   7.287  1.5824  1.5747 -0.2993
  142OSM    C5F15602   4.326   1.802   7.287 -0.3839  0.5324  0.0766
  142OSM    H5F15603   4.225   1.759   7.296 -0.2290  0.0534 -0.4524
  142OSM    H5G15604   4.312   1.892   7.223 -1.0868  0.5564  0.2586
  142OSM    C6F15605   4.383   1.843   7.427 -0.3199  0.1064  0.7939
  142OSM    H6F15606   4.380   1.745   7.479 -1.7857 -0.5044 -0.3801
  142OSM    H6G15607   4.305   1.907   7.476 -2.4319 -1.9867  0.3530
  142OSM    C7F15608   4.527   1.913   7.421 -0.0935  0.0748  0.9064
  142OSM    H7F15609   4.541   2.001   7.355 -1.0537 -0.1591  0.3834
  142OSM    H7G15610   4.600   1.838   7.385  0.8609  1.7993 -0.8911
  142OSM    C8F15611   4.568   1.959   7.566  0.3697 -0.5500  0.4039
  142OSM    H8F15612   4.673   1.992   7.578 -0.4063  2.2131  0.3846
  142OSM    H8G15613   4.560   1.869   7.630 -1.3071  0.5661  1.8533
  142OSM    C9F15614   4.492   2.078   7.623  0.5128 -0.0925  0.1158
  142OSM    H9F15615   4.501   2.178   7.578 -0.1750 -1.0166 -2.1990
  142OSM   C10F15616   4.421   2.077   7.736  0.4414  0.2480  0.2670
  142OSM   H10F15617   4.375   2.169   7.775 -0.3581  0.6633 -1.5625
  142OSM   C11F15618   4.400   1.963   7.831 -0.1716  0.2636 -0.1499
  142OSM   H11F15619   4.456   1.871   7.806 -0.7594 -0.0807 -0.2223
  142OSM   H11G15620   4.292   1.941   7.818 -0.2893  1.5181 -1.5707
  142OSM   C12F15621   4.437   1.996   7.979 -0.1738  0.2920 -0.0822
  142OSM   H12F15622   4.433   1.903   8.039 -1.6529  0.4230  0.0364
  142OSM   H12G15623   4.374   2.080   8.013  0.6532  1.7612 -1.9398
  142OSM   C13F15624   4.594   2.036   7.987  1.1870 -0.0899 -0.0117
  142OSM   H13F15625   4.610   2.137   7.943  0.1838  0.5073  0.9279
  142OSM   H13G15626   4.653   1.966   7.924  0.1183  0.8627 -2.1475
  142OSM   C14F15627   4.631   2.039   8.131 -0.4663 -0.2615 -0.1391
  142OSM   H14F15628   4.644   1.934   8.168  0.5940 -0.4848 -1.0764
  142OSM   H14G15629   4.555   2.094   8.190 -0.7176 -0.7746  0.0215
  142OSM   C15F15630   4.767   2.120   8.142 -0.5919  0.3262 -0.3325
  142OSM   H15F15631   4.761   2.215   8.086  0.7606  0.4192 -0.3571
  142OSM   H15G15632   4.837   2.049   8.092 -0.6284  1.1893 -1.6345
  142OSM   C16F15633   4.804   2.151   8.288  0.1612 -0.9242  0.0172
  142OSM   H16F15634   4.711   2.171   8.345  0.4256 -1.2664  0.5787
  142OSM   H16G15635   4.856   2.249   8.292 -0.1825 -0.7091 -0.7538
  142OSM   C17F15636   4.890   2.038   8.353  0.3986 -0.0041  0.0138
  142OSM   H17F15637   4.950   1.996   8.269  0.7068 -1.6391  1.0023
  142OSM   H17G15638   4.838   1.948   8.392 -0.3808  1.3632  2.3425
  142OSM   C18F15639   4.976   2.082   8.467  0.3621  0.1110  0.2319
  142OSM   H18F15640   4.919   2.128   8.550  1.3345  0.2249  0.8504
  142OSM   H18G15641   5.054   2.154   8.435  0.5499  0.6820  1.8663
  142OSM   H18H15642   5.027   1.992   8.510 -0.5909 -0.5728 -0.0386
  143OSM      N15643   5.412   1.593   6.140 -0.2049  0.3557 -0.4703
  143OSM    C1515644   5.292   1.635   6.226  0.2713  0.0453 -0.5531
  143OSM   H15A15645   5.251   1.543   6.266  2.1461 -0.9013 -0.6919
  143OSM   H15B15646   5.221   1.694   6.170  0.9203  1.6098  0.2136
  143OSM   H15C15647   5.336   1.686   6.310  0.0324  0.8030 -0.8756
  143OSM    C1415648   5.488   1.485   6.206 -0.1468  0.0722 -0.3681
  143OSM   H14A15649   5.559   1.442   6.138 -0.3697  0.2313 -0.7025
  143OSM   H14B15650   5.423   1.405   6.238 -1.4776  1.1907 -0.1241
  143OSM   H14C15651   5.538   1.528   6.292 -1.3882  0.1267  0.3525
  143OSM    C1315652   5.357   1.534   6.016  0.0133 -0.3459 -0.7122
  143OSM   H13A15653   5.279   1.463   6.038 -2.3995  1.7169 -2.0106
  143OSM   H13B15654   5.434   1.503   5.947  0.2884  0.7284 -0.9084
  143OSM   H13C15655   5.313   1.610   5.953  0.1119 -0.9944 -1.5892
  143OSM    C1215656   5.506   1.708   6.107  0.1985 -0.9560  0.1719
  143OSM   H12A15657   5.448   1.775   6.045 -0.8009 -1.2133  0.8162
  143OSM   H12B15658   5.585   1.676   6.040  1.9806 -0.0076  1.7089
  143OSM    C1115659   5.574   1.800   6.206 -0.1127 -0.2038 -0.3933
  143OSM   H11A15660   5.500   1.822   6.285  0.0657 -0.7892 -0.0520
  143OSM   H11B15661   5.609   1.898   6.168 -2.1397  0.6473 -0.1744
  143OSM      P15662   5.823   1.716   6.218 -0.3473  0.3322 -0.0305
  143OSM    O1315663   5.899   1.599   6.282  0.7578 -0.8102 -0.4544
  143OSM    O1415664   5.800   1.709   6.072  0.3556 -0.1244  0.0753
  143OSM    O1115665   5.884   1.864   6.254 -0.9896  0.1347 -0.4768
  143OSM    O1215666   5.673   1.735   6.286  0.2654 -0.1706  0.4478
  143OSM    C1S15667   5.870   1.913   6.389  0.7027  0.8390 -0.3506
  143OSM    H1S15668   5.775   1.881   6.438  1.6084  1.3957  1.9023
  143OSM    H1T15669   5.873   2.024   6.391  1.3197  0.8545  2.3056
  143OSM     NF15670   5.977   1.910   6.626 -0.6132  0.8456 -0.5801
  143OSM    HNF15671   6.033   1.979   6.672  2.2451 -2.7991  2.0363
  143OSM    C2S15672   5.998   1.887   6.483  0.2786  0.6796  0.1195
  143OSM    H2S15673   6.016   1.778   6.474 -0.0797  0.4469  1.7616
  143OSM    C3S15674   6.120   1.956   6.422  0.2176  0.4410  0.8142
  143OSM    H3S15675   6.092   2.060   6.398 -0.1640 -0.4911 -3.7071
  143OSM     O315676   6.155   1.915   6.287  0.0167 -0.6167 -0.3030
  143OSM    HO315677   6.078   1.861   6.269 -0.8535 -0.4899  2.5875
  143OSM    C4S15678   6.253   1.935   6.495  0.5535 -0.6310 -0.5937
  143OSM    H4S15679   6.271   2.018   6.564  0.7412 -0.1432 -1.2181
  143OSM    C5S15680   6.338   1.833   6.495 -0.4349  0.8857 -0.9334
  143OSM    H5S15681   6.333   1.750   6.423 -0.2246 -0.0014  0.0561
  143OSM    C6S15682   6.464   1.832   6.578  0.5304 -0.0464  0.1116
  143OSM    H6S15683   6.509   1.932   6.598  0.6935 -0.3443  1.3322
  143OSM    H6T15684   6.537   1.768   6.524 -0.2961  0.1349 -1.2622
  143OSM    C7S15685   6.415   1.758   6.702 -0.0651  0.1982 -0.2036
  143OSM    H7S15686   6.356   1.665   6.694  0.4087 -0.4049  2.4886
  143OSM    H7T15687   6.355   1.825   6.767  2.3103  0.8458  1.4495
  143OSM    C8S15688   6.524   1.703   6.797  0.0873  0.1841 -0.6675
  143OSM    H8S15689   6.585   1.794   6.819  0.1913  0.0539 -0.4114
  143OSM    H8T15690   6.583   1.621   6.753 -0.3756 -0.1580 -0.6553
  143OSM    C9S15691   6.461   1.671   6.934 -0.0197  0.1794  0.2292
  143OSM    H9S15692   6.408   1.574   6.922  1.1254 -0.5657  0.9838
  143OSM    H9T15693   6.388   1.750   6.961 -0.3261 -0.0025 -0.0629
  143OSM   C10S15694   6.568   1.670   7.038  0.1226 -0.5126  0.6614
  143OSM   H10S15695   6.610   1.770   7.060 -2.9561  0.8935  0.7261
  143OSM   H10T15696   6.655   1.607   7.011  0.5505 -0.3869  1.6782
  143OSM   C11S15697   6.516   1.626   7.183 -0.2178  0.0568  0.0638
  143OSM   H11S15698   6.471   1.524   7.182  1.4285 -0.7652  2.0073
  143OSM   H11T15699   6.432   1.697   7.198 -1.9882 -1.5599 -1.5826
  143OSM   C12S15700   6.616   1.636   7.296 -0.4276  0.1584  0.9555
  143OSM   H12S15701   6.667   1.732   7.272  0.7461 -1.0798 -1.8706
  143OSM   H12T15702   6.693   1.558   7.286  0.8648  1.3421  1.3875
  143OSM   C13S15703   6.555   1.641   7.431  0.3934  1.0212  0.0954
  143OSM   H13S15704   6.509   1.540   7.435  1.0246  0.6024 -1.9137
  143OSM   H13T15705   6.475   1.718   7.427 -0.6446  0.0308  1.0081
  143OSM   C14S15706   6.645   1.672   7.549 -0.3816 -0.0487  0.1688
  143OSM   H14S15707   6.687   1.774   7.531  0.9884 -0.8922 -1.8247
  143OSM   H14T15708   6.732   1.602   7.543 -0.5293 -0.2320  0.1596
  143OSM   C15S15709   6.585   1.656   7.682  0.6235 -0.5308  0.2883
  143OSM   H15S15710   6.532   1.559   7.695  1.6447 -1.2469 -0.6824
  143OSM   H15T15711   6.515   1.741   7.694 -2.6453 -2.9407 -0.1517
  143OSM   C16S15712   6.686   1.656   7.796  0.7951  0.6816  0.0861
  143OSM   H16S15713   6.739   1.753   7.801  1.7778  0.1203  0.8536
  143OSM   H16T15714   6.774   1.588   7.788 -0.3015 -1.0562  1.9199
  143OSM   C17S15715   6.626   1.624   7.941  0.0313 -0.0343 -0.6557
  143OSM   H17S15716   6.714   1.602   8.006 -1.1361  1.3290  1.5232
  143OSM   H17T15717   6.567   1.530   7.929 -0.6747  0.6802 -3.3989
  143OSM   C18S15718   6.534   1.724   8.002 -0.1363  0.1824  0.0922
  143OSM   H18S15719   6.479   1.673   8.084  1.3529  0.5050  1.3374
  143OSM   H18T15720   6.457   1.751   7.927  1.3094  3.3443 -0.4077
  143OSM   H18U15721   6.583   1.816   8.040 -1.0637  0.6685  0.1488
  143OSM    C1F15722   5.894   1.841   6.703 -0.3472 -0.9051 -0.4467
  143OSM     OF15723   5.813   1.766   6.647 -0.4159 -0.2893  0.2625
  143OSM    C2F15724   5.902   1.853   6.853  0.0388 -0.2962 -0.2959
  143OSM    H2F15725   5.904   1.958   6.891  1.9610  0.0780 -1.3244
  143OSM    H2G15726   6.000   1.810   6.883  0.7488  1.7749  0.5531
  143OSM    C3F15727   5.770   1.793   6.908 -0.0613 -0.8999  0.1309
  143OSM    H3F15728   5.772   1.682   6.896 -0.8012 -0.6431 -3.6866
  143OSM    H3G15729   5.684   1.817   6.842 -0.5055 -1.2768  0.5658
  143OSM    C4F15730   5.724   1.832   7.050 -0.8276  0.4086 -0.3868
  143OSM    H4F15731   5.631   1.777   7.070  0.6161 -2.0870 -0.1698
  143OSM    H4G15732   5.695   1.939   7.060  0.1763  0.6306  0.3117
  143OSM    C5F15733   5.816   1.789   7.171  0.4868  0.1142 -0.7240
  143OSM    H5F15734   5.913   1.828   7.134 -0.8638  2.5363 -1.9986
  143OSM    H5G15735   5.813   1.678   7.174  0.4186  0.1303  1.5848
  143OSM    C6F15736   5.762   1.846   7.303 -0.2101  0.5732  0.7664
  143OSM    H6F15737   5.666   1.801   7.337 -0.0440  0.5750  1.2569
  143OSM    H6G15738   5.754   1.955   7.286  1.0437  0.6202  0.4129
  143OSM    C7F15739   5.861   1.813   7.422 -0.3393  0.2483  0.1274
  143OSM    H7F15740   5.965   1.842   7.396 -0.5778  0.8478 -0.1937
  143OSM    H7G15741   5.868   1.704   7.438 -0.5743  0.5647  2.8211
  143OSM    C8F15742   5.831   1.885   7.558  0.0811  0.6459  1.0101
  143OSM    H8F15743   5.728   1.849   7.582 -1.3953  3.5241 -0.5299
  143OSM    H8G15744   5.811   1.994   7.558 -0.3835  0.5770 -0.1979
  143OSM    C9F15745   5.936   1.856   7.656  0.0171  0.0441 -0.1703
  143OSM    H9F15746   6.032   1.904   7.629 -0.0633 -1.0752 -2.8085
  143OSM   C10F15747   5.938   1.775   7.762  0.2056 -0.0719 -0.2863
  143OSM   H10F15748   6.021   1.786   7.834 -0.1241 -0.7370  0.2114
  143OSM   C11F15749   5.814   1.699   7.802  0.3500 -0.1511 -0.2375
  143OSM   H11F15750   5.861   1.623   7.869 -0.2315  0.5176  0.9616
  143OSM   H11G15751   5.769   1.645   7.716 -2.3960 -0.1915  1.1459
  143OSM   C12F15752   5.713   1.776   7.901  0.5093 -0.0982 -0.7095
  143OSM   H12F15753   5.649   1.696   7.944  0.1419  0.6064  0.0812
  143OSM   H12G15754   5.654   1.843   7.835 -0.0904  0.0880 -0.0088
  143OSM   C13F15755   5.778   1.865   8.010 -0.1798 -0.2535  0.5097
  143OSM   H13F15756   5.810   1.964   7.971 -0.7024 -0.9112 -1.7477
  143OSM   H13G15757   5.865   1.815   8.056  0.2666  0.8348  0.8767
  143OSM   C14F15758   5.674   1.893   8.125  0.1764 -0.0850 -0.0055
  143OSM   H14F15759   5.607   1.807   8.144 -1.3464  1.3524  1.5923
  143OSM   H14G15760   5.596   1.970   8.106 -0.2992  0.2885  2.9068
  143OSM   C15F15761   5.762   1.932   8.250  0.0146  0.3031 -0.4118
  143OSM   H15F15762   5.818   2.025   8.223 -2.8764  2.0667 -0.7310
  143OSM   H15G15763   5.839   1.853   8.263 -0.0560  0.2324 -0.4280
  143OSM   C16F15764   5.692   1.968   8.381 -0.6036  0.3524 -0.2198
  143OSM   H16F15765   5.642   1.871   8.402 -1.4405  0.3869 -1.8978
  143OSM   H16G15766   5.610   2.035   8.349  0.6595  1.6453 -0.8772
  143OSM   C17F15767   5.776   2.023   8.494  0.3975  0.5037  0.6753
  143OSM   H17F15768   5.794   2.129   8.469 -0.7308  0.3724 -0.8637
  143OSM   H17G15769   5.871   1.965   8.497  0.5038  0.7124  1.6286
  143OSM   C18F15770   5.708   2.009   8.628  0.7104 -0.5914 -0.4235
  143OSM   H18F15771   5.607   2.055   8.619  0.3103 -1.0770  1.1812
  143OSM   H18G15772   5.772   2.051   8.709  2.6650 -0.9333 -1.7204
  143OSM   H18H15773   5.701   1.900   8.643  0.9593 -0.3566  1.7097
  144OSM      N15774   4.170   2.071   6.035 -0.1658 -0.6682  0.0885
  144OSM    C1515775   4.271   1.981   6.100  0.4097 -0.0971 -0.1181
  144OSM   H15A15776   4.228   1.884   6.121  3.4372 -1.3026  1.0189
  144OSM   H15B15777   4.317   2.026   6.187 -0.5299  4.2410 -1.5847
  144OSM   H15C15778   4.350   1.966   6.029  0.3644  0.3932 -0.2775
  144OSM    C1415779   4.114   1.986   5.925 -0.4221 -0.3204 -0.0493
  144OSM   H14A15780   4.037   2.038   5.870  0.1866 -0.0869 -0.6896
  144OSM   H14B15781   4.059   1.898   5.956 -0.2136  0.0573  1.5164
  144OSM   H14C15782   4.185   1.950   5.852  0.2566  1.1167 -0.1278
  144OSM    C1315783   4.064   2.099   6.131  0.5667  0.1199 -0.0310
  144OSM   H13A15784   4.099   2.134   6.227 -0.8798 -1.6063  1.1979
  144OSM   H13B15785   4.023   2.003   6.160 -0.2409  0.8676  1.4520
  144OSM   H13C15786   3.980   2.155   6.092 -1.5185 -3.1408 -0.6610
  144OSM    C1215787   4.230   2.201   5.984 -0.3257 -0.6070 -0.4372
  144OSM   H12A15788   4.205   2.280   6.053 -1.3791  0.4974 -2.0164
  144OSM   H12B15789   4.176   2.213   5.891 -0.0878 -2.1360 -0.8064
  144OSM    C1115790   4.377   2.203   5.946  0.6498  0.3287  0.4644
  144OSM   H11A15791   4.387   2.269   5.858  0.5959 -1.5421 -1.0094
  144OSM   H11B15792   4.406   2.099   5.918  1.0524  0.5959 -0.1204
  144OSM      P15793   4.444   2.368   6.149 -0.1800 -0.0778 -0.2402
  144OSM    O1315794   4.579   2.410   6.178 -0.5550 -0.0564  0.1930
  144OSM    O1415795   4.353   2.466   6.093 -0.1364 -0.3213 -0.2469
  144OSM    O1115796   4.370   2.301   6.268 -0.1681  0.1600  0.0080
  144OSM    O1215797   4.454   2.245   6.057 -0.0920 -0.5165 -0.2206
  144OSM    C1S15798   4.424   2.267   6.390  0.0247 -0.6966 -0.1205
  144OSM    H1S15799   4.533   2.252   6.398  0.0289 -0.4621  0.3252
  144OSM    H1T15800   4.378   2.171   6.421  1.6141 -1.9493 -1.4597
  144OSM     NF15801   4.414   2.330   6.631  0.0320  1.4449 -0.2159
  144OSM    HNF15802   4.344   2.273   6.673 -0.2735  2.1942  0.3128
  144OSM    C2S15803   4.377   2.377   6.492  0.1709  0.0972 -0.2549
  144OSM    H2S15804   4.421   2.476   6.465  2.4231 -0.8508 -0.2165
  144OSM    C3S15805   4.223   2.399   6.482  0.6953  0.3715  0.1569
  144OSM    H3S15806   4.174   2.300   6.474 -2.0860  1.3001  3.3798
  144OSM     O315807   4.174   2.458   6.356  0.1606  0.3721 -0.0191
  144OSM    HO315808   4.224   2.413   6.287 -0.0793  0.9360 -0.5740
  144OSM    C4S15809   4.174   2.480   6.595 -0.2922  0.3874 -1.2114
  144OSM    H4S15810   4.141   2.413   6.675  1.5876 -0.7957 -1.3696
  144OSM    C5S15811   4.145   2.611   6.591 -0.3222  1.0457 -0.6547
  144OSM    H5S15812   4.142   2.668   6.497  0.4610  0.1337 -1.2615
  144OSM    C6S15813   4.085   2.686   6.711  0.0152 -0.3125  0.2719
  144OSM    H6S15814   3.975   2.688   6.698 -0.0326 -0.9364  0.5373
  144OSM    H6T15815   4.127   2.788   6.711 -3.0896  1.2050 -3.5887
  144OSM    C7S15816   4.103   2.617   6.852 -0.6632  0.1676  0.0914
  144OSM    H7S15817   4.074   2.510   6.837 -1.7724  0.7465 -2.5554
  144OSM    H7T15818   4.036   2.667   6.925  1.5819  2.8767  0.4205
  144OSM    C8S15819   4.247   2.638   6.902 -0.2205 -0.3395  0.0931
  144OSM    H8S15820   4.247   2.743   6.936 -1.4426  0.0240 -0.9733
  144OSM    H8T15821   4.312   2.622   6.813 -1.0973  1.7564 -0.9693
  144OSM    C9S15822   4.289   2.535   7.013  0.4222  0.0048 -0.5137
  144OSM    H9S15823   4.282   2.440   6.957  2.6176  0.4930 -1.7342
  144OSM    H9T15824   4.228   2.523   7.105  1.4109 -3.1281 -0.1533
  144OSM   C10S15825   4.432   2.548   7.070  0.7029  0.2857  0.1013
  144OSM   H10S15826   4.451   2.645   7.121 -0.2797  0.9735 -0.7932
  144OSM   H10T15827   4.490   2.554   6.975 -3.8206 -0.8311 -3.1127
  144OSM   C11S15828   4.479   2.443   7.167 -0.5543 -0.5339  0.0559
  144OSM   H11S15829   4.589   2.452   7.181 -0.4626 -1.9786  0.3835
  144OSM   H11T15830   4.464   2.341   7.124  1.5612 -0.9980  0.3048
  144OSM   C12S15831   4.409   2.443   7.303  0.9671 -0.0561 -0.0777
  144OSM   H12S15832   4.468   2.369   7.362  0.7880  0.9684  1.4461
  144OSM   H12T15833   4.307   2.401   7.290  0.6790  0.4225  0.5879
  144OSM   C13S15834   4.413   2.576   7.381  0.4340 -0.3104  0.7724
  144OSM   H13S15835   4.364   2.661   7.329  2.2019  1.6700  2.1340
  144OSM   H13T15836   4.520   2.603   7.397  0.4480 -0.9591  1.8997
  144OSM   C14S15837   4.348   2.567   7.520 -0.4889  0.3409  0.2516
  144OSM   H14S15838   4.390   2.479   7.573  1.6880  1.4771  0.5534
  144OSM   H14T15839   4.240   2.543   7.512 -0.2812 -0.6697  0.3928
  144OSM   C15S15840   4.382   2.690   7.604 -0.2722  0.2157 -0.3789
  144OSM   H15S15841   4.326   2.782   7.575 -0.3071  0.2955 -0.0633
  144OSM   H15T15842   4.490   2.703   7.582  0.0158  0.8857  1.2698
  144OSM   C16S15843   4.357   2.662   7.752  0.3762 -0.2088 -0.5375
  144OSM   H16S15844   4.403   2.562   7.767  0.7018 -0.4589 -2.7827
  144OSM   H16T15845   4.247   2.658   7.772  0.5427 -3.0644  0.2149
  144OSM   C17S15846   4.405   2.770   7.848  0.2633  0.1089 -0.2086
  144OSM   H17S15847   4.504   2.809   7.816 -0.2348  0.6353 -1.1299
  144OSM   H17T15848   4.419   2.709   7.940  0.5683  1.3686  0.6042
  144OSM   C18S15849   4.315   2.893   7.860  0.3262 -0.7419 -0.2681
  144OSM   H18S15850   4.211   2.872   7.892 -0.4627  2.0344 -0.7315
  144OSM   H18T15851   4.317   2.955   7.768  1.1609 -0.7837 -0.2880
  144OSM   H18U15852   4.350   2.963   7.939 -4.7434  1.1500  0.6403
  144OSM    C1F15853   4.541   2.322   6.661 -0.7373  0.0072  0.0417
  144OSM     OF15854   4.629   2.370   6.586 -0.9307 -0.2270  0.6451
  144OSM    C2F15855   4.583   2.240   6.776  0.1002  0.2808 -0.1201
  144OSM    H2F15856   4.534   2.144   6.749  0.5573  0.5188 -1.9453
  144OSM    H2G15857   4.547   2.288   6.869 -2.2285  1.1625 -1.3771
  144OSM    C3F15858   4.740   2.213   6.795  0.2813 -0.4010  0.2149
  144OSM    H3F15859   4.790   2.312   6.795 -2.7260  1.2350  0.0552
  144OSM    H3G15860   4.785   2.152   6.714  2.3656  0.6783  0.4974
  144OSM    C4F15861   4.771   2.127   6.917 -0.2090 -1.3127  0.1570
  144OSM    H4F15862   4.881   2.120   6.931  0.5964  1.5319 -3.1282
  144OSM    H4G15863   4.745   2.020   6.903 -1.7999 -1.3254  2.6266
  144OSM    C5F15864   4.692   2.183   7.045 -0.0972 -0.5309  0.6927
  144OSM    H5F15865   4.581   2.174   7.042 -0.1721 -0.2092  2.0422
  144OSM    H5G15866   4.711   2.291   7.060 -1.1436 -0.1342 -0.6098
  144OSM    C6F15867   4.728   2.106   7.168 -0.2755  0.3105 -0.6675
  144OSM    H6F15868   4.746   1.999   7.143 -0.5916  0.5284 -1.8913
  144OSM    H6G15869   4.647   2.123   7.243 -0.0730  0.8877 -0.5738
  144OSM    C7F15870   4.859   2.169   7.233 -0.0963 -0.3123 -0.0534
  144OSM    H7F15871   4.923   2.204   7.150 -0.6180 -0.2433 -0.4304
  144OSM    H7G15872   4.920   2.091   7.282 -0.6867 -0.4047  0.5547
  144OSM    C8F15873   4.823   2.274   7.340  1.1070 -0.0336  0.6083
  144OSM    H8F15874   4.744   2.232   7.406  2.5712 -2.7242  0.8174
  144OSM    H8G15875   4.782   2.367   7.295  1.5772 -0.8013 -1.5233
  144OSM    C9F15876   4.941   2.318   7.418 -0.7008 -0.1176 -0.2582
  144OSM    H9F15877   5.032   2.329   7.357 -0.5159 -0.1355  0.0156
  144OSM   C10F15878   4.954   2.335   7.554 -0.3899  0.2770 -0.0373
  144OSM   H10F15879   5.053   2.362   7.596  0.0273 -0.0873 -0.7637
  144OSM   C11F15880   4.850   2.325   7.654  0.2954  0.5201 -1.2073
  144OSM   H11F15881   4.854   2.232   7.716  0.6644  0.1310 -1.8079
  144OSM   H11G15882   4.754   2.341   7.602  0.6825  4.0565 -1.0920
  144OSM   C12F15883   4.854   2.448   7.746  1.0620 -0.6558  0.3006
  144OSM   H12F15884   4.802   2.536   7.702 -2.3445 -1.6685  1.9518
  144OSM   H12G15885   4.958   2.478   7.769 -0.1839  1.8511  3.4111
  144OSM   C13F15886   4.785   2.418   7.877 -0.2486 -0.0909  0.8276
  144OSM   H13F15887   4.841   2.345   7.940  1.3215 -0.1783 -0.5883
  144OSM   H13G15888   4.684   2.379   7.855 -0.6163 -0.1717  2.5733
  144OSM   C14F15889   4.772   2.544   7.962  0.7121 -0.7309  0.1790
  144OSM   H14F15890   4.697   2.617   7.923  0.3504 -0.2407  1.7194
  144OSM   H14G15891   4.867   2.602   7.959  2.3980 -3.1937  2.1429
  144OSM   C15F15892   4.733   2.521   8.113  0.7164 -0.6350 -1.0023
  144OSM   H15F15893   4.821   2.469   8.154  1.1914 -0.1796 -1.4337
  144OSM   H15G15894   4.647   2.451   8.108  0.2891 -0.1431 -0.7337
  144OSM   C16F15895   4.705   2.652   8.175 -0.0847  0.6537 -0.1717
  144OSM   H16F15896   4.605   2.682   8.137 -0.6364 -1.2033 -0.2439
  144OSM   H16G15897   4.779   2.732   8.151  0.8206  0.0897  0.6598
  144OSM   C17F15898   4.689   2.644   8.329  0.0440 -0.1543  0.8332
  144OSM   H17F15899   4.794   2.620   8.356  0.1174 -2.1210 -0.9811
  144OSM   H17G15900   4.617   2.567   8.363 -0.8178 -0.0173 -0.6097
  144OSM   C18F15901   4.645   2.771   8.402 -0.1294  0.3722 -0.0911
  144OSM   H18F15902   4.538   2.789   8.377  0.7592  2.3337 -3.0245
  144OSM   H18G15903   4.706   2.857   8.366  0.0247  1.3362  2.2504
  144OSM   H18H15904   4.655   2.769   8.513  1.4256  0.1465 -0.2146
  145SAPE     N15905   2.533   4.943  10.846  0.0284 -0.3249  1.0435
  145SAPE   HN115906   2.531   4.993  10.938 -1.1832  1.3960  0.1337
  145SAPE   HN215907   2.440   4.898  10.835  0.0725 -0.2443  0.2794
  145SAPE   HN315908   2.598   4.863  10.865 -0.4940 -2.0721 -3.3376
  145SAPE   C1215909   2.560   5.049  10.739 -0.3792  0.1621  0.8490
  145SAPE  H12A15910   2.632   5.001  10.669 -0.9377 -1.0628  1.0758
  145SAPE  H12B15911   2.611   5.132  10.793 -1.0459  0.6557  0.7289
  145SAPE   C1115912   2.429   5.097  10.682 -0.0662  0.0942  0.6313
  145SAPE  H11A15913   2.385   5.013  10.623  1.0224  0.5016 -0.8276
  145SAPE  H11B15914   2.436   5.181  10.610 -3.1290 -1.4252 -1.6787
  145SAPE     P15915   2.331   5.254  10.865  0.2638 -0.0705  0.0158
  145SAPE   O1315916   2.257   5.221  10.992 -0.5644 -0.1734 -0.0078
  145SAPE   O1415917   2.471   5.307  10.881  0.5308  0.0886 -0.5063
  145SAPE   O1215918   2.335   5.123  10.785  0.1051 -0.1039  0.0416
  145SAPE   O1115919   2.239   5.353  10.785  0.1478  0.2798 -0.3504
  145SAPE    C115920   2.133   5.299  10.709  0.7772  0.1987 -0.1049
  145SAPE    HA15921   2.096   5.199  10.740  2.2712 -0.1282  0.7017
  145SAPE    HB15922   2.047   5.369  10.713  1.2211  0.7351  0.1938
  145SAPE    C215923   2.161   5.293  10.557  0.0885  0.2168  0.0055
  145SAPE    HS15924   2.223   5.201  10.547  1.2966  1.1467 -1.6339
  145SAPE   O2115925   2.218   5.420  10.522  0.0703 -0.1531  0.0864
  145SAPE   C2115926   2.309   5.417  10.428  0.5257 -0.0513 -0.2703
  145SAPE   O2215927   2.352   5.313  10.378  0.2723  0.4638 -0.3838
  145SAPE   C2215928   2.372   5.551  10.402  0.2230 -0.2568 -0.0077
  145SAPE   H2R15929   2.394   5.599  10.499 -1.9901  4.0267 -1.3439
  145SAPE   H2S15930   2.473   5.544  10.356  1.1638 -0.6310  2.0212
  145SAPE    C315931   2.035   5.271  10.468  0.1493  0.6683  0.6083
  145SAPE    HX15932   1.963   5.355  10.477  0.0636  0.4514  2.1537
  145SAPE    HY15933   1.991   5.176  10.504  0.8688 -1.0804 -2.7158
  145SAPE   O3115934   2.064   5.258  10.328  0.6924  0.0376  0.1162
  145SAPE   C3115935   2.097   5.135  10.286  0.1841 -0.0290 -0.1417
  145SAPE   O3215936   2.096   5.032  10.353 -0.3006 -0.1743 -0.4473
  145SAPE   C3215937   2.138   5.146  10.142  0.0429  0.6390  0.0917
  145SAPE   H2X15938   2.248   5.132  10.139 -0.0433 -0.3871  1.1283
  145SAPE   H2Y15939   2.109   5.248  10.109  0.3535 -0.0083 -2.4153
  145SAPE   C2315940   2.272   5.643  10.316  0.3154  0.5660  0.0977
  145SAPE   H3R15941   2.292   5.750  10.335  0.6264  0.1623  2.3200
  145SAPE   H3S15942   2.169   5.632  10.355  1.0731  0.2696  2.1479
  145SAPE   C2415943   2.292   5.616  10.168  0.7972  0.1851 -0.2046
  145SAPE   H4R15944   2.283   5.506  10.159  1.4934 -0.0390  1.3820
  145SAPE   H4S15945   2.393   5.639  10.130  0.8100  0.1880 -0.1700
  145SAPE   C2515946   2.198   5.699  10.079 -0.1689 -0.1913  0.2992
  145SAPE   H5R15947   2.210   5.809  10.082 -2.4415  0.2202 -2.1816
  145SAPE   C2615948   2.114   5.677   9.979  0.0553  0.3912 -0.3200
  145SAPE   H6R15949   2.058   5.765   9.944 -0.8189  1.9854  4.3074
  145SAPE   C2715950   2.082   5.540   9.925  0.6599 -0.0253 -0.7554
  145SAPE   H7R15951   2.087   5.464  10.006  0.2870  1.0365  0.2939
  145SAPE   H7S15952   2.166   5.516   9.856  0.7186  0.9588 -1.0465
  145SAPE   C2815953   1.941   5.523   9.864  0.1592 -0.0521  0.3767
  145SAPE   H8R15954   1.871   5.467   9.928  0.0583 -2.3672 -1.6210
  145SAPE   C2915955   1.904   5.576   9.751  0.2045  0.3492  0.5756
  145SAPE   H9R15956   1.797   5.582   9.726  0.7179 -0.3243 -2.0522
  145SAPE  C21015957   1.984   5.656   9.650  0.9611 -0.3134 -0.4243
  145SAPE  H10R15958   2.056   5.722   9.703  0.5166 -0.6905  0.6737
  145SAPE  H10S15959   1.909   5.713   9.592  0.9443 -1.2130 -1.3098
  145SAPE  C21115960   2.069   5.572   9.562  0.5599 -0.1965 -0.8908
  145SAPE  H11R15961   2.143   5.514   9.620 -0.1075 -0.9833 -0.8157
  145SAPE  C21215962   2.049   5.556   9.429 -1.0863  0.2918 -0.0762
  145SAPE  H12R15963   2.123   5.496   9.376  1.6289  4.3037 -1.2931
  145SAPE  C21315964   1.939   5.608   9.344  0.0006 -0.0089  0.7567
  145SAPE  H13R15965   1.838   5.627   9.389 -0.4428 -0.5550  0.0071
  145SAPE  H13S15966   1.917   5.544   9.256 -2.9714  0.4633  1.0352
  145SAPE  C21415967   1.978   5.742   9.282 -0.5817  0.1468  0.4892
  145SAPE  H14R15968   2.034   5.806   9.352  2.0329 -1.0571 -0.4001
  145SAPE  C21515969   1.964   5.789   9.152 -0.3345 -0.0585 -0.8719
  145SAPE  H15R15970   1.997   5.891   9.126  1.1829 -1.0630 -3.2838
  145SAPE  C21615971   1.891   5.722   9.036  0.0068 -0.6561  0.1914
  145SAPE  H16R15972   1.817   5.791   8.992  0.3401  0.3434  1.1784
  145SAPE  H16S15973   1.833   5.630   9.060 -2.2968  0.8274  0.5800
  145SAPE  C21715974   1.987   5.668   8.925  0.1878 -0.4681  0.6243
  145SAPE  H17R15975   2.065   5.744   8.902 -2.4037  2.4291  0.8267
  145SAPE  H17S15976   1.930   5.646   8.832  1.7756  2.9837 -1.3527
  145SAPE  C21815977   2.045   5.526   8.950  0.0605  0.0571 -0.3074
  145SAPE  H18R15978   1.963   5.451   8.955 -1.4525  1.6613 -0.0616
  145SAPE  H18S15979   2.092   5.527   9.051 -0.1894  1.1393 -0.1915
  145SAPE  C21915980   2.143   5.476   8.844  0.4718 -0.6332 -0.2603
  145SAPE  H19R15981   2.231   5.543   8.835 -0.8274  0.8435 -3.2049
  145SAPE  H19S15982   2.089   5.474   8.747 -1.6042 -0.3668  0.8318
  145SAPE  C22015983   2.189   5.342   8.885  0.6325  0.4730 -0.3286
  145SAPE  H20R15984   2.268   5.308   8.814  1.2566  1.4625 -0.1306
  145SAPE  H20S15985   2.095   5.284   8.883 -0.2362  1.8504 -0.2780
  145SAPE  H20T15986   2.234   5.342   8.987  1.1582 -0.1669 -0.5483
  145SAPE   C3315987   2.066   5.044  10.042  0.4964 -0.9603 -0.4370
  145SAPE   H3X15988   1.956   5.060  10.041  0.5796 -0.4191 -1.5139
  145SAPE   H3Y15989   2.092   4.943  10.081  3.6783 -0.3064 -0.6721
  145SAPE   C3415990   2.116   5.053   9.899  0.4183 -0.3611  0.1566
  145SAPE   H4X15991   2.110   4.950   9.857  1.1927 -2.0148  3.6489
  145SAPE   H4Y15992   2.219   5.094   9.903 -0.1601  1.0593  3.1114
  145SAPE   C3515993   2.017   5.143   9.827  0.7296 -0.4039  0.1826
  145SAPE   H5X15994   1.981   5.233   9.880 -0.1867 -0.1031 -0.9193
  145SAPE   H5Y15995   1.926   5.080   9.817 -0.2813  1.0173  0.1731
  145SAPE   C3615996   2.078   5.174   9.686 -0.1897 -0.0926  0.5532
  145SAPE   H6X15997   2.186   5.198   9.696 -0.2002  1.3045 -1.9365
  145SAPE   H6Y15998   2.021   5.259   9.643 -2.6868 -0.1600  3.3671
  145SAPE   C3715999   2.076   5.059   9.583  0.8608  0.6435 -0.8069
  145SAPE   H7X16000   1.974   5.020   9.604  1.5037 -0.0403  1.3202
  145SAPE   H7Y16001   2.137   4.974   9.620 -1.3185 -0.2383  1.0795
  145SAPE   C3816002   2.098   5.111   9.438  0.0890  0.5601  1.0471
  145SAPE   H8X16003   2.202   5.147   9.420  0.0211  0.1162 -0.3840
  145SAPE   H8Y16004   2.031   5.198   9.424 -0.9543 -0.3959 -0.0833
  145SAPE   C3916005   2.057   5.003   9.328  0.8385  0.4072 -0.1444
  145SAPE   H9X16006   1.947   5.003   9.318  0.8882  0.9644 -0.6767
  145SAPE   H9Y16007   2.092   4.900   9.351  1.1835  0.3997 -0.6860
  145SAPE  C31016008   2.111   5.038   9.184  0.4946 -0.3236 -0.2519
  145SAPE  H10X16009   2.222   5.047   9.188  0.4520 -0.2768  1.0276
  145SAPE  H10Y16010   2.065   5.133   9.148 -0.6879 -1.0532 -0.7172
  145SAPE  C31116011   2.073   4.927   9.083 -0.1570 -0.4117 -0.2064
  145SAPE  H11X16012   1.966   4.931   9.113 -0.5740  1.9111 -1.6779
  145SAPE  H11Y16013   2.112   4.825   9.099  1.4949  0.7096  4.1338
  145SAPE  C31216014   2.095   4.973   8.941 -0.0100 -0.1983  0.3320
  145SAPE  H12X16015   2.195   5.016   8.921 -0.8166  1.7639  0.2769
  145SAPE  H12Y16016   2.029   5.061   8.926 -1.5691 -0.8333  2.8245
  145SAPE  C31316017   2.077   4.854   8.849  0.4909  0.1615 -0.6470
  145SAPE  H13X16018   2.076   4.890   8.744 -0.3516 -0.0052 -0.7034
  145SAPE  H13Y16019   1.980   4.805   8.871 -0.3489  1.8727 -0.3210
  145SAPE  C31416020   2.189   4.745   8.867  0.1324  0.1709  0.5678
  145SAPE  H14X16021   2.196   4.701   8.968 -1.9843  1.0257  1.1481
  145SAPE  H14Y16022   2.281   4.803   8.844  0.4985  0.2725  2.2219
  145SAPE  C31516023   2.160   4.630   8.769 -0.8790  0.4461 -1.1263
  145SAPE  H15X16024   2.099   4.675   8.688 -1.8616  1.9654  0.4032
  145SAPE  H15Y16025   2.100   4.549   8.816 -0.8791  0.6488 -0.7753
  145SAPE  C31616026   2.281   4.553   8.711  0.4532  0.2094 -0.5111
  145SAPE  H16X16027   2.352   4.520   8.789  2.8470  2.1741 -1.7228
  145SAPE  H16Y16028   2.350   4.616   8.652  1.1931 -0.3192 -0.2212
  145SAPE  C31716029   2.244   4.443   8.604  0.2915 -0.4197 -0.3983
  145SAPE  H17X16030   2.211   4.497   8.513 -0.3829 -1.3859 -0.7462
  145SAPE  H17Y16031   2.162   4.378   8.642  0.6776 -1.5964 -1.5223
  145SAPE  C31816032   2.355   4.354   8.567 -0.6803  0.0002  0.3834
  145SAPE  H18X16033   2.356   4.255   8.618  0.0038  0.0877  0.5570
  145SAPE  H18Y16034   2.458   4.395   8.576 -0.3520 -0.7477  0.1662
  145SAPE  H18Z16035   2.348   4.327   8.459  3.1811  1.3840 -0.3776
  146SAPE     N16036   0.041   5.390  11.031 -0.6419  0.1644 -0.0091
  146SAPE   HN116037  -0.048   5.438  11.055 -1.1682 -0.0548 -1.4589
  146SAPE   HN216038   0.013   5.300  10.988  1.1916 -0.0343 -0.8574
  146SAPE   HN316039   0.096   5.365  11.116 -1.2137 -1.0385  0.0245
  146SAPE   C1216040   0.127   5.454  10.924  0.3198  0.0641 -0.0558
  146SAPE  H12A16041   0.234   5.435  10.949 -0.0310 -1.3523  0.4632
  146SAPE  H12B16042   0.107   5.563  10.930  0.6839  0.5126 -4.0990
  146SAPE   C1116043   0.081   5.413  10.784  0.4255  0.7432  0.8343
  146SAPE  H11A16044   0.148   5.450  10.703  2.1658 -1.8222  0.9625
  146SAPE  H11B16045  -0.024   5.446  10.771 -0.4064 -1.9984 -0.1326
  146SAPE     P16046   0.179   5.182  10.687 -0.5621  0.0332 -0.2386
  146SAPE   O1316047   0.281   5.133  10.788  0.1521 -0.6018  0.5467
  146SAPE   O1416048   0.109   5.082  10.606  0.1377 -0.2097 -0.2376
  146SAPE   O1216049   0.077   5.266  10.771 -0.5945  0.3048 -0.5640
  146SAPE   O1116050   0.247   5.284  10.599 -0.4894  0.1875  0.3346
  146SAPE    C116051   0.245   5.280  10.453  0.0926 -1.1743 -0.8361
  146SAPE    HA16052   0.286   5.184  10.416  0.1713 -1.0146 -1.1711
  146SAPE    HB16053   0.138   5.282  10.425 -0.0646 -1.4150 -0.2717
  146SAPE    C216054   0.315   5.406  10.395 -0.0930  0.3890  0.6151
  146SAPE    HS16055   0.267   5.497  10.436 -1.0360  0.1269  0.1168
  146SAPE   O2116056   0.310   5.390  10.254 -0.3850  0.0219  0.2307
  146SAPE   C2116057   0.262   5.496  10.189 -0.3932  0.5260  0.1632
  146SAPE   O2216058   0.224   5.598  10.245 -0.1477 -0.0217  0.1469
  146SAPE   C2216059   0.248   5.479  10.037 -0.1627  1.0391  0.0506
  146SAPE   H2R16060   0.344   5.461   9.984 -0.7667 -0.0762 -0.7075
  146SAPE   H2S16061   0.188   5.386  10.023 -0.0511  1.2324 -2.0629
  146SAPE    C316062   0.463   5.408  10.439 -0.2652  0.4274 -0.2688
  146SAPE    HX16063   0.505   5.309  10.414  1.5441  0.9243  0.5629
  146SAPE    HY16064   0.458   5.415  10.550 -0.9252  0.0664 -0.2703
  146SAPE   O3116065   0.531   5.519  10.375  0.3634  0.1751 -0.0013
  146SAPE   C3116066   0.657   5.529  10.402 -0.4646  0.7565 -0.2581
  146SAPE   O3216067   0.723   5.457  10.477 -0.1007  0.1602  0.0190
  146SAPE   C3216068   0.710   5.650  10.322 -0.6345  0.2590 -0.5433
  146SAPE   H2X16069   0.767   5.702  10.401 -1.4645  0.3527  0.0095
  146SAPE   H2Y16070   0.621   5.711  10.296 -0.3812  1.7937  1.9056
  146SAPE   C2316071   0.181   5.602   9.989 -0.4162 -0.5285 -0.4523
  146SAPE   H3R16072   0.253   5.686   9.988 -1.6070  0.5530 -3.0834
  146SAPE   H3S16073   0.094   5.622  10.055  1.4416 -0.5387  2.1852
  146SAPE   C2416074   0.148   5.580   9.841  0.3353 -0.0180  0.2892
  146SAPE   H4R16075   0.071   5.656   9.812 -1.0419 -1.4910 -0.0485
  146SAPE   H4S16076   0.091   5.487   9.818  0.0790  0.6593 -2.1026
  146SAPE   C2516077   0.268   5.589   9.747 -0.6851 -0.5638 -0.2134
  146SAPE   H5R16078   0.370   5.583   9.786 -0.2681  0.9844 -1.0059
  146SAPE   C2616079   0.248   5.576   9.614  0.3919  0.9007  0.1790
  146SAPE   H6R16080   0.329   5.570   9.540 -0.1180 -1.7728 -0.2620
  146SAPE   C2716081   0.116   5.562   9.537  0.1569  0.0577 -0.6418
  146SAPE   H7R16082   0.111   5.629   9.449  0.3830  1.2364  0.2153
  146SAPE   H7S16083   0.047   5.605   9.614  1.4336  1.5770 -0.2888
  146SAPE   C2816084   0.055   5.420   9.515  0.1922  0.6353  0.5793
  146SAPE   H8R16085   0.045   5.349   9.598  1.7081 -1.0195 -0.5727
  146SAPE   C2916086   0.038   5.376   9.389  0.6362  0.4322 -0.0182
  146SAPE   H9R16087  -0.008   5.277   9.373  0.5519  0.6248 -1.0399
  146SAPE  C21016088   0.074   5.455   9.265  0.2507  0.3231  0.1590
  146SAPE  H10R16089   0.005   5.542   9.264 -3.0846 -2.1391  0.4194
  146SAPE  H10S16090   0.040   5.390   9.181  0.4594 -2.1539  1.8911
  146SAPE  C21116091   0.221   5.472   9.249  0.2218  0.5643  0.1022
  146SAPE  H11R16092   0.280   5.439   9.337  3.1369  2.1189 -1.1138
  146SAPE  C21216093   0.290   5.509   9.140 -0.1323 -0.0693  0.5543
  146SAPE  H12R16094   0.400   5.508   9.141 -0.1205 -0.2706 -0.1211
  146SAPE  C21316095   0.245   5.543   9.005 -0.2944 -0.9420  0.4728
  146SAPE  H13R16096   0.224   5.443   8.960 -0.8185 -0.5552 -0.1540
  146SAPE  H13S16097   0.324   5.575   8.935 -2.6827  0.6784 -1.6454
  146SAPE  C21416098   0.137   5.643   8.991 -0.3871 -0.1058 -0.5707
  146SAPE  H14R16099   0.144   5.729   9.059  1.0052  0.1410 -1.0002
  146SAPE  C21516100   0.029   5.625   8.905 -0.2004  0.2814 -0.0656
  146SAPE  H15R16101  -0.042   5.706   8.882  0.3572  0.7788 -0.0643
  146SAPE  C21616102   0.006   5.510   8.817 -0.3859  0.5141  0.3204
  146SAPE  H16R16103  -0.084   5.452   8.847 -1.3605  0.3729 -2.5392
  146SAPE  H16S16104   0.084   5.432   8.812 -1.9701 -1.1407  0.3002
  146SAPE  C21716105  -0.016   5.544   8.664  0.2110 -0.0225  0.4384
  146SAPE  H17R16106   0.078   5.575   8.614  0.9609 -2.1782  0.3876
  146SAPE  H17S16107  -0.100   5.616   8.662 -1.5546 -1.9145  1.8847
  146SAPE  C21816108  -0.064   5.420   8.591  0.1468  0.0239 -0.1898
  146SAPE  H18R16109  -0.160   5.383   8.632 -0.3307  1.2583 -0.1381
  146SAPE  H18S16110   0.002   5.332   8.609  0.8670 -0.4428 -4.1487
  146SAPE  C21916111  -0.089   5.439   8.437 -0.3753  0.5750 -0.0218
  146SAPE  H19R16112  -0.157   5.526   8.422 -0.6495  0.3816  0.1080
  146SAPE  H19S16113  -0.144   5.351   8.398  0.4184 -0.3241  0.8344
  146SAPE  C22016114   0.036   5.463   8.345  0.5700  0.2075 -0.8730
  146SAPE  H20R16115  -0.004   5.515   8.255 -0.9524 -1.1769 -1.0484
  146SAPE  H20S16116   0.078   5.362   8.330 -1.1169 -0.7257  0.3307
  146SAPE  H20T16117   0.108   5.532   8.394 -0.5822  1.5548 -0.9956
  146SAPE   C3316118   0.799   5.623  10.200  0.0931  0.2263  0.2454
  146SAPE   H3X16119   0.754   5.569  10.114 -0.8904 -0.7676  1.3453
  146SAPE   H3Y16120   0.869   5.540  10.223 -0.2542 -0.3491 -0.7013
  146SAPE   C3416121   0.885   5.744  10.157  0.3490  0.4863 -0.2996
  146SAPE   H4X16122   0.953   5.758  10.244  0.2178 -0.5261 -0.0160
  146SAPE   H4Y16123   0.825   5.834  10.134 -0.2504 -0.0454 -0.8540
  146SAPE   C3516124   0.973   5.714  10.040 -0.6911 -0.0744 -0.5227
  146SAPE   H5X16125   1.024   5.618  10.060  0.5691  1.0285  2.0006
  146SAPE   H5Y16126   1.047   5.796  10.034 -2.1985  1.7371  2.7679
  146SAPE   C3616127   0.894   5.704   9.913 -0.6215  0.3089  0.3714
  146SAPE   H6X16128   0.834   5.796   9.892  0.3147  0.3509 -2.6852
  146SAPE   H6Y16129   0.824   5.618   9.910  0.5991 -0.7393  0.9020
  146SAPE   C3716130   0.983   5.699   9.787 -0.0663 -0.0217 -0.1854
  146SAPE   H7X16131   1.052   5.612   9.791 -0.9313 -0.7257 -0.4270
  146SAPE   H7Y16132   1.033   5.799   9.787 -1.1804  0.6220 -2.6661
  146SAPE   C3816133   0.918   5.707   9.651  0.4197 -0.0493 -0.5554
  146SAPE   H8X16134   0.875   5.809   9.643  1.1032  0.1086 -4.7899
  146SAPE   H8Y16135   0.834   5.635   9.645  1.2926 -1.4099  2.0255
  146SAPE   C3916136   1.024   5.702   9.534  0.3222 -0.3790 -0.8667
  146SAPE   H9X16137   1.096   5.621   9.558 -0.6597 -1.3002 -0.9603
  146SAPE   H9Y16138   1.070   5.803   9.544 -2.6507  1.2067 -2.0182
  146SAPE  C31016139   0.955   5.700   9.401  0.3129  0.0329  0.0616
  146SAPE  H10X16140   0.898   5.794   9.385 -0.7724 -0.5523  0.4182
  146SAPE  H10Y16141   0.890   5.612   9.382  3.3732 -2.0318 -1.8598
  146SAPE  C31116142   1.057   5.708   9.287  0.8269 -0.0499  0.0396
  146SAPE  H11X16143   1.120   5.617   9.288 -0.6542 -1.1629 -1.6606
  146SAPE  H11Y16144   1.121   5.796   9.306  1.0890  0.1433 -1.5980
  146SAPE  C31216145   0.999   5.730   9.153  0.1291  0.0671  0.3090
  146SAPE  H12X16146   0.958   5.833   9.143 -5.5847 -1.9309 -0.5274
  146SAPE  H12Y16147   0.904   5.674   9.144 -1.2178  1.5988  3.3556
  146SAPE  C31316148   1.093   5.672   9.045 -0.3142 -0.2566 -0.1659
  146SAPE  H13X16149   1.135   5.576   9.080  1.8120  1.1471  1.3662
  146SAPE  H13Y16150   1.184   5.735   9.037 -1.7178  1.6820 -1.7777
  146SAPE  C31416151   1.028   5.670   8.905 -0.4067 -0.2719 -0.4547
  146SAPE  H14X16152   0.985   5.772   8.898 -1.2631 -0.6440 -0.6181
  146SAPE  H14Y16153   0.935   5.610   8.899 -0.8399  0.3743 -0.3006
  146SAPE  C31516154   1.123   5.637   8.796 -0.3309 -0.0911  0.5279
  146SAPE  H15X16155   1.062   5.619   8.705 -0.0419 -0.8434  0.4810
  146SAPE  H15Y16156   1.176   5.541   8.811 -0.5868 -0.8409 -2.6428
  146SAPE  C31616157   1.223   5.755   8.755  0.9525  0.3094  0.5369
  146SAPE  H16X16158   1.317   5.722   8.705  1.1392 -0.5149  1.3961
  146SAPE  H16Y16159   1.254   5.802   8.851 -1.2374  0.1092  1.3976
  146SAPE  C31716160   1.147   5.859   8.668  0.6194  0.4479  0.2317
  146SAPE  H17X16161   1.100   5.927   8.743 -0.3096  0.2020 -0.1163
  146SAPE  H17Y16162   1.073   5.803   8.608  1.7074 -0.9571  0.1439
  146SAPE  C31816163   1.218   5.952   8.569 -0.0269  0.5658  0.0962
  146SAPE  H18X16164   1.274   6.031   8.623 -0.6782  3.4167 -3.0081
  146SAPE  H18Y16165   1.145   6.012   8.510 -0.8919  0.0360  0.6034
  146SAPE  H18Z16166   1.286   5.895   8.502 -0.3186  0.2858  0.0324
  147SAPE     N16167   4.506   1.868  10.718 -0.4672  0.4543  0.7027
  147SAPE   HN116168   4.528   1.951  10.659 -0.3721  0.3553  0.5974
  147SAPE   HN216169   4.464   1.791  10.662 -1.4973  0.0109  2.0313
  147SAPE   HN316170   4.434   1.899  10.786  0.8822  1.4561  1.7320
  147SAPE   C1216171   4.643   1.830  10.779 -0.1249  0.4360 -0.4018
  147SAPE  H12A16172   4.709   1.800  10.695 -0.7547 -1.5585 -0.2588
  147SAPE  H12B16173   4.634   1.737  10.839 -0.7860  1.1645  0.6635
  147SAPE   C1116174   4.696   1.938  10.876 -0.1650 -0.2788  0.1429
  147SAPE  H11A16175   4.795   1.912  10.918 -0.0643 -0.4158 -0.1701
  147SAPE  H11B16176   4.619   1.935  10.956 -0.4753  0.1439 -0.1350
  147SAPE     P16177   4.831   2.140  10.770  0.0187 -0.1500 -0.3957
  147SAPE   O1316178   4.902   2.192  10.889  0.1559 -0.2035 -0.0490
  147SAPE   O1416179   4.903   2.039  10.694 -0.8186 -0.0640 -0.7208
  147SAPE   O1216180   4.697   2.069  10.819 -0.3720 -0.0753  0.1767
  147SAPE   O1116181   4.796   2.258  10.668  0.1479  0.1764  0.4492
  147SAPE    C116182   4.659   2.292  10.644 -0.3373  0.2082 -0.1421
  147SAPE    HA16183   4.586   2.220  10.686  0.7143 -0.2102  1.0239
  147SAPE    HB16184   4.628   2.389  10.690 -2.5333 -0.7276  0.4970
  147SAPE    C216185   4.619   2.292  10.496  0.7297 -1.0138  0.5192
  147SAPE    HS16186   4.509   2.285  10.484  0.3766  1.7692  1.3330
  147SAPE   O2116187   4.686   2.183  10.433  0.6472 -0.2544 -0.5071
  147SAPE   C2116188   4.642   2.064  10.455  0.9964 -0.0768 -0.3176
  147SAPE   O2216189   4.548   2.041  10.530 -0.2699  0.7693  0.7186
  147SAPE   C2216190   4.718   1.956  10.387  0.2851  0.4686 -0.0480
  147SAPE   H2R16191   4.768   1.995  10.296 -0.5227 -1.8513 -1.5460
  147SAPE   H2S16192   4.800   1.920  10.453  0.9353  0.6749 -0.7344
  147SAPE    C316193   4.649   2.423  10.420 -0.5905  0.8113  0.1069
  147SAPE    HX16194   4.759   2.436  10.422 -0.3905 -0.5764 -0.7575
  147SAPE    HY16195   4.610   2.514  10.470  0.9387  1.2180  0.5834
  147SAPE   O3116196   4.607   2.413  10.278 -0.8947 -0.1085  0.3410
  147SAPE   C3116197   4.699   2.366  10.192 -0.3238  0.6201 -0.2851
  147SAPE   O3216198   4.816   2.336  10.216  0.8975  0.4517 -0.1260
  147SAPE   C3216199   4.631   2.338  10.061  1.1386  0.1851  0.2329
  147SAPE   H2X16200   4.677   2.403   9.983 -1.1635  0.3450 -1.0653
  147SAPE   H2Y16201   4.520   2.346  10.061  0.9217 -2.1210  1.6060
  147SAPE   C2316202   4.625   1.835  10.357 -0.1534 -0.0306  0.3619
  147SAPE   H3R16203   4.573   1.795  10.447 -1.8493 -1.4412 -1.1678
  147SAPE   H3S16204   4.682   1.746  10.322  1.2997  0.1064  2.2726
  147SAPE   C2416205   4.510   1.876  10.258 -0.3549 -0.1937 -0.7583
  147SAPE   H4R16206   4.563   1.920  10.170  1.5136  2.9823  1.7461
  147SAPE   H4S16207   4.452   1.945  10.322  2.1497  2.3325 -1.0408
  147SAPE   C2516208   4.439   1.745  10.225 -0.3772 -0.3931  0.3676
  147SAPE   H5R16209   4.424   1.668  10.302 -2.4986 -0.3847  0.0235
  147SAPE   C2616210   4.412   1.701  10.099  0.2987 -0.0430 -0.2947
  147SAPE   H6R16211   4.364   1.602  10.090 -0.5564  0.2459  0.9447
  147SAPE   C2716212   4.435   1.773   9.971 -0.0393  0.1449  0.4089
  147SAPE   H7R16213   4.546   1.776   9.969  0.1050 -2.3361  1.5100
  147SAPE   H7S16214   4.403   1.880   9.972  1.2060  0.5514  1.7009
  147SAPE   C2816215   4.397   1.695   9.847 -0.3137 -0.4168  0.7013
  147SAPE   H8R16216   4.443   1.595   9.839  2.2259  0.7985 -1.4840
  147SAPE   C2916217   4.320   1.716   9.739  0.4964 -0.1205 -0.2741
  147SAPE   H9R16218   4.298   1.648   9.656 -2.0453  1.7167 -1.2488
  147SAPE  C21016219   4.253   1.853   9.723 -0.1487 -0.4514 -0.2268
  147SAPE  H10R16220   4.222   1.903   9.817 -0.5052 -0.4605 -0.3369
  147SAPE  H10S16221   4.162   1.835   9.661  0.4510 -1.4460 -0.8562
  147SAPE  C21116222   4.350   1.957   9.675 -0.5526  0.6290  0.1922
  147SAPE  H11R16223   4.395   2.025   9.749  1.2821  0.7185 -0.9408
  147SAPE  C21216224   4.382   1.973   9.544 -0.3126  0.3588  0.3528
  147SAPE  H12R16225   4.446   2.061   9.524 -1.4478  0.6373 -2.6519
  147SAPE  C21316226   4.324   1.889   9.435 -0.1366  1.0332 -0.3500
  147SAPE  H13R16227   4.222   1.929   9.420 -1.2346 -0.9031  1.4744
  147SAPE  H13S16228   4.310   1.783   9.464  0.9514  0.5052 -1.5972
  147SAPE  C21416229   4.404   1.870   9.307  0.2828 -0.4999  0.2045
  147SAPE  H14R16230   4.512   1.889   9.321  0.3431 -0.6205 -0.1018
  147SAPE  C21516231   4.364   1.821   9.193  0.4696 -0.3715 -0.9336
  147SAPE  H15R16232   4.441   1.815   9.115  3.5094 -0.4579  1.8092
  147SAPE  C21616233   4.225   1.764   9.163 -0.0624 -0.1260 -0.4032
  147SAPE  H16R16234   4.163   1.821   9.090  1.4038 -0.6826 -2.1703
  147SAPE  H16S16235   4.166   1.767   9.257  1.5706  4.3795  0.7608
  147SAPE  C21716236   4.237   1.622   9.114 -0.2845  0.3277  0.2564
  147SAPE  H17R16237   4.310   1.568   9.178 -1.1616  0.2953  1.2561
  147SAPE  H17S16238   4.280   1.618   9.012 -0.5664  1.3009  0.0886
  147SAPE  C21816239   4.106   1.535   9.119  0.4015  0.2514 -0.7742
  147SAPE  H18R16240   4.054   1.545   9.217 -1.2634 -0.1141 -1.5967
  147SAPE  H18S16241   4.138   1.431   9.098 -1.0874 -0.1571 -1.1151
  147SAPE  C21916242   3.997   1.558   9.017 -0.8400  0.5177  0.0867
  147SAPE  H19R16243   4.047   1.558   8.918  0.7568  1.4014  0.8579
  147SAPE  H19S16244   3.957   1.661   9.031 -2.1578  0.0621 -0.1666
  147SAPE  C22016245   3.888   1.449   9.008  0.4052  0.4678  0.2143
  147SAPE  H20R16246   3.831   1.460   9.103  0.6487  0.8231  0.3236
  147SAPE  H20S16247   3.930   1.347   8.996  0.1351  0.0213  2.5728
  147SAPE  H20T16248   3.820   1.475   8.923  0.5803 -1.7522 -0.6717
  147SAPE   C3316249   4.651   2.190  10.017  0.0594  0.9912 -0.7644
  147SAPE   H3X16250   4.596   2.123  10.086  3.5018 -0.2586  0.9956
  147SAPE   H3Y16251   4.757   2.159  10.029 -0.3957 -0.1952  0.4129
  147SAPE   C3416252   4.609   2.161   9.870 -0.1797 -0.1088 -0.9260
  147SAPE   H4X16253   4.526   2.228   9.841 -0.4599 -1.2430 -2.9360
  147SAPE   H4Y16254   4.576   2.055   9.863  0.8478 -0.4287 -1.1751
  147SAPE   C3516255   4.728   2.190   9.769  0.4465 -0.8711  0.1197
  147SAPE   H5X16256   4.809   2.114   9.769  0.9234 -0.3812 -0.8182
  147SAPE   H5Y16257   4.771   2.289   9.794  1.2630 -0.8305 -1.3106
  147SAPE   C3616258   4.680   2.209   9.620  0.0550  0.2683 -0.7028
  147SAPE   H6X16259   4.595   2.281   9.618  0.1721  0.4999  1.2203
  147SAPE   H6Y16260   4.644   2.112   9.580  1.0099 -0.5764  0.4338
  147SAPE   C3716261   4.795   2.259   9.527  0.4487  0.1678 -0.7467
  147SAPE   H7X16262   4.869   2.178   9.511 -0.7959 -1.3049  0.6331
  147SAPE   H7Y16263   4.844   2.348   9.573  1.4856 -0.6278 -0.2666
  147SAPE   C3816264   4.749   2.293   9.385 -0.0641 -0.3328 -0.3627
  147SAPE   H8X16265   4.833   2.339   9.328  0.3913 -2.5695 -1.6184
  147SAPE   H8Y16266   4.657   2.353   9.398  0.9359  1.5212 -1.4418
  147SAPE   C3916267   4.719   2.177   9.293  0.8076 -0.1084 -0.1200
  147SAPE   H9X16268   4.623   2.132   9.327  1.5796 -2.0962 -0.3939
  147SAPE   H9Y16269   4.799   2.099   9.294  0.8108 -0.1612  2.5561
  147SAPE  C31016270   4.688   2.216   9.145  0.1213  0.2157  0.1226
  147SAPE  H10X16271   4.783   2.257   9.106 -0.9144  1.3399 -1.3793
  147SAPE  H10Y16272   4.611   2.296   9.135 -1.0647 -1.0321 -1.1178
  147SAPE  C31116273   4.650   2.092   9.063  0.5138 -0.7792  0.3812
  147SAPE  H11X16274   4.553   2.060   9.107  0.0976 -0.2311 -0.1155
  147SAPE  H11Y16275   4.718   2.005   9.077  0.3191 -0.6826  2.1279
  147SAPE  C31216276   4.634   2.117   8.907  0.4507 -0.1779 -0.7347
  147SAPE  H12X16277   4.731   2.139   8.859 -1.0529  5.2879 -1.9290
  147SAPE  H12Y16278   4.571   2.208   8.916 -2.1633 -1.8582 -0.8037
  147SAPE  C31316279   4.564   2.007   8.838  0.4422 -0.1388 -0.0198
  147SAPE  H13X16280   4.526   2.053   8.744  0.0593 -1.8573 -0.7431
  147SAPE  H13Y16281   4.470   1.990   8.895  0.5086 -0.6237 -0.0529
  147SAPE  C31416282   4.654   1.888   8.799 -0.0837 -0.3759  0.3900
  147SAPE  H14X16283   4.637   1.799   8.863 -0.0674 -0.5420  0.1660
  147SAPE  H14Y16284   4.763   1.912   8.803  0.0643 -0.5946 -1.5841
  147SAPE  C31516285   4.619   1.838   8.658 -0.8316 -0.8365 -0.3689
  147SAPE  H15X16286   4.689   1.753   8.639 -0.0762 -0.3943  0.3874
  147SAPE  H15Y16287   4.660   1.916   8.590 -1.7491 -1.2434 -1.4276
  147SAPE  C31616288   4.472   1.800   8.640  0.2682  0.5082  0.5989
  147SAPE  H16X16289   4.454   1.764   8.536  0.1161 -1.4709  1.2711
  147SAPE  H16Y16290   4.410   1.888   8.669  0.4293  0.9934 -0.4615
  147SAPE  C31716291   4.433   1.676   8.730  0.2678  0.5306  0.1081
  147SAPE  H17X16292   4.460   1.708   8.833  2.7170  1.9624 -0.8656
  147SAPE  H17Y16293   4.511   1.601   8.702 -0.8056 -0.8224  0.6573
  147SAPE  C31816294   4.287   1.624   8.718 -0.7339  0.5642  0.2033
  147SAPE  H18X16295   4.267   1.535   8.781 -0.2203  0.6766  0.5342
  147SAPE  H18Y16296   4.276   1.595   8.611  2.4866 -1.0910  0.1875
  147SAPE  H18Z16297   4.213   1.701   8.749 -1.0022 -0.3520  1.9145
  148SAPE     N16298   4.816   2.419  11.006 -0.0054  0.4583 -0.6793
  148SAPE   HN116299   4.755   2.399  11.088  1.6112 -0.5452  0.3458
  148SAPE   HN216300   4.775   2.476  10.930 -1.1453  0.9067  0.2454
  148SAPE   HN316301   4.854   2.328  10.972 -0.7074  0.9237 -2.8328
  148SAPE   C1216302   4.924   2.506  11.050 -0.1975 -0.5305  0.3889
  148SAPE  H12A16303   4.956   2.465  11.148 -0.1817  0.9841  1.0560
  148SAPE  H12B16304   4.883   2.609  11.065 -2.3916 -1.3229  0.1422
  148SAPE   C1116305   5.046   2.506  10.952 -1.1040 -0.5206 -0.2227
  148SAPE  H11A16306   5.073   2.400  10.936 -1.4733 -0.4347 -1.4662
  148SAPE  H11B16307   5.134   2.558  10.994 -1.7141 -0.0170  0.4641
  148SAPE     P16308   5.024   2.720  10.798  0.0021  0.2379 -0.4238
  148SAPE   O1316309   4.998   2.797  10.919 -0.2826 -0.2438 -0.4880
  148SAPE   O1416310   5.156   2.744  10.733 -0.3160 -0.1095 -0.0494
  148SAPE   O1216311   5.008   2.565  10.828  0.4885  0.4935 -0.9523
  148SAPE   O1116312   4.914   2.740  10.689 -0.3707 -0.1119 -0.0897
  148SAPE    C116313   4.899   2.657  10.571  0.3063 -0.3971  0.8502
  148SAPE    HA16314   4.997   2.624  10.529 -0.7864 -3.3364  0.3385
  148SAPE    HB16315   4.827   2.577  10.597 -0.0095 -0.9199 -1.3677
  148SAPE    C216316   4.826   2.746  10.467 -0.0122  0.0786 -0.9441
  148SAPE    HS16317   4.861   2.851  10.482 -0.0691 -0.1660  1.1877
  148SAPE   O2116318   4.682   2.734  10.487  0.1777 -0.6514  0.2724
  148SAPE   C2116319   4.619   2.838  10.436 -0.4865 -0.1751  0.6083
  148SAPE   O2216320   4.667   2.943  10.406  0.8996 -0.2355  0.6408
  148SAPE   C2216321   4.469   2.809  10.422 -0.3762 -0.3707 -0.1930
  148SAPE   H2R16322   4.456   2.700  10.436  1.5935 -0.6141  0.0048
  148SAPE   H2S16323   4.413   2.858  10.504 -1.4636  1.0698 -1.7235
  148SAPE    C316324   4.871   2.711  10.318 -0.1030 -0.9991 -0.0798
  148SAPE    HX16325   4.852   2.606  10.288 -0.9223 -0.6295 -0.8979
  148SAPE    HY16326   4.981   2.716  10.301 -0.1587 -1.6487 -0.6696
  148SAPE   O3116327   4.812   2.804  10.220 -0.0576 -0.1902  0.2043
  148SAPE   C3116328   4.879   2.912  10.197 -0.7698  0.3960 -0.6232
  148SAPE   O3216329   4.984   2.948  10.251 -0.1491  0.6115  0.3648
  148SAPE   C3216330   4.812   2.989  10.079 -0.4483 -0.2226  0.3831
  148SAPE   H2X16331   4.865   3.084  10.056 -0.1057 -0.4684  0.1625
  148SAPE   H2Y16332   4.709   3.009  10.115 -0.2352  1.0039  0.3555
  148SAPE   C2316333   4.414   2.862  10.288  0.3270  0.1559  0.2227
  148SAPE   H3R16334   4.454   2.965  10.275 -0.7419  0.6276  0.5694
  148SAPE   H3S16335   4.304   2.870  10.272  0.2571 -2.4908 -1.3058
  148SAPE   C2416336   4.454   2.773  10.164 -0.1290  0.3409 -0.2549
  148SAPE   H4R16337   4.404   2.675  10.176 -1.1873  0.8366 -0.5228
  148SAPE   H4S16338   4.563   2.761  10.180 -0.1740  1.8564  1.6420
  148SAPE   C2516339   4.430   2.834  10.036 -0.3635 -0.4233  0.6607
  148SAPE   H5R16340   4.425   2.944  10.036 -3.5885 -0.4683 -0.0891
  148SAPE   C2616341   4.411   2.769   9.915  0.0299  0.6573 -0.3844
  148SAPE   H6R16342   4.391   2.834   9.829 -3.6582  1.3467  0.8228
  148SAPE   C2716343   4.417   2.618   9.895 -0.1862 -0.0359 -0.1346
  148SAPE   H7R16344   4.325   2.565   9.862 -1.3342  0.9704  1.3485
  148SAPE   H7S16345   4.438   2.566   9.991  2.7240 -1.0719 -1.2117
  148SAPE   C2816346   4.521   2.583   9.794 -0.2402 -0.2685  0.5105
  148SAPE   H8R16347   4.620   2.585   9.842  0.4843  3.1888 -0.8321
  148SAPE   C2916348   4.502   2.534   9.666 -0.6925 -0.2521 -0.3036
  148SAPE   H9R16349   4.595   2.503   9.616  0.1965 -0.4827  1.3998
  148SAPE  C21016350   4.373   2.520   9.598 -0.8177  0.8137  0.5731
  148SAPE  H10R16351   4.319   2.617   9.587 -1.4228  0.3335 -1.0781
  148SAPE  H10S16352   4.320   2.460   9.675 -0.7880  0.0891  0.0496
  148SAPE  C21116353   4.369   2.432   9.476 -0.0725  0.9326 -0.7906
  148SAPE  H11R16354   4.369   2.323   9.491 -1.4217  1.0385  0.1489
  148SAPE  C21216355   4.376   2.479   9.351  0.1019  0.8658 -0.0518
  148SAPE  H12R16356   4.367   2.403   9.272  0.6083  0.7454  0.0047
  148SAPE  C21316357   4.391   2.619   9.309  0.0866 -0.6223 -0.2491
  148SAPE  H13R16358   4.392   2.688   9.396 -0.2319  0.2103 -0.8991
  148SAPE  H13S16359   4.300   2.654   9.258  0.3151 -1.1852 -1.0592
  148SAPE  C21416360   4.505   2.633   9.203  0.2766 -0.3370 -0.1418
  148SAPE  H14R16361   4.597   2.680   9.241  0.4927 -1.5924  0.9615
  148SAPE  C21516362   4.489   2.613   9.072 -0.1658 -0.2253  0.3590
  148SAPE  H15R16363   4.580   2.630   9.012  0.6704 -1.6728  1.1356
  148SAPE  C21616364   4.365   2.570   8.996 -0.0718 -0.2404 -0.2486
  148SAPE  H16R16365   4.335   2.661   8.939  4.0371  1.7775  0.3976
  148SAPE  H16S16366   4.281   2.540   9.062  1.3669 -5.0764 -0.2759
  148SAPE  C21716367   4.400   2.443   8.913  0.7784 -0.8756 -0.0558
  148SAPE  H17R16368   4.310   2.379   8.924  1.9399 -2.4357  0.7600
  148SAPE  H17S16369   4.483   2.383   8.956 -0.2741 -2.4812 -0.1570
  148SAPE  C21816370   4.430   2.485   8.764  0.2006 -0.8789  0.9288
  148SAPE  H18R16371   4.529   2.536   8.768 -0.0293  0.0580 -2.4627
  148SAPE  H18S16372   4.353   2.558   8.730 -0.4690 -0.8831  2.3629
  148SAPE  C21916373   4.430   2.366   8.667 -0.5355 -0.5113 -0.0310
  148SAPE  H19R16374   4.370   2.394   8.577 -1.0222 -0.9112  0.1649
  148SAPE  H19S16375   4.385   2.272   8.704  2.0945 -1.8153  0.1017
  148SAPE  C22016376   4.572   2.344   8.614 -0.4668  0.2750 -0.4183
  148SAPE  H20R16377   4.648   2.398   8.674 -1.3715  1.1235 -0.0001
  148SAPE  H20S16378   4.574   2.358   8.504 -1.6708 -0.6019 -0.5743
  148SAPE  H20T16379   4.587   2.235   8.628 -2.1755 -0.3702 -2.8593
  148SAPE   C3316380   4.797   2.902   9.954  0.3100  0.6186 -0.6019
  148SAPE   H3X16381   4.762   2.798   9.968  3.1761 -0.2540  0.8267
  148SAPE   H3Y16382   4.903   2.894   9.921  0.7996  1.5650  0.6790
  148SAPE   C3416383   4.749   2.982   9.838  0.5738  0.1901 -0.2771
  148SAPE   H4X16384   4.807   3.076   9.823 -1.1119  1.8810  2.7876
  148SAPE   H4Y16385   4.645   3.010   9.863  0.5154 -1.4517  1.5592
  148SAPE   C3516386   4.746   2.911   9.700  0.4095  0.2721 -0.3774
  148SAPE   H5X16387   4.666   2.835   9.699  0.8801 -0.2293 -0.5092
  148SAPE   H5Y16388   4.837   2.855   9.669  0.2295 -0.1848 -0.0821
  148SAPE   C3616389   4.735   3.000   9.571  0.1283  0.1034 -0.0721
  148SAPE   H6X16390   4.839   3.019   9.537 -0.3784 -0.6644 -2.2106
  148SAPE   H6Y16391   4.692   3.099   9.598  2.2356  0.8094  0.8427
  148SAPE   C3716392   4.640   2.929   9.472  0.3801  0.0314 -0.2514
  148SAPE   H7X16393   4.545   2.912   9.527  0.7612  4.4714  2.2786
  148SAPE   H7Y16394   4.687   2.832   9.444  0.2288  0.1662 -0.9816
  148SAPE   C3816395   4.619   3.009   9.345  0.1644 -0.8274 -0.1778
  148SAPE   H8X16396   4.584   3.112   9.366  0.6594 -1.0107  1.6732
  148SAPE   H8Y16397   4.558   2.950   9.272  2.2299 -1.8275 -1.1811
  148SAPE   C3916398   4.748   3.029   9.262 -0.1325 -1.0059  0.5206
  148SAPE   H9X16399   4.778   2.931   9.219 -0.1713 -0.4559 -0.8260
  148SAPE   H9Y16400   4.829   3.048   9.334  1.7534  0.8684 -1.9136
  148SAPE  C31016401   4.745   3.134   9.157 -0.1957  0.8179  0.6419
  148SAPE  H10X16402   4.639   3.145   9.125 -1.2067 -1.3318  2.8746
  148SAPE  H10Y16403   4.802   3.104   9.067  0.6391  0.2791  1.3324
  148SAPE  C31116404   4.797   3.265   9.204 -0.5300 -0.2120  0.9646
  148SAPE  H11X16405   4.907   3.262   9.217 -0.4040  0.5409  0.1881
  148SAPE  H11Y16406   4.755   3.295   9.302 -1.5880  1.9538 -0.0797
  148SAPE  C31216407   4.764   3.378   9.100  0.2062  0.4031  0.6152
  148SAPE  H12X16408   4.770   3.474   9.156 -1.5133  0.1194  1.3570
  148SAPE  H12Y16409   4.661   3.366   9.062  1.3047 -3.3433 -1.7420
  148SAPE  C31316410   4.864   3.386   8.988  0.4405  0.0962  0.5065
  148SAPE  H13X16411   4.875   3.286   8.940 -0.3920  0.1289  0.2415
  148SAPE  H13Y16412   4.965   3.418   9.021 -1.1697  3.2889  2.8894
  148SAPE  C31416413   4.830   3.498   8.889 -0.0976 -0.2082  0.1339
  148SAPE  H14X16414   4.825   3.599   8.934 -3.3306 -0.9613  1.7885
  148SAPE  H14Y16415   4.730   3.483   8.843  0.3837  3.1500 -2.3821
  148SAPE  C31516416   4.919   3.494   8.764  0.4184 -0.2453 -0.0744
  148SAPE  H15X16417   4.924   3.388   8.732  1.1641  0.1247 -1.2343
  148SAPE  H15Y16418   5.022   3.524   8.792  0.0161  1.8272 -0.6274
  148SAPE  C31616419   4.853   3.581   8.653 -0.2391  0.0773  0.1355
  148SAPE  H16X16420   4.842   3.685   8.690  0.0611 -0.2588  1.2108
  148SAPE  H16Y16421   4.756   3.533   8.628 -0.5035  0.4261  0.4911
  148SAPE  C31716422   4.942   3.593   8.530 -0.1153 -0.3214  0.4466
  148SAPE  H17X16423   4.979   3.492   8.504 -0.8159 -0.8344  1.4032
  148SAPE  H17Y16424   5.036   3.645   8.558  1.1005  0.0808 -3.6636
  148SAPE  C31816425   4.887   3.659   8.404  0.4674  1.0040 -0.5549
  148SAPE  H18X16426   4.862   3.765   8.422 -0.2365  0.8921 -0.8116
  148SAPE  H18Y16427   4.792   3.611   8.371  0.2251  0.3873  0.9401
  148SAPE  H18Z16428   4.968   3.649   8.329  0.6339 -1.4549 -0.1303
  149SAPE     N16429   6.334   4.484  10.970  0.3095 -0.8150  0.1125
  149SAPE   HN116430   6.326   4.584  10.940 -0.8156 -0.8981  0.1127
  149SAPE   HN216431   6.435   4.475  10.995  0.4288  1.4456  0.7262
  149SAPE   HN316432   6.315   4.426  10.886  0.5847  0.7060 -1.0532
  149SAPE   C1216433   6.245   4.442  11.084  0.2019 -0.0339 -0.1528
  149SAPE  H12A16434   6.272   4.508  11.169 -0.5475 -2.2371  1.9202
  149SAPE  H12B16435   6.276   4.342  11.119 -1.0534  0.0557  1.2914
  149SAPE   C1116436   6.099   4.453  11.042 -0.1100 -0.1810 -0.6488
  149SAPE  H11A16437   6.066   4.379  10.966  2.0554 -1.3956 -0.5149
  149SAPE  H11B16438   6.080   4.552  10.997  0.2834  0.2521  0.1269
  149SAPE     P16439   5.873   4.475  11.169 -0.0477 -0.4205  0.2662
  149SAPE   O1316440   5.788   4.360  11.138  0.6080  0.6913  0.8990
  149SAPE   O1416441   5.865   4.532  11.307 -0.1135  0.2725  0.4091
  149SAPE   O1216442   6.020   4.428  11.154  0.4810 -0.0934 -0.3416
  149SAPE   O1116443   5.842   4.592  11.063 -0.5144 -0.1861  0.3864
  149SAPE    C116444   5.753   4.577  10.957 -0.4518 -0.7322 -0.1203
  149SAPE    HA16445   5.667   4.512  10.983 -2.2366  1.8152  0.8051
  149SAPE    HB16446   5.704   4.672  10.926 -1.7572 -1.1594  0.5700
  149SAPE    C216447   5.818   4.527  10.830  0.2777  0.3873 -0.3253
  149SAPE    HS16448   5.880   4.439  10.858 -0.1881 -0.1971 -1.0865
  149SAPE   O2116449   5.904   4.633  10.772 -0.1346  0.7831 -0.8194
  149SAPE   C2116450   5.984   4.581  10.680 -0.4856 -0.1692 -0.1404
  149SAPE   O2216451   5.996   4.466  10.646  0.0071  0.5908 -0.2241
  149SAPE   C2216452   6.059   4.700  10.625 -0.2962  0.7472  0.4074
  149SAPE   H2R16453   6.005   4.796  10.642  0.1735  0.5949  3.3553
  149SAPE   H2S16454   6.134   4.724  10.704  0.4538  3.1446 -0.9159
  149SAPE    C316455   5.707   4.475  10.732  0.8514  0.2653 -0.5315
  149SAPE    HX16456   5.653   4.392  10.783 -0.9337 -0.6446 -3.5726
  149SAPE    HY16457   5.752   4.438  10.637  0.3376  0.7614 -0.9769
  149SAPE   O3116458   5.594   4.565  10.699  0.2630 -0.3149 -0.0731
  149SAPE   C3116459   5.625   4.645  10.603  0.5083 -0.2083 -0.2253
  149SAPE   O3216460   5.728   4.654  10.547  0.1319 -0.0294  0.0004
  149SAPE   C3216461   5.497   4.727  10.572  0.5379 -0.0714  0.5549
  149SAPE   H2X16462   5.456   4.775  10.664 -1.1972  0.3020 -0.3661
  149SAPE   H2Y16463   5.422   4.660  10.525 -1.2861  1.0153  1.8003
  149SAPE   C2316464   6.130   4.679  10.488  0.3286  0.6077 -0.1138
  149SAPE   H3R16465   6.199   4.592  10.491  0.0636  0.2465 -2.4925
  149SAPE   H3S16466   6.202   4.762  10.473  0.7603  0.0623 -1.1729
  149SAPE   C2416467   6.026   4.685  10.373 -0.2517 -0.0142 -0.8020
  149SAPE   H4R16468   5.986   4.787  10.359 -0.7567 -0.3410 -1.8599
  149SAPE   H4S16469   5.938   4.629  10.412  0.5979  0.7223  2.4250
  149SAPE   C2516470   6.085   4.619  10.247 -0.4050  0.0684 -0.5914
  149SAPE   H5R16471   6.133   4.522  10.271 -1.5860 -0.3871  0.0196
  149SAPE   C2616472   6.072   4.660  10.118  0.5288  0.1348  0.7428
  149SAPE   H6R16473   6.130   4.607  10.041  0.9913  2.2485 -0.4422
  149SAPE   C2716474   5.977   4.769  10.072 -0.4315 -0.1437 -0.0161
  149SAPE   H7R16475   6.030   4.867  10.068 -0.6590  0.1031  1.8751
  149SAPE   H7S16476   5.910   4.790  10.159  0.6620 -0.4839  0.9352
  149SAPE   C2816477   5.900   4.729   9.950  0.2372 -0.0728  0.1907
  149SAPE   H8R16478   5.816   4.661   9.971  0.9988 -1.8492 -2.1432
  149SAPE   C2916479   5.914   4.776   9.825  0.2784 -0.4629 -0.1219
  149SAPE   H9R16480   5.865   4.710   9.752  0.5074 -1.3557  0.5008
  149SAPE  C21016481   6.012   4.880   9.769 -0.6350  0.1995 -0.3778
  149SAPE  H10R16482   6.111   4.830   9.756 -0.5554  0.7365 -2.0616
  149SAPE  H10S16483   6.029   4.965   9.839  0.4447 -1.7677  1.8988
  149SAPE  C21116484   5.956   4.922   9.636  0.2975  0.3314  0.3606
  149SAPE  H11R16485   5.898   5.016   9.638 -0.6858 -0.2425  3.3791
  149SAPE  C21216486   5.966   4.863   9.513  0.4997 -0.3344 -0.0811
  149SAPE  H12R16487   5.913   4.904   9.426 -1.0010  2.3949  1.9730
  149SAPE  C21316488   6.035   4.737   9.475  0.1462  0.7513  1.1218
  149SAPE  H13R16489   6.096   4.704   9.561  0.3617 -1.0031  0.3451
  149SAPE  H13S16490   6.096   4.758   9.384 -0.7627  1.6199  0.6986
  149SAPE  C21416491   5.924   4.629   9.458  0.9684 -0.4958  0.4856
  149SAPE  H14R16492   5.856   4.612   9.542 -1.0399  0.6281 -0.8445
  149SAPE  C21516493   5.899   4.556   9.350  0.1427  0.4772 -0.6506
  149SAPE  H15R16494   5.827   4.473   9.358  1.9802 -1.3377 -1.9083
  149SAPE  C21616495   5.980   4.555   9.226  0.0537  0.6377 -0.2216
  149SAPE  H16R16496   5.973   4.463   9.164 -0.6224  0.9221 -0.5769
  149SAPE  H16S16497   6.087   4.567   9.255  1.0157 -2.3283 -2.0710
  149SAPE  C21716498   5.936   4.668   9.144  0.8823 -0.1863 -0.2954
  149SAPE  H17R16499   5.924   4.767   9.193  1.4922  0.8706 -2.1733
  149SAPE  H17S16500   5.831   4.655   9.110  0.3315 -1.9579  1.8736
  149SAPE  C21816501   6.023   4.700   9.023 -0.3295 -0.4245  0.2391
  149SAPE  H18R16502   5.991   4.660   8.925  2.1513  1.2588 -1.4037
  149SAPE  H18S16503   6.121   4.649   9.036  0.3484  0.9053  0.5431
  149SAPE  C21916504   6.079   4.848   9.014 -0.0011 -0.5329 -0.1906
  149SAPE  H19R16505   6.125   4.869   9.113  2.5065 -0.2895 -1.3304
  149SAPE  H19S16506   5.992   4.914   8.993  1.4108  1.0987 -1.1627
  149SAPE  C22016507   6.189   4.872   8.906  0.0309  0.7287 -1.2265
  149SAPE  H20R16508   6.278   4.809   8.927 -2.3981 -2.5058  0.3449
  149SAPE  H20S16509   6.216   4.979   8.901  1.1180  0.6661  1.6334
  149SAPE  H20T16510   6.151   4.861   8.802 -3.0831  0.5567 -0.1816
  149SAPE   C3316511   5.515   4.839  10.465  0.4769  0.6862 -1.0471
  149SAPE   H3X16512   5.578   4.919  10.508 -1.1360  1.5771 -0.2477
  149SAPE   H3Y16513   5.416   4.877  10.429 -0.3460 -0.2566  0.1679
  149SAPE   C3416514   5.583   4.792  10.338  0.2065  0.8772  0.1515
  149SAPE   H4X16515   5.531   4.703  10.298  1.8324  0.0298 -0.1972
  149SAPE   H4Y16516   5.692   4.772  10.350  0.5266  1.0221 -2.0110
  149SAPE   C3516517   5.584   4.905  10.241 -0.6154  0.0728 -0.1085
  149SAPE   H5X16518   5.676   4.963  10.266 -1.4024  1.1770  0.2994
  149SAPE   H5Y16519   5.503   4.979  10.257  0.7934  1.6450  0.1469
  149SAPE   C3616520   5.588   4.843  10.095 -0.0996 -0.4243 -0.8844
  149SAPE   H6X16521   5.497   4.778  10.093 -1.6768  1.4874  1.6447
  149SAPE   H6Y16522   5.674   4.776  10.073 -0.5925 -1.7699  0.9653
  149SAPE   C3716523   5.574   4.950   9.990  0.5094 -0.0841 -0.1343
  149SAPE   H7X16524   5.659   5.019  10.005 -1.5079  2.4588  0.2725
  149SAPE   H7Y16525   5.481   5.010  10.001  1.2363  0.9671  0.3407
  149SAPE   C3816526   5.577   4.899   9.848 -0.0408 -1.2198  0.3510
  149SAPE   H8X16527   5.474   4.863   9.826 -1.0402  0.7153  1.6137
  149SAPE   H8Y16528   5.644   4.811   9.848  1.9905  0.2446 -0.2882
  149SAPE   C3916529   5.609   5.004   9.734 -0.2054  0.1632  0.5174
  149SAPE   H9X16530   5.715   5.039   9.733  0.5177 -1.8927 -0.1769
  149SAPE   H9Y16531   5.559   5.103   9.734  0.3374  0.5604  3.7405
  149SAPE  C31016532   5.597   4.930   9.593 -0.5994 -0.7451  0.5998
  149SAPE  H10X16533   5.496   4.886   9.583 -1.6077  1.4461  0.6962
  149SAPE  H10Y16534   5.661   4.839   9.581 -0.5286 -0.7276  0.8454
  149SAPE  C31116535   5.620   5.017   9.465 -0.4587  0.0425  0.5752
  149SAPE  H11X16536   5.720   5.066   9.473 -1.4434  1.9687  1.8935
  149SAPE  H11Y16537   5.545   5.098   9.471  0.5017  0.9928  0.1976
  149SAPE  C31216538   5.597   4.935   9.326 -0.0895 -0.1621  0.0449
  149SAPE  H12X16539   5.488   4.917   9.323 -0.9737  4.0380 -3.2559
  149SAPE  H12Y16540   5.657   4.842   9.320  0.2358  0.1025 -1.1587
  149SAPE  C31316541   5.651   5.020   9.210 -0.3447 -0.0764 -0.2305
  149SAPE  H13X16542   5.756   5.046   9.234 -0.9250  1.3922  0.8475
  149SAPE  H13Y16543   5.588   5.108   9.185 -2.5202 -0.8641  2.0586
  149SAPE  C31416544   5.664   4.938   9.079 -0.1983  0.0299  0.8754
  149SAPE  H14X16545   5.576   4.875   9.055  1.4561 -1.6730 -1.2029
  149SAPE  H14Y16546   5.748   4.868   9.100 -0.5022  0.0738  2.3085
  149SAPE  C31516547   5.679   5.028   8.951 -0.5693  0.2664 -0.0610
  149SAPE  H15X16548   5.779   5.077   8.956  0.2114 -1.2626 -0.2590
  149SAPE  H15Y16549   5.604   5.110   8.959 -1.1599 -0.2367 -0.4237
  149SAPE  C31616550   5.679   4.958   8.816  0.3412  0.6099  0.3767
  149SAPE  H16X16551   5.577   4.918   8.797  1.0820 -0.8788 -0.6416
  149SAPE  H16Y16552   5.753   4.874   8.812 -1.1675 -0.7016 -2.1031
  149SAPE  C31716553   5.726   5.041   8.701 -0.5584 -0.2337  0.6721
  149SAPE  H17X16554   5.836   5.056   8.707 -0.7852  1.2413  1.7136
  149SAPE  H17Y16555   5.680   5.142   8.703 -0.5656 -0.1729 -1.3325
  149SAPE  C31816556   5.692   4.987   8.560 -0.3062  0.2563 -0.1680
  149SAPE  H18X16557   5.730   5.055   8.481 -0.5820  0.3154 -0.2500
  149SAPE  H18Y16558   5.582   4.978   8.543 -0.0523 -3.4299 -0.7558
  149SAPE  H18Z16559   5.738   4.888   8.543  0.6762  0.5486  0.6765
  150SAPE     N16560   1.857   5.286  11.020 -0.4194 -0.0202  0.0039
  150SAPE   HN116561   1.809   5.282  11.111  2.0977 -3.0096  1.3895
  150SAPE   HN216562   1.793   5.314  10.943 -0.5601 -0.1729  0.0657
  150SAPE   HN316563   1.903   5.194  11.001 -0.6815  0.1890 -1.8914
  150SAPE   C1216564   1.960   5.390  11.030 -0.2107  0.5966  0.2204
  150SAPE  H12A16565   2.015   5.391  10.933 -0.6305  0.4293 -0.0204
  150SAPE  H12B16566   2.024   5.349  11.111 -2.4398 -1.9209  0.8486
  150SAPE   C1116567   1.912   5.528  11.076 -0.4101  0.0008  0.3388
  150SAPE  H11A16568   2.002   5.585  11.108 -0.7013  1.7022 -1.6119
  150SAPE  H11B16569   1.843   5.528  11.163 -0.8867  0.5606 -0.0217
  150SAPE     P16570   1.865   5.741  10.928  0.0212  0.1448 -0.3912
  150SAPE   O1316571   1.750   5.787  10.853  0.2539 -0.4113  0.3506
  150SAPE   O1416572   1.907   5.823  11.040 -0.7504 -0.5220 -0.0137
  150SAPE   O1216573   1.843   5.589  10.964 -0.0612 -0.3143  0.2369
  150SAPE   O1116574   1.991   5.727  10.826  0.9588  0.3937 -0.3969
  150SAPE    C116575   1.977   5.646  10.709  0.4131  0.3136 -0.1087
  150SAPE    HA16576   2.071   5.603  10.668 -0.7432 -2.9728  0.4455
  150SAPE    HB16577   1.918   5.553  10.721  1.9083 -0.6200  0.1440
  150SAPE    C216578   1.898   5.712  10.593  0.0028 -0.4115  0.6078
  150SAPE    HS16579   1.789   5.712  10.611 -0.2594  0.7179 -0.8111
  150SAPE   O2116580   1.935   5.637  10.471  0.3339  0.2717  0.4280
  150SAPE   C2116581   1.833   5.626  10.385  0.3710 -0.6700 -0.2907
  150SAPE   O2216582   1.717   5.646  10.418  0.2320  0.1749  0.3630
  150SAPE   C2216583   1.870   5.572  10.254  0.2106  0.2430  0.0251
  150SAPE   H2R16584   1.853   5.646  10.173  0.8617  2.0686  1.4827
  150SAPE   H2S16585   1.975   5.537  10.256  0.7677  1.8673  1.5348
  150SAPE    C316586   1.940   5.864  10.580  0.1451  0.2055 -0.4294
  150SAPE    HX16587   2.050   5.878  10.575 -0.0264  2.1727  0.3784
  150SAPE    HY16588   1.909   5.926  10.667  2.2915  1.4606 -0.4962
  150SAPE   O3116589   1.887   5.917  10.463  0.5912 -0.3964  0.6390
  150SAPE   C3116590   1.767   5.962  10.465 -0.2302 -0.3056 -0.0139
  150SAPE   O3216591   1.687   5.967  10.557  0.4498  0.8868  0.5006
  150SAPE   C3216592   1.744   6.023  10.323 -0.8447 -0.1707  0.5130
  150SAPE   H2X16593   1.775   6.130  10.329 -0.4220 -0.1428 -1.4737
  150SAPE   H2Y16594   1.633   6.023  10.318 -0.8282  0.5074  0.0697
  150SAPE   C2316595   1.791   5.441  10.214 -0.5350 -0.8510  0.6182
  150SAPE   H3R16596   1.785   5.373  10.301  0.3070 -1.2725  0.3565
  150SAPE   H3S16597   1.845   5.384  10.136  0.4517  1.2402 -0.3072
  150SAPE   C2416598   1.657   5.471  10.149 -0.0700  0.0027  0.1464
  150SAPE   H4R16599   1.690   5.509  10.050  2.4885  2.9045  1.9427
  150SAPE   H4S16600   1.611   5.547  10.215 -0.2602 -1.3253  1.6210
  150SAPE   C2516601   1.571   5.340  10.143 -0.8024 -0.5308 -0.0623
  150SAPE   H5R16602   1.546   5.296  10.241 -0.6563 -0.3772  0.0452
  150SAPE   C2616603   1.540   5.265  10.032 -0.1000 -0.6204 -0.0474
  150SAPE   H6R16604   1.494   5.166  10.041 -1.7109  0.0114 -0.8243
  150SAPE   C2716605   1.593   5.307   9.898 -0.0405  0.3622 -0.1428
  150SAPE   H7R16606   1.703   5.289   9.905  0.1925  1.8124  0.1465
  150SAPE   H7S16607   1.580   5.415   9.876  1.8815  0.5724 -0.4095
  150SAPE   C2816608   1.553   5.215   9.781  0.3673 -0.0421 -0.4006
  150SAPE   H8R16609   1.456   5.164   9.794 -0.5605  1.6971 -0.1197
  150SAPE   C2916610   1.609   5.213   9.658  0.3769 -0.4319 -0.0865
  150SAPE   H9R16611   1.568   5.134   9.594 -0.2411 -1.4244  1.4864
  150SAPE  C21016612   1.740   5.280   9.609  0.5476  0.9927 -0.1230
  150SAPE  H10R16613   1.811   5.195   9.601  0.3760  0.9165 -0.8843
  150SAPE  H10S16614   1.771   5.354   9.686 -1.7773 -0.1748  2.1064
  150SAPE  C21116615   1.736   5.347   9.476  0.5628 -0.1591 -0.6704
  150SAPE  H11R16616   1.769   5.451   9.488 -0.7157  0.0975  1.1164
  150SAPE  C21216617   1.733   5.289   9.349 -0.1704  0.1412  0.1360
  150SAPE  H12R16618   1.716   5.350   9.259  0.1996  1.6802  1.0693
  150SAPE  C21316619   1.728   5.139   9.323  0.4105 -0.1870 -0.6799
  150SAPE  H13R16620   1.783   5.087   9.404  1.1635  1.6308  0.0416
  150SAPE  H13S16621   1.794   5.127   9.234  1.3350  1.2994 -0.2316
  150SAPE  C21416622   1.595   5.073   9.311  0.8639 -0.2316 -0.0833
  150SAPE  H14R16623   1.523   5.135   9.367  1.2862 -0.3814  0.6264
  150SAPE  C21516624   1.557   4.963   9.245 -0.4984 -0.5928 -0.5321
  150SAPE  H15R16625   1.459   4.916   9.259  0.0469 -1.3088  1.2287
  150SAPE  C21616626   1.645   4.869   9.156 -0.3423 -0.4425 -0.8616
  150SAPE  H16R16627   1.644   4.763   9.191 -1.0277 -1.0326 -2.5635
  150SAPE  H16S16628   1.752   4.886   9.179  0.0563 -3.4537 -0.0209
  150SAPE  C21716629   1.610   4.896   9.007  0.0965  0.2217  0.5155
  150SAPE  H17R16630   1.685   4.840   8.947 -0.5309 -0.1928  0.1098
  150SAPE  H17S16631   1.623   5.005   8.992 -0.7196  0.2352 -0.1597
  150SAPE  C21816632   1.469   4.854   8.971  0.7301 -0.0714 -0.2368
  150SAPE  H18R16633   1.405   4.943   8.988 -0.0318 -0.0208 -2.8808
  150SAPE  H18S16634   1.416   4.772   9.024 -2.5774  1.1609 -1.3128
  150SAPE  C21916635   1.463   4.811   8.825  0.1590 -0.2337 -0.7452
  150SAPE  H19R16636   1.501   4.889   8.756  1.2978  1.2927  1.4735
  150SAPE  H19S16637   1.353   4.809   8.808 -0.1718 -0.4561  1.2003
  150SAPE  C22016638   1.509   4.670   8.788  0.4083  0.0715 -0.9662
  150SAPE  H20R16639   1.491   4.644   8.682 -2.1437  0.0970 -0.5878
  150SAPE  H20S16640   1.452   4.595   8.846  0.7082 -0.4820 -1.3858
  150SAPE  H20T16641   1.618   4.667   8.813  0.0578 -0.1649  0.6987
  150SAPE   C3316642   1.801   5.952  10.198  0.1792  0.2319 -0.0277
  150SAPE   H3X16643   1.754   5.851  10.198 -0.8864  0.6972 -1.2940
  150SAPE   H3Y16644   1.911   5.938  10.201  0.0414 -1.4977 -1.4160
  150SAPE   C3416645   1.766   6.041  10.078  0.9266 -0.3460  0.2504
  150SAPE   H4X16646   1.823   6.135  10.057 -0.0187 -0.0657 -1.2337
  150SAPE   H4Y16647   1.659   6.069  10.085  1.3642  2.0319 -1.4569
  150SAPE   C3516648   1.792   5.960   9.947  0.0516 -1.1342 -0.3816
  150SAPE   H5X16649   1.733   5.866   9.944  0.5049 -1.4020 -1.9661
  150SAPE   H5Y16650   1.899   5.933   9.955 -0.0001 -1.4533 -0.6983
  150SAPE   C3616651   1.761   6.053   9.825  0.4674 -0.2770 -0.7863
  150SAPE   H6X16652   1.817   6.148   9.844 -2.1247  1.2807 -0.4051
  150SAPE   H6Y16653   1.652   6.069   9.833  0.1161 -2.7165  0.1149
  150SAPE   C3716654   1.802   5.993   9.698 -0.2112  0.0701  0.0920
  150SAPE   H7X16655   1.755   5.893   9.687 -1.2529  0.5851 -0.3248
  150SAPE   H7Y16656   1.910   5.980   9.679 -0.5474 -0.1968 -1.7951
  150SAPE   C3816657   1.738   6.062   9.576  1.1394 -0.1263 -0.0463
  150SAPE   H8X16658   1.744   6.170   9.604  2.3024 -0.0841 -0.4073
  150SAPE   H8Y16659   1.630   6.043   9.557  1.1912 -1.5762  0.9816
  150SAPE   C3916660   1.801   6.028   9.439 -0.6644  0.7658 -0.3479
  150SAPE   H9X16661   1.769   5.930   9.398  1.8488 -0.4953  0.5189
  150SAPE   H9Y16662   1.912   6.020   9.443 -0.7222 -0.8776 -1.2672
  150SAPE  C31016663   1.757   6.140   9.336 -0.4515  0.5199 -0.3518
  150SAPE  H10X16664   1.752   6.239   9.386 -3.1747 -1.1922  3.2330
  150SAPE  H10Y16665   1.657   6.109   9.299 -0.7349 -0.3645  1.1017
  150SAPE  C31116666   1.865   6.167   9.221 -0.3177 -0.3655  0.1458
  150SAPE  H11X16667   1.894   6.067   9.183 -0.0846 -1.8885  3.8877
  150SAPE  H11Y16668   1.956   6.214   9.263  0.1043  0.4532 -1.5840
  150SAPE  C31216669   1.812   6.254   9.107 -0.2422  0.0025 -0.0343
  150SAPE  H12X16670   1.820   6.358   9.144  2.0016  0.4422 -1.5299
  150SAPE  H12Y16671   1.707   6.223   9.086  0.2820 -1.6669 -0.3901
  150SAPE  C31316672   1.893   6.235   8.979  0.1340 -0.0483 -0.1369
  150SAPE  H13X16673   1.854   6.298   8.895 -0.2056  0.9060  0.7094
  150SAPE  H13Y16674   1.874   6.132   8.941  0.4258 -0.2231  0.1887
  150SAPE  C31416675   2.039   6.264   8.996  0.4169 -0.3395 -0.4570
  150SAPE  H14X16676   2.092   6.204   9.073  1.5836  2.2710  0.9042
  150SAPE  H14Y16677   2.040   6.372   9.025  0.9929 -0.6210  0.6298
  150SAPE  C31516678   2.105   6.228   8.869 -0.5381  0.2661 -0.2126
  150SAPE  H15X16679   2.064   6.136   8.824 -0.9756  0.5179 -0.3311
  150SAPE  H15Y16680   2.211   6.202   8.891 -0.7299  0.4211  0.9695
  150SAPE  C31616681   2.119   6.344   8.773  0.1710 -0.7108  0.2806
  150SAPE  H16X16682   2.193   6.413   8.818  1.5125 -0.1110 -2.5933
  150SAPE  H16Y16683   2.015   6.378   8.753 -0.0067 -1.0164  0.6597
  150SAPE  C31716684   2.194   6.293   8.652 -0.4220  0.4585 -1.0998
  150SAPE  H17X16685   2.153   6.192   8.629  1.4951 -0.7660  0.4966
  150SAPE  H17Y16686   2.295   6.269   8.691 -0.0951 -0.4260 -2.4061
  150SAPE  C31816687   2.199   6.391   8.533 -0.2392 -0.3203  0.4695
  150SAPE  H18X16688   2.247   6.340   8.447  1.2316  1.1438  0.3699
  150SAPE  H18Y16689   2.259   6.482   8.553 -2.4015  1.3713 -0.3255
  150SAPE  H18Z16690   2.098   6.431   8.510  0.5118  0.8398 -1.0203
  151SAPE     N16691   0.188   2.164  10.610  0.2399 -0.1497 -1.2163
  151SAPE   HN116692   0.253   2.169  10.529  0.0992 -1.7401 -1.4688
  151SAPE   HN216693   0.142   2.072  10.591  0.5388 -0.1338 -2.0444
  151SAPE   HN316694   0.121   2.243  10.608  0.0997 -0.0322  2.2220
  151SAPE   C1216695   0.245   2.167  10.746 -0.0605  0.7821  0.0307
  151SAPE  H12A16696   0.155   2.167  10.811 -0.6239 -0.7446 -0.6891
  151SAPE  H12B16697   0.306   2.259  10.752 -1.3187  1.5677  1.7183
  151SAPE   C1116698   0.318   2.040  10.779  0.0608 -0.1528 -0.3866
  151SAPE  H11A16699   0.258   1.947  10.770  4.3090 -3.1306 -1.0080
  151SAPE  H11B16700   0.344   2.051  10.886  1.2030 -0.9323 -0.5751
  151SAPE     P16701   0.549   1.929  10.760  0.7775 -0.4469 -0.1818
  151SAPE   O1316702   0.553   1.937  10.910  0.7100  0.7471  0.5628
  151SAPE   O1416703   0.513   1.797  10.705 -0.2037  0.0441 -0.1237
  151SAPE   O1216704   0.438   2.031  10.709 -0.0720 -0.1072 -0.7546
  151SAPE   O1116705   0.682   1.985  10.710  0.0143 -0.0817  1.0897
  151SAPE    C116706   0.692   2.124  10.657 -0.4282  0.1780  0.3399
  151SAPE    HA16707   0.626   2.193  10.714 -0.4632 -0.0211  0.5415
  151SAPE    HB16708   0.795   2.163  10.674 -0.2535 -0.3300  0.4583
  151SAPE    C216709   0.653   2.123  10.507 -0.2057 -0.4123  0.3216
  151SAPE    HS16710   0.551   2.082  10.494  0.0059 -0.7434 -0.3498
  151SAPE   O2116711   0.751   2.053  10.434 -0.2201 -0.3492 -0.5590
  151SAPE   C2116712   0.702   1.962  10.355  0.0924 -0.0266 -0.2945
  151SAPE   O2216713   0.580   1.927  10.346 -0.1863 -0.3686 -0.0506
  151SAPE   C2216714   0.820   1.913  10.265 -0.1923  0.3084 -0.3778
  151SAPE   H2R16715   0.871   1.999  10.215  2.8412  0.5611  2.8101
  151SAPE   H2S16716   0.900   1.868  10.327 -1.7246 -0.7006  0.9431
  151SAPE    C316717   0.643   2.274  10.440  0.1212 -0.1004 -0.7475
  151SAPE    HX16718   0.748   2.310  10.430  0.9057 -2.0150  0.1056
  151SAPE    HY16719   0.583   2.334  10.512 -0.8501 -2.2170  0.2992
  151SAPE   O3116720   0.569   2.276  10.316 -0.4794  0.4286  0.2418
  151SAPE   C3116721   0.438   2.243  10.307 -0.0213  0.1297 -0.4863
  151SAPE   O3216722   0.368   2.222  10.406 -0.0380  0.1696  0.5348
  151SAPE   C3216723   0.403   2.235  10.157  0.4156  0.5886 -0.1133
  151SAPE   H2X16724   0.487   2.180  10.109  1.0440 -0.2298  1.8154
  151SAPE   H2Y16725   0.413   2.340  10.123  1.4509  0.8038  0.8189
  151SAPE   C2316726   0.779   1.815  10.150  0.2706  0.4248 -0.5240
  151SAPE   H3R16727   0.705   1.745  10.195  2.3206 -0.5678  1.5789
  151SAPE   H3S16728   0.870   1.758  10.124 -0.9886 -1.5260 -0.8765
  151SAPE   C2416729   0.734   1.898  10.026  0.0102 -0.6288  0.1085
  151SAPE   H4R16730   0.819   1.957   9.986  0.5068 -0.0983  1.8512
  151SAPE   H4S16731   0.656   1.974  10.048  0.4815  0.3563 -1.4815
  151SAPE   C2516732   0.677   1.810   9.931 -0.2541  0.8787  0.1424
  151SAPE   H5R16733   0.627   1.719   9.968  0.6812  0.3170  0.0471
  151SAPE   C2616734   0.683   1.818   9.793 -0.0727  0.9649 -1.0037
  151SAPE   H6R16735   0.632   1.737   9.739  0.5810 -0.6537  0.6826
  151SAPE   C2716736   0.750   1.915   9.699  0.7392  0.3301  0.4681
  151SAPE   H7R16737   0.813   1.855   9.631  1.1141 -1.2832  2.1698
  151SAPE   H7S16738   0.833   1.970   9.749  0.5073  0.1317  1.0792
  151SAPE   C2816739   0.647   1.997   9.624  0.4874 -0.6790  0.3211
  151SAPE   H8R16740   0.549   1.949   9.606  0.4820 -0.1961 -1.0779
  151SAPE   C2916741   0.675   2.115   9.571  0.1619 -0.2323 -0.3892
  151SAPE   H9R16742   0.591   2.173   9.530 -1.0547 -1.1713  0.6821
  151SAPE  C21016743   0.809   2.184   9.574  0.5444  0.2796  0.0909
  151SAPE  H10R16744   0.867   2.174   9.669  2.9365 -1.9421 -1.4704
  151SAPE  H10S16745   0.779   2.291   9.570  1.3328  0.4957 -0.2318
  151SAPE  C21116746   0.889   2.133   9.458  0.5005 -0.7452  0.2344
  151SAPE  H11R16747   0.935   2.039   9.491  1.3734 -0.4903 -0.2033
  151SAPE  C21216748   0.907   2.202   9.345 -0.4222  0.1655 -0.4911
  151SAPE  H12R16749   0.963   2.149   9.266  2.7433 -0.6354  2.0577
  151SAPE  C21316750   0.853   2.340   9.315  0.3104  0.1508  0.3298
  151SAPE  H13R16751   0.905   2.371   9.221 -0.3720 -0.6063 -0.3056
  151SAPE  H13S16752   0.888   2.415   9.390  1.6670 -1.7856  1.7159
  151SAPE  C21416753   0.706   2.355   9.299 -0.4781  0.2716  0.3620
  151SAPE  H14R16754   0.642   2.371   9.387 -1.6010 -0.2960 -0.3197
  151SAPE  C21516755   0.645   2.354   9.180  0.1539 -0.1216  0.9875
  151SAPE  H15R16756   0.539   2.382   9.181  0.5076  1.3670  0.1364
  151SAPE  C21616757   0.700   2.336   9.041  0.0307 -0.8114  0.4072
  151SAPE  H16R16758   0.625   2.274   8.986  0.1076 -1.9017  1.4822
  151SAPE  H16S16759   0.801   2.291   9.048  0.6274  0.5204  0.6547
  151SAPE  C21716760   0.704   2.466   8.958  0.8383  0.4165  0.1716
  151SAPE  H17R16761   0.760   2.548   9.009  2.0378 -0.4954  0.3789
  151SAPE  H17S16762   0.603   2.504   8.934  1.0233 -0.0409 -1.4751
  151SAPE  C21816763   0.764   2.442   8.818  0.7859 -0.0839  0.4277
  151SAPE  H18R16764   0.735   2.535   8.765  1.2270 -0.2183 -0.0670
  151SAPE  H18S16765   0.703   2.365   8.765  0.6024  1.4908 -1.8003
  151SAPE  C21916766   0.923   2.440   8.818  0.9077 -0.0268  0.0000
  151SAPE  H19R16767   0.968   2.419   8.718 -0.4609  2.3122 -1.2065
  151SAPE  H19S16768   0.957   2.351   8.875 -1.1697 -1.0155 -0.2265
  151SAPE  C22016769   0.980   2.567   8.886 -0.6787  0.3303 -0.3687
  151SAPE  H20R16770   0.961   2.659   8.827  0.2954 -0.4638 -2.0038
  151SAPE  H20S16771   1.090   2.548   8.879 -0.4680  1.5272 -0.5085
  151SAPE  H20T16772   0.949   2.574   8.992  1.6414 -0.3513  0.4196
  151SAPE   C3316773   0.257   2.187  10.132 -0.4451 -0.2039  0.6464
  151SAPE   H3X16774   0.175   2.259  10.154 -1.6987 -1.7757  1.4135
  151SAPE   H3Y16775   0.229   2.100  10.196  0.9462 -1.1832 -0.0379
  151SAPE   C3416776   0.228   2.136   9.988  1.1175 -0.4481  0.1586
  151SAPE   H4X16777   0.215   2.221   9.919  1.8741 -0.2992  0.1920
  151SAPE   H4Y16778   0.130   2.084  10.000  0.0207  1.8568  1.9116
  151SAPE   C3516779   0.322   2.034   9.932  0.2267 -0.4065 -0.0777
  151SAPE   H5X16780   0.348   1.956  10.006  0.7763 -0.6117 -0.4840
  151SAPE   H5Y16781   0.419   2.085   9.917  0.1328  0.1122  0.9740
  151SAPE   C3616782   0.292   1.963   9.799  0.2377  1.0945  0.3742
  151SAPE   H6X16783   0.202   1.899   9.813  0.0797  0.7614 -1.8638
  151SAPE   H6Y16784   0.386   1.912   9.769 -1.7265 -1.6144 -1.6247
  151SAPE   C3716785   0.267   2.053   9.672  0.1668  0.7032 -0.5956
  151SAPE   H7X16786   0.355   2.117   9.648  0.5145  0.8675  1.0272
  151SAPE   H7Y16787   0.179   2.119   9.685 -0.6659 -0.6304  0.9212
  151SAPE   C3816788   0.244   1.971   9.543  0.3095 -0.1351  0.0478
  151SAPE   H8X16789   0.160   1.899   9.530 -0.9812  1.1724  0.8954
  151SAPE   H8Y16790   0.335   1.908   9.533 -0.1746 -1.5960  3.2787
  151SAPE   C3916791   0.237   2.070   9.426 -0.0039  0.2467  0.2285
  151SAPE   H9X16792   0.308   2.151   9.453 -0.5717  1.5362 -1.9701
  151SAPE   H9Y16793   0.139   2.122   9.421 -0.0370  0.3076  1.2604
  151SAPE  C31016794   0.269   1.997   9.295 -0.1091  0.1663 -0.2654
  151SAPE  H10X16795   0.219   2.068   9.227  0.1319  1.0814  0.4990
  151SAPE  H10Y16796   0.205   1.905   9.293 -3.0075  2.0328  0.1167
  151SAPE  C31116797   0.422   1.974   9.262 -0.7716  0.1719 -0.2554
  151SAPE  H11X16798   0.471   1.894   9.320 -1.4152  0.3972  0.6228
  151SAPE  H11Y16799   0.473   2.071   9.283  2.0890 -1.2939  0.0305
  151SAPE  C31216800   0.444   1.929   9.116  0.2111  0.4913  0.4016
  151SAPE  H12X16801   0.554   1.925   9.105  0.3247  1.1937  1.2240
  151SAPE  H12Y16802   0.423   2.009   9.042 -0.2805  0.6440  0.7004
  151SAPE  C31316803   0.380   1.804   9.068  0.3624  0.2949  0.5783
  151SAPE  H13X16804   0.270   1.808   9.083  0.2988  0.9491 -0.0256
  151SAPE  H13Y16805   0.406   1.715   9.130 -0.4693  0.0164  0.5354
  151SAPE  C31416806   0.426   1.778   8.929  0.0158 -0.4082  0.9737
  151SAPE  H14X16807   0.462   1.871   8.880 -1.0648 -0.9456 -0.9174
  151SAPE  H14Y16808   0.340   1.738   8.872  0.3857  1.0495 -0.6908
  151SAPE  C31516809   0.529   1.669   8.915 -0.5798  0.6303 -0.7864
  151SAPE  H15X16810   0.504   1.595   8.994  0.6153  2.6567  1.6383
  151SAPE  H15Y16811   0.631   1.702   8.944 -0.4457  1.7810 -2.4401
  151SAPE  C31616812   0.529   1.598   8.779 -0.0941  0.2030  0.1408
  151SAPE  H16X16813   0.429   1.567   8.742 -0.3961  0.3997  0.7641
  151SAPE  H16Y16814   0.585   1.504   8.799 -0.1217  0.3527  0.9706
  151SAPE  C31716815   0.610   1.680   8.673  0.0361 -0.1533  0.1776
  151SAPE  H17X16816   0.712   1.703   8.709 -0.0875 -1.6933  1.6417
  151SAPE  H17Y16817   0.552   1.775   8.669 -1.0459 -0.8374 -2.2859
  151SAPE  C31816818   0.612   1.616   8.532  0.0355  0.0844 -0.2763
  151SAPE  H18X16819   0.655   1.694   8.466  1.3123  0.1055  0.5363
  151SAPE  H18Y16820   0.511   1.587   8.498  0.5846 -0.2987 -1.6227
  151SAPE  H18Z16821   0.682   1.530   8.536  1.7347  1.3343 -1.4141
  152SAPE     N16822   0.540   0.231  10.977  0.3186 -0.0132  0.3289
  152SAPE   HN116823   0.628   0.233  10.921 -0.9295  4.3381 -1.9174
  152SAPE   HN216824   0.559   0.261  11.075 -1.7861 -0.1874  0.8472
  152SAPE   HN316825   0.498   0.136  10.975  0.2517 -0.0132  1.1344
  152SAPE   C1216826   0.436   0.323  10.919 -0.0066 -0.3657 -0.5700
  152SAPE  H12A16827   0.470   0.428  10.927  1.3876 -0.9054  1.3157
  152SAPE  H12B16828   0.350   0.303  10.986  0.5205  1.3674  0.6879
  152SAPE   C1116829   0.389   0.290  10.779  0.2915 -0.0212 -0.3503
  152SAPE  H11A16830   0.342   0.189  10.775  0.1519 -0.0623  1.4645
  152SAPE  H11B16831   0.474   0.298  10.707  3.1441  1.8211  2.9180
  152SAPE     P16832   0.139   0.375  10.725  0.4567 -0.1543 -0.0029
  152SAPE   O1316833   0.086   0.296  10.841 -0.0916 -0.7540 -0.1038
  152SAPE   O1416834   0.075   0.504  10.699 -0.1785  0.0591  0.2847
  152SAPE   O1216835   0.300   0.393  10.738  0.0568  0.9450 -0.4308
  152SAPE   O1116836   0.111   0.281  10.598 -0.1519 -0.5141 -1.2664
  152SAPE    C116837   0.214   0.251  10.503  1.0864  0.3538  0.4004
  152SAPE    HA16838   0.306   0.211  10.550 -0.8873 -1.3047  3.1647
  152SAPE    HB16839   0.182   0.179  10.425 -0.7648 -0.6327  1.9781
  152SAPE    C216840   0.258   0.370  10.416 -0.5119  0.3014 -0.5922
  152SAPE    HS16841   0.303   0.445  10.483  0.3664 -2.4027  2.0672
  152SAPE   O2116842   0.139   0.420  10.348 -0.5732 -0.2449 -0.7407
  152SAPE   C2116843   0.146   0.555  10.324  0.0443 -0.9803 -0.6883
  152SAPE   O2216844   0.241   0.624  10.347 -0.0987  0.3771  0.2683
  152SAPE   C2216845   0.021   0.598  10.244 -0.7752  0.0562 -0.2085
  152SAPE   H2R16846  -0.052   0.662  10.300 -3.3700 -1.4515 -1.6596
  152SAPE   H2S16847   0.071   0.651  10.161  1.1499  0.6962  1.2913
  152SAPE    C316848   0.375   0.330  10.309 -0.1598  0.3879  0.4105
  152SAPE    HX16849   0.467   0.306  10.366  1.3570  0.6894 -1.7803
  152SAPE    HY16850   0.403   0.405  10.232  0.3483 -0.1188  0.0885
  152SAPE   O3116851   0.350   0.204  10.240  0.1360 -0.1076  0.0628
  152SAPE   C3116852   0.293   0.220  10.124 -0.2715  0.4856 -0.0314
  152SAPE   O3216853   0.246   0.324  10.073 -0.7730  0.1020  0.3240
  152SAPE   C3216854   0.287   0.083  10.042 -0.8647 -0.2237  0.1322
  152SAPE   H2X16855   0.183   0.079  10.003 -0.4891  1.0843 -1.0877
  152SAPE   H2Y16856   0.300   0.005  10.121  2.6182  0.5718  0.4757
  152SAPE   C2316857  -0.055   0.483  10.180  0.4745 -0.2904 -0.4394
  152SAPE   H3R16858  -0.055   0.387  10.237  0.0703 -0.5933 -0.9371
  152SAPE   H3S16859  -0.000   0.457  10.087  0.5298  2.5839 -1.2936
  152SAPE   C2416860  -0.202   0.508  10.140 -0.5054  0.0356 -0.4992
  152SAPE   H4R16861  -0.272   0.508  10.226  1.2696 -0.2417  0.9885
  152SAPE   H4S16862  -0.232   0.411  10.095  0.6381  0.1878 -1.6427
  152SAPE   C2516863  -0.222   0.625  10.038 -0.1217  0.2370 -0.0993
  152SAPE   H5R16864  -0.185   0.725  10.065  0.6069  0.7566 -2.6823
  152SAPE   C2616865  -0.273   0.602   9.912 -0.1070  1.0623  0.1913
  152SAPE   H6R16866  -0.274   0.694   9.852 -0.1144  1.2500  0.4760
  152SAPE   C2716867  -0.323   0.476   9.836  0.2630 -0.5350  0.0065
  152SAPE   H7R16868  -0.299   0.381   9.888  1.2512  0.3178  1.1751
  152SAPE   H7S16869  -0.269   0.465   9.740  2.1673  0.9826  0.8364
  152SAPE   C2816870  -0.471   0.482   9.824  0.0351  0.6871 -0.2176
  152SAPE   H8R16871  -0.527   0.472   9.919  0.1573  3.3911  0.2135
  152SAPE   C2916872  -0.542   0.488   9.710  0.2680 -0.3021  0.7412
  152SAPE   H9R16873  -0.650   0.509   9.716  0.2811 -0.4176  1.6259
  152SAPE  C21016874  -0.479   0.491   9.568  0.0547 -0.6629  0.2797
  152SAPE  H10R16875  -0.535   0.418   9.506 -0.8960  0.2368  0.0308
  152SAPE  H10S16876  -0.374   0.456   9.562  0.4439  0.5855 -3.4643
  152SAPE  C21116877  -0.498   0.636   9.524  0.1026  0.4201  0.3466
  152SAPE  H11R16878  -0.420   0.708   9.551  2.0679 -0.1796 -3.1900
  152SAPE  C21216879  -0.599   0.680   9.449  0.9201 -0.2812 -0.5156
  152SAPE  H12R16880  -0.591   0.780   9.403  0.3204 -1.1289 -2.5560
  152SAPE  C21316881  -0.721   0.597   9.401 -0.2439 -0.7257 -0.3026
  152SAPE  H13R16882  -0.769   0.547   9.489 -2.3489  0.8743 -0.4608
  152SAPE  H13S16883  -0.679   0.509   9.349  2.0454  1.6800 -2.8458
  152SAPE  C21416884  -0.823   0.684   9.329  0.1565 -0.0150  0.7735
  152SAPE  H14R16885  -0.878   0.748   9.399  0.6543 -1.4609  2.5751
  152SAPE  C21516886  -0.845   0.694   9.194 -0.1416 -1.0904  0.0905
  152SAPE  H15R16887  -0.932   0.754   9.164  1.4346  2.2913  1.6763
  152SAPE  C21616888  -0.770   0.614   9.090  0.5851  0.3841  0.4329
  152SAPE  H16R16889  -0.840   0.542   9.041  2.0229  0.1538 -1.3677
  152SAPE  H16S16890  -0.694   0.547   9.136  0.8303  2.0125  2.5591
  152SAPE  C21716891  -0.687   0.695   8.995  0.7553 -0.5858 -0.6106
  152SAPE  H17R16892  -0.598   0.719   9.057  1.7575 -2.1868 -1.3710
  152SAPE  H17S16893  -0.730   0.793   8.963 -1.2642 -1.2688 -0.1158
  152SAPE  C21816894  -0.654   0.615   8.861  0.0510 -0.0436 -0.7778
  152SAPE  H18R16895  -0.753   0.598   8.815  0.0295 -0.7987 -0.4652
  152SAPE  H18S16896  -0.616   0.512   8.879  0.9605  0.8407  3.6352
  152SAPE  C21916897  -0.570   0.700   8.761 -0.2705  0.4200  0.2375
  152SAPE  H19R16898  -0.619   0.797   8.740  0.9004  1.2294  1.1231
  152SAPE  H19S16899  -0.555   0.648   8.664  0.7632  0.2388  0.4857
  152SAPE  C22016900  -0.431   0.712   8.814  0.3892 -0.1303 -0.1171
  152SAPE  H20R16901  -0.426   0.797   8.885 -0.3992 -0.7076  0.6567
  152SAPE  H20S16902  -0.353   0.725   8.736  1.2060 -0.6103  0.5975
  152SAPE  H20T16903  -0.392   0.616   8.855  0.7230 -0.7571 -1.8260
  152SAPE   C3316904   0.394   0.077   9.929  0.3337 -0.4805 -0.2531
  152SAPE   H3X16905   0.421  -0.029   9.907  2.3562 -0.5768  2.3074
  152SAPE   H3Y16906   0.490   0.128   9.952  0.1912  0.0656 -0.8377
  152SAPE   C3416907   0.334   0.134   9.801  0.3202  0.3376  0.2578
  152SAPE   H4X16908   0.322   0.245   9.802 -0.6303  0.2512 -0.4467
  152SAPE   H4Y16909   0.233   0.089   9.788  0.6175 -0.4331  0.5500
  152SAPE   C3516910   0.415   0.103   9.675  0.0847  0.2581  0.4866
  152SAPE   H5X16911   0.446  -0.004   9.673  1.4545  0.6320  0.1992
  152SAPE   H5Y16912   0.509   0.162   9.674  1.2618 -1.4924 -1.8090
  152SAPE   C3616913   0.338   0.140   9.544  0.6150  0.4931  0.7303
  152SAPE   H6X16914   0.303   0.245   9.558 -1.3256 -0.3799  3.1409
  152SAPE   H6Y16915   0.248   0.077   9.529  0.0450  1.2573  0.8919
  152SAPE   C3716916   0.418   0.118   9.413  0.8856 -0.0782  0.9494
  152SAPE   H7X16917   0.471   0.021   9.417  1.4514  0.1018 -1.1770
  152SAPE   H7Y16918   0.497   0.194   9.396 -0.2081  1.4512  2.3631
  152SAPE   C3816919   0.317   0.136   9.295  0.1856  0.3659 -0.1928
  152SAPE   H8X16920   0.263   0.232   9.310 -0.6096 -0.1752  0.4915
  152SAPE   H8Y16921   0.246   0.051   9.310  0.7077 -0.7026 -3.1673
  152SAPE   C3916922   0.372   0.137   9.150 -0.1903  0.1926  0.1103
  152SAPE   H9X16923   0.404   0.035   9.123  1.4458  0.3488  1.2461
  152SAPE   H9Y16924   0.467   0.195   9.142 -1.0758  1.5775 -0.6721
  152SAPE  C31016925   0.270   0.188   9.045  0.0976 -0.0082 -0.8624
  152SAPE  H10X16926   0.244   0.293   9.070  0.8240 -0.0056 -0.0948
  152SAPE  H10Y16927   0.190   0.111   9.040  1.4821 -1.5806  0.1039
  152SAPE  C31116928   0.344   0.208   8.914 -0.2332  0.5832  0.1490
  152SAPE  H11X16929   0.394   0.113   8.884 -0.2688 -0.0295  1.9571
  152SAPE  H11Y16930   0.421   0.288   8.925 -0.0855  0.2652  1.5691
  152SAPE  C31216931   0.250   0.260   8.801 -0.3660  0.0705  0.1685
  152SAPE  H12X16932   0.213   0.362   8.826 -1.2894 -0.2554  0.1780
  152SAPE  H12Y16933   0.153   0.208   8.788  0.0897 -0.2702 -2.5786
  152SAPE  C31316934   0.323   0.268   8.667 -0.2691  0.5299 -0.4322
  152SAPE  H13X16935   0.401   0.190   8.660 -0.1142  0.7778 -1.8053
  152SAPE  H13Y16936   0.370   0.369   8.663 -1.1115  0.9838  0.6277
  152SAPE  C31416937   0.228   0.263   8.542 -0.0136  0.0199  0.2468
  152SAPE  H14X16938   0.153   0.339   8.573  0.6715  0.5261  0.6899
  152SAPE  H14Y16939   0.173   0.167   8.537  0.9024 -0.4938 -0.4092
  152SAPE  C31516940   0.298   0.308   8.410  0.1556  0.6950 -0.8560
  152SAPE  H15X16941   0.361   0.220   8.387 -1.2302 -0.1631 -1.5115
  152SAPE  H15Y16942   0.356   0.400   8.433 -0.0750  0.3608  1.3517
  152SAPE  C31616943   0.196   0.353   8.304  0.3412 -0.2222 -0.5705
  152SAPE  H16X16944   0.158   0.451   8.337  1.7663 -0.0688  0.7247
  152SAPE  H16Y16945   0.131   0.262   8.306 -0.5098  0.3313 -1.6703
  152SAPE  C31716946   0.252   0.346   8.167  0.0571  0.1927 -0.2016
  152SAPE  H17X16947   0.172   0.319   8.095 -0.2123 -0.2319  0.2596
  152SAPE  H17Y16948   0.332   0.269   8.159  0.4462  0.5352  0.2849
  152SAPE  C31816949   0.330   0.472   8.119 -0.4489 -0.1547 -0.2523
  152SAPE  H18X16950   0.258   0.555   8.137 -0.3422 -0.3448  1.1782
  152SAPE  H18Y16951   0.355   0.467   8.011  0.0759 -0.6329 -0.1128
  152SAPE  H18Z16952   0.418   0.477   8.187 -1.1999  1.4040  0.6877
  153SAPE     N16953   2.184   2.256  11.057  0.3720 -0.3287 -0.8642
  153SAPE   HN116954   2.122   2.335  11.086  1.6779  0.4985 -0.2239
  153SAPE   HN216955   2.280   2.292  11.046  0.6481 -0.1520  1.5870
  153SAPE   HN316956   2.138   2.225  10.969 -1.0940  1.1250 -0.6732
  153SAPE   C1216957   2.179   2.154  11.169  0.6548 -0.9592 -0.1261
  153SAPE  H12A16958   2.206   2.203  11.265 -0.9198 -1.0938  0.4103
  153SAPE  H12B16959   2.269   2.091  11.153  0.8217 -0.7243 -0.1302
  153SAPE   C1116960   2.052   2.073  11.160  0.3475  0.8703  0.3049
  153SAPE  H11A16961   1.964   2.138  11.144 -0.8131  0.0823  2.9100
  153SAPE  H11B16962   2.044   2.021  11.258  2.1491  1.8084  0.9916
  153SAPE     P16963   2.025   1.976  10.917  0.1566 -0.1957  0.3069
  153SAPE   O1316964   1.878   1.962  10.900  0.1032 -0.7464  0.2106
  153SAPE   O1416965   2.083   2.103  10.868 -0.0545 -0.2576  0.1835
  153SAPE   O1216966   2.063   1.964  11.067  0.7607 -0.5265  0.1758
  153SAPE   O1116967   2.095   1.848  10.841  0.0598 -0.3346 -0.8021
  153SAPE    C116968   2.229   1.851  10.784  0.1472  0.1639  0.2662
  153SAPE    HA16969   2.299   1.909  10.848  1.3525 -1.3218  0.3758
  153SAPE    HB16970   2.266   1.746  10.785 -0.6274 -0.1649 -1.6619
  153SAPE    C216971   2.219   1.914  10.647 -0.5109 -0.4441  0.2149
  153SAPE    HS16972   2.158   2.007  10.649 -0.4101 -0.1937 -2.8680
  153SAPE   O2116973   2.158   1.826  10.553  0.4180 -0.3496  0.5674
  153SAPE   C2116974   2.035   1.850  10.519 -0.1500 -0.2622  0.4708
  153SAPE   O2216975   1.971   1.949  10.546  0.0027 -0.5598 -0.2038
  153SAPE   C2216976   2.006   1.745  10.408 -0.0238  0.1707 -0.3208
  153SAPE   H2R16977   2.096   1.742  10.342  1.3612 -0.2093  1.4776
  153SAPE   H2S16978   2.020   1.647  10.458 -1.2921  0.2950  0.2933
  153SAPE    C316979   2.369   1.952  10.609  0.4092 -0.4207  0.0667
  153SAPE    HX16980   2.436   1.864  10.609  4.2683  2.2503  0.8476
  153SAPE    HY16981   2.410   2.016  10.691 -0.2999 -0.7984  0.7303
  153SAPE   O3116982   2.390   2.004  10.476 -0.0646 -0.2955 -0.2603
  153SAPE   C3116983   2.337   2.126  10.452  1.0317  0.5629 -0.3817
  153SAPE   O3216984   2.274   2.189  10.534 -0.2085 -0.3915 -0.0190
  153SAPE   C3216985   2.343   2.169  10.308  0.9201 -0.1209  0.0187
  153SAPE   H2X16986   2.448   2.157  10.273  0.5909  1.9907 -1.8850
  153SAPE   H2Y16987   2.303   2.272  10.300 -2.0075 -1.2905 -2.0255
  153SAPE   C2316988   1.868   1.748  10.343 -0.4521  0.4368  0.2071
  153SAPE   H3R16989   1.795   1.783  10.419  1.1829  0.8863  1.6454
  153SAPE   H3S16990   1.838   1.647  10.310  2.6109  0.1081 -2.0473
  153SAPE   C2416991   1.864   1.852  10.232 -0.6578 -0.5950  0.3630
  153SAPE   H4R16992   1.927   1.799  10.158 -0.4857 -1.7020  1.2816
  153SAPE   H4S16993   1.935   1.932  10.263  0.1543 -0.7906 -0.9612
  153SAPE   C2516994   1.734   1.899  10.168 -0.1490 -0.4651  0.4532
  153SAPE   H5R16995   1.657   1.944  10.233 -1.4188 -1.5938 -0.2009
  153SAPE   C2616996   1.715   1.907  10.034  0.0298  0.1961  0.3089
  153SAPE   H6R16997   1.622   1.946   9.991  1.4323  1.5095 -1.7447
  153SAPE   C2716998   1.808   1.855   9.926 -0.8298  0.2114 -0.1480
  153SAPE   H7R16999   1.910   1.830   9.962 -1.3391 -0.6928  0.7289
  153SAPE   H7S17000   1.828   1.932   9.849  3.6868  0.5142  1.0396
  153SAPE   C2817001   1.741   1.736   9.869  0.3028 -0.2114  0.3325
  153SAPE   H8R17002   1.744   1.636   9.917 -2.1106 -0.9637 -0.8963
  153SAPE   C2917003   1.693   1.730   9.744  0.2313 -0.8488  0.5707
  153SAPE   H9R17004   1.643   1.638   9.710 -1.6257 -0.2535  1.5488
  153SAPE  C21017005   1.684   1.842   9.639  0.5574  0.5660  0.1059
  153SAPE  H10R17006   1.658   1.811   9.536  1.2567  1.0190 -0.2114
  153SAPE  H10S17007   1.787   1.875   9.615 -0.2956  2.3217 -1.4234
  153SAPE  C21117008   1.602   1.966   9.687 -0.6333 -0.1462  0.0692
  153SAPE  H11R17009   1.543   1.952   9.779 -1.8890  0.4458 -0.6144
  153SAPE  C21217010   1.607   2.091   9.626 -0.4711 -0.3785  0.3300
  153SAPE  H12R17011   1.560   2.175   9.679  0.3306 -0.4199  1.1286
  153SAPE  C21317012   1.692   2.117   9.506  0.3672  0.2013 -0.6264
  153SAPE  H13R17013   1.692   2.033   9.433  0.7225 -0.9576  0.6705
  153SAPE  H13S17014   1.795   2.126   9.545 -0.4378 -0.4249  1.7764
  153SAPE  C21417015   1.658   2.250   9.444  0.4090 -0.1547 -0.7277
  153SAPE  H14R17016   1.675   2.330   9.517 -2.8010  0.5090 -0.5655
  153SAPE  C21517017   1.617   2.280   9.319 -0.6766  0.4533  0.4956
  153SAPE  H15R17018   1.602   2.382   9.279  3.3576  0.4409 -1.6423
  153SAPE  C21617019   1.598   2.174   9.211  0.2413  0.3435  0.4639
  153SAPE  H16R17020   1.493   2.143   9.196  1.1582 -1.7755 -2.9098
  153SAPE  H16S17021   1.643   2.075   9.235 -2.8430 -0.9760  1.2534
  153SAPE  C21717022   1.650   2.219   9.070  0.2517 -0.4990 -0.3898
  153SAPE  H17R17023   1.730   2.148   9.041  0.7817 -0.9892  2.0799
  153SAPE  H17S17024   1.706   2.313   9.087 -0.0194 -0.7779  2.6641
  153SAPE  C21817025   1.543   2.234   8.971 -0.5151 -0.1098 -0.2764
  153SAPE  H18R17026   1.487   2.140   8.953  1.0669 -0.7006 -2.6364
  153SAPE  H18S17027   1.584   2.265   8.872  1.9833 -1.5038  0.2358
  153SAPE  C21917028   1.449   2.346   8.997  0.8652 -0.8995  0.2140
  153SAPE  H19R17029   1.495   2.446   9.013 -2.1015  0.9762 -1.7816
  153SAPE  H19S17030   1.395   2.336   9.093  0.5239  1.1978  0.2943
  153SAPE  C22017031   1.347   2.363   8.885  0.3435 -0.2309  0.0959
  153SAPE  H20R17032   1.253   2.410   8.921 -0.6149 -2.4324  0.6394
  153SAPE  H20S17033   1.308   2.261   8.861 -0.8916 -0.2749  2.1215
  153SAPE  H20T17034   1.387   2.428   8.804  0.3474  2.8783  2.4304
  153SAPE   C3317035   2.255   2.084  10.213  0.1209 -0.1891  0.2043
  153SAPE   H3X17036   2.152   2.082  10.255 -0.2333 -0.7584 -0.6763
  153SAPE   H3Y17037   2.279   1.976  10.197  0.8637 -0.3170  1.8891
  153SAPE   C3417038   2.249   2.155  10.072 -0.3456  0.3095 -0.0630
  153SAPE   H4X17039   2.349   2.150  10.024 -0.8697  0.1327 -1.1585
  153SAPE   H4Y17040   2.225   2.262  10.091  2.6384  0.8731  1.2469
  153SAPE   C3517041   2.151   2.101   9.973  0.2006  0.0750  0.4234
  153SAPE   H5X17042   2.056   2.116  10.030 -1.4299  2.1406 -2.5759
  153SAPE   H5Y17043   2.171   1.994   9.948  1.1618  0.5411 -0.9146
  153SAPE   C3617044   2.119   2.190   9.856 -0.5018 -0.1439  0.3370
  153SAPE   H6X17045   2.119   2.295   9.891  2.3739  0.2970 -0.7754
  153SAPE   H6Y17046   2.017   2.162   9.820  0.1168  0.3470 -1.9855
  153SAPE   C3717047   2.202   2.172   9.730 -0.3650 -0.1345  0.0061
  153SAPE   H7X17048   2.220   2.064   9.710 -1.0089 -0.3185  0.3620
  153SAPE   H7Y17049   2.304   2.208   9.756 -0.6266  1.4012 -1.0020
  153SAPE   C3817050   2.143   2.242   9.606 -0.1341  0.3478 -0.4200
  153SAPE   H8X17051   2.165   2.351   9.609 -1.7695  0.7205 -0.6068
  153SAPE   H8Y17052   2.032   2.249   9.605 -0.0743  1.6279 -1.3511
  153SAPE   C3917053   2.205   2.193   9.472 -0.3814  0.2207  0.1164
  153SAPE   H9X17054   2.183   2.085   9.459 -0.1595  0.0144  1.3258
  153SAPE   H9Y17055   2.316   2.190   9.477 -0.2411 -1.0732 -2.3421
  153SAPE  C31017056   2.176   2.273   9.341 -0.4554 -0.3085 -0.3295
  153SAPE  H10X17057   2.229   2.371   9.347 -2.0074  0.5247  0.3432
  153SAPE  H10Y17058   2.069   2.304   9.342 -0.2862  0.3529 -1.3286
  153SAPE  C31117059   2.205   2.191   9.211  0.6905  0.3584  0.4543
  153SAPE  H11X17060   2.174   2.086   9.233  0.7286  0.5620  1.5698
  153SAPE  H11Y17061   2.313   2.183   9.187  0.6959  1.7331 -0.0313
  153SAPE  C31217062   2.130   2.255   9.093 -0.1128 -0.3088  0.3334
  153SAPE  H12X17063   2.021   2.274   9.104 -0.4068 -0.4361 -1.8915
  153SAPE  H12Y17064   2.135   2.193   9.001  0.7198  0.6822 -0.3211
  153SAPE  C31317065   2.186   2.394   9.041 -0.0983 -0.6522 -0.6223
  153SAPE  H13X17066   2.293   2.385   9.067 -0.6826 -1.9284  1.5844
  153SAPE  H13Y17067   2.147   2.472   9.110  0.8127  0.7527 -1.6180
  153SAPE  C31417068   2.158   2.426   8.894  0.4030 -0.0934  0.0361
  153SAPE  H14X17069   2.206   2.349   8.831  0.7885 -1.3820  1.8384
  153SAPE  H14Y17070   2.198   2.527   8.868 -0.5856 -0.0845 -1.6297
  153SAPE  C31517071   2.008   2.427   8.860 -0.0640  0.2260  0.0187
  153SAPE  H15X17072   1.964   2.326   8.872  0.2447 -0.0746 -1.2530
  153SAPE  H15Y17073   1.996   2.433   8.750 -0.2467 -2.4221 -0.1671
  153SAPE  C31617074   1.922   2.531   8.933  0.3013 -0.0539  0.2534
  153SAPE  H16X17075   1.966   2.633   8.930  3.2247 -1.0056  3.3207
  153SAPE  H16Y17076   1.925   2.504   9.041  2.6640  1.0818  0.5330
  153SAPE  C31717077   1.775   2.532   8.884 -0.1610  0.6442  0.7024
  153SAPE  H17X17078   1.725   2.433   8.890  2.6165 -0.9521 -0.5212
  153SAPE  H17Y17079   1.793   2.546   8.775 -2.0234 -1.3300  0.0710
  153SAPE  C31817080   1.681   2.648   8.926  0.5719  0.1070 -0.6097
  153SAPE  H18X17081   1.677   2.659   9.037 -3.3934 -0.0242 -0.6005
  153SAPE  H18Y17082   1.577   2.624   8.895  0.7741 -0.2686 -0.9994
  153SAPE  H18Z17083   1.711   2.742   8.875 -1.7578  0.4385 -1.4659
  154SAPE     N17084   4.106   4.074  10.774 -0.0701  0.1179 -0.5294
  154SAPE   HN117085   4.162   3.987  10.785  2.4351  1.7141  0.0185
  154SAPE   HN217086   4.032   4.066  10.701  0.0262  0.9689 -0.7291
  154SAPE   HN317087   4.161   4.159  10.752 -1.7003  1.4032  0.1209
  154SAPE   C1217088   4.017   4.081  10.899  0.7700 -0.5737  0.0785
  154SAPE  H12A17089   4.085   4.129  10.972 -0.6910  2.2554 -0.2766
  154SAPE  H12B17090   3.996   3.979  10.938  2.4271  0.6571  4.7725
  154SAPE   C1117091   3.891   4.170  10.869 -0.1317 -0.2408  0.3055
  154SAPE  H11A17092   3.832   4.171  10.963  0.7475 -0.6868  0.8773
  154SAPE  H11B17093   3.829   4.126  10.788  1.4989  0.6475 -1.5153
  154SAPE     P17094   3.941   4.416  10.919  0.2434 -0.1065  0.2632
  154SAPE   O1317095   3.801   4.462  10.939  0.0360 -0.5880 -0.2746
  154SAPE   O1417096   4.023   4.385  11.037  0.1347  0.8921  0.5000
  154SAPE   O1217097   3.940   4.297  10.825  0.0756  0.1288 -0.5524
  154SAPE   O1117098   4.025   4.527  10.842 -0.6187 -0.1343 -0.0424
  154SAPE    C117099   3.960   4.626  10.753 -0.6772  0.1897  0.3455
  154SAPE    HA17100   3.881   4.678  10.810  0.2503  1.7953  0.2158
  154SAPE    HB17101   4.031   4.706  10.726  0.6962 -0.8048  0.8764
  154SAPE    C217102   3.903   4.561  10.625 -0.1573 -0.0308  0.3009
  154SAPE    HS17103   3.818   4.494  10.651  0.9198 -1.3432  0.5119
  154SAPE   O2117104   4.009   4.486  10.565 -0.0593 -0.2256  0.4236
  154SAPE   C2117105   3.974   4.372  10.511  0.3681  0.3014  0.0260
  154SAPE   O2217106   3.863   4.333  10.483 -0.3256 -0.7270 -0.3152
  154SAPE   C2217107   4.102   4.294  10.485 -0.2348 -0.0733 -0.1144
  154SAPE   H2R17108   4.196   4.347  10.512 -0.0052 -0.0702 -0.9060
  154SAPE   H2S17109   4.105   4.205  10.552 -0.9129 -0.4356 -0.5486
  154SAPE    C317110   3.853   4.672  10.522 -0.4608 -0.1541  0.5511
  154SAPE    HX17111   3.931   4.751  10.517 -1.4128  0.7834  0.3356
  154SAPE    HY17112   3.764   4.725  10.562 -0.0384  0.1801  1.0560
  154SAPE   O3117113   3.838   4.615  10.384 -0.0903 -0.7620 -0.0968
  154SAPE   C3117114   3.718   4.566  10.355 -0.7434 -0.3338  0.0350
  154SAPE   O3217115   3.628   4.551  10.435  0.0194 -1.1978  0.8081
  154SAPE   C3217116   3.714   4.520  10.208  0.0127  0.0548 -0.2363
  154SAPE   H2X17117   3.745   4.414  10.205  1.8769  0.5379  0.0944
  154SAPE   H2Y17118   3.793   4.581  10.159 -0.2381  1.4091  0.9569
  154SAPE   C2317119   4.121   4.255  10.337  0.0680  0.5490 -0.4099
  154SAPE   H3R17120   4.034   4.190  10.311 -0.8240  2.0739 -1.3706
  154SAPE   H3S17121   4.209   4.187  10.332  1.3826  1.9701  2.1336
  154SAPE   C2417122   4.135   4.370  10.235 -0.1878 -0.0583  0.2848
  154SAPE   H4R17123   4.036   4.422  10.227 -0.4612 -0.7711 -1.4805
  154SAPE   H4S17124   4.165   4.322  10.140 -0.1795 -2.1078  1.2806
  154SAPE   C2517125   4.241   4.462  10.285  0.2509  0.8810 -0.2025
  154SAPE   H5R17126   4.305   4.425  10.366 -1.8269 -3.1779 -0.1961
  154SAPE   C2617127   4.261   4.584  10.236 -0.6736 -0.0011 -0.2190
  154SAPE   H6R17128   4.343   4.642  10.281  0.4769 -0.1527 -2.0266
  154SAPE   C2717129   4.181   4.645  10.124 -0.5807  0.0938  0.6484
  154SAPE   H7R17130   4.107   4.579  10.075 -1.3133  0.7296  0.8940
  154SAPE   H7S17131   4.262   4.685  10.059 -1.1058 -0.5366 -0.4195
  154SAPE   C2817132   4.105   4.764  10.159  0.4010  0.0801  0.0172
  154SAPE   H8R17133   4.101   4.781  10.268  3.1496 -1.8510  0.5134
  154SAPE   C2917134   4.048   4.846  10.071  0.2443  0.2472 -0.7438
  154SAPE   H9R17135   3.996   4.935  10.110 -0.2485 -1.0074  1.6358
  154SAPE  C21017136   4.053   4.830   9.922 -0.1192 -0.4855 -0.3776
  154SAPE  H10R17137   4.121   4.746   9.895  0.7492 -0.0559  0.4191
  154SAPE  H10S17138   4.096   4.924   9.881  0.6439 -1.3412 -1.6144
  154SAPE  C21117139   3.913   4.795   9.868 -0.7711  0.5095 -0.5729
  154SAPE  H11R17140   3.853   4.726   9.930 -0.2418  0.9848  0.4906
  154SAPE  C21217141   3.844   4.861   9.769 -0.3529 -0.5255  0.0950
  154SAPE  H12R17142   3.744   4.831   9.734 -0.4346  0.5674 -0.6324
  154SAPE  C21317143   3.905   4.976   9.690 -0.4706  0.2375 -1.2782
  154SAPE  H13R17144   3.974   4.936   9.612 -1.4609 -1.2163 -1.4408
  154SAPE  H13S17145   3.970   5.039   9.755 -0.7724  0.5901 -1.3137
  154SAPE  C21417146   3.808   5.069   9.616 -0.2810  0.3749  0.3851
  154SAPE  H14R17147   3.751   5.137   9.681  1.6089  1.8980  0.5451
  154SAPE  C21517148   3.786   5.068   9.481 -0.0207  0.1125 -0.2157
  154SAPE  H15R17149   3.709   5.137   9.443  2.1677  2.6463 -0.3442
  154SAPE  C21617150   3.839   4.971   9.384  0.6012  0.7307  1.0758
  154SAPE  H16R17151   3.844   4.865   9.419 -0.5721 -0.1288 -1.1277
  154SAPE  H16S17152   3.944   4.995   9.358  0.2695 -1.0654 -2.5454
  154SAPE  C21717153   3.753   4.946   9.254  0.3165  0.1955  0.0225
  154SAPE  H17R17154   3.654   4.916   9.296 -1.2057  0.8049 -2.8770
  154SAPE  H17S17155   3.794   4.858   9.202 -0.3709 -0.4487  0.5502
  154SAPE  C21817156   3.745   5.066   9.154  0.2360 -0.0217 -0.3266
  154SAPE  H18R17157   3.851   5.098   9.138 -0.3972  2.9215  0.6656
  154SAPE  H18S17158   3.701   5.157   9.200  1.6924  0.4627  0.1548
  154SAPE  C21917159   3.693   5.032   9.016 -0.3241  0.0954  0.4632
  154SAPE  H19R17160   3.589   4.994   9.029 -0.2346 -1.4828 -2.4711
  154SAPE  H19S17161   3.735   4.937   8.974 -1.5914  0.2017 -1.1061
  154SAPE  C22017162   3.702   5.143   8.912 -0.0459  0.1051 -0.0898
  154SAPE  H20R17163   3.711   5.100   8.810  0.2803 -0.7007  0.2760
  154SAPE  H20S17164   3.784   5.216   8.929 -0.6448  0.9504 -0.7115
  154SAPE  H20T17165   3.613   5.209   8.918 -1.5392 -1.6976 -1.4505
  154SAPE   C3317166   3.580   4.534  10.139  0.5974  0.1423  0.3900
  154SAPE   H3X17167   3.490   4.509  10.199 -1.5478  1.6787 -2.0032
  154SAPE   H3Y17168   3.584   4.470  10.049  1.3359  1.3713 -0.4963
  154SAPE   C3417169   3.556   4.681  10.098  0.3225  0.1163  0.6099
  154SAPE   H4X17170   3.642   4.741  10.061 -0.3310  0.4546 -0.4117
  154SAPE   H4Y17171   3.511   4.745  10.177 -0.1666  3.0620 -1.8399
  154SAPE   C3517172   3.449   4.704   9.983 -0.0202 -0.6572 -0.1807
  154SAPE   H5X17173   3.407   4.807   9.994  0.0852 -0.8150  2.2450
  154SAPE   H5Y17174   3.367   4.632  10.002 -1.5482  0.5996 -1.6821
  154SAPE   C3617175   3.505   4.687   9.843 -0.5007  0.2053  0.0625
  154SAPE   H6X17176   3.570   4.598   9.834  3.2932  2.8769 -1.6219
  154SAPE   H6Y17177   3.577   4.770   9.825  1.9049 -1.4575  1.4330
  154SAPE   C3717178   3.391   4.684   9.743  0.3268 -0.1676  0.1413
  154SAPE   H7X17179   3.321   4.767   9.764  0.5468 -0.1718  0.8989
  154SAPE   H7Y17180   3.341   4.585   9.731  0.1520 -0.1698  0.8835
  154SAPE   C3817181   3.443   4.717   9.602  0.8603  0.5090  0.8940
  154SAPE   H8X17182   3.533   4.653   9.591  0.8105  0.7633 -1.6125
  154SAPE   H8Y17183   3.465   4.825   9.592  0.3138  0.6173  0.7974
  154SAPE   C3917184   3.337   4.688   9.487  0.0123  0.3144 -0.3771
  154SAPE   H9X17185   3.245   4.750   9.485 -0.7027 -0.7110 -0.2877
  154SAPE   H9Y17186   3.306   4.584   9.510  0.1474  0.7433  1.9928
  154SAPE  C31017187   3.403   4.693   9.342 -0.1838  0.5532 -0.4681
  154SAPE  H10X17188   3.454   4.598   9.318  0.2696  1.2796 -2.6057
  154SAPE  H10Y17189   3.481   4.772   9.339 -0.5979  1.1313  1.7634
  154SAPE  C31117190   3.291   4.722   9.245 -0.3768  0.0841  0.5411
  154SAPE  H11X17191   3.238   4.819   9.247  1.5913  1.1924  1.1132
  154SAPE  H11Y17192   3.218   4.642   9.273  0.3272  0.2828  3.1286
  154SAPE  C31217193   3.321   4.699   9.096 -0.5019 -0.8732 -0.1817
  154SAPE  H12X17194   3.405   4.764   9.063 -0.2720  0.0390  2.0173
  154SAPE  H12Y17195   3.226   4.734   9.049  1.0055  2.3269 -1.1134
  154SAPE  C31317196   3.351   4.556   9.057  0.7217 -0.1438 -0.3258
  154SAPE  H13X17197   3.266   4.497   9.099 -0.6405 -0.2280 -3.0274
  154SAPE  H13Y17198   3.447   4.518   9.098  0.5583 -0.6475 -0.4106
  154SAPE  C31417199   3.348   4.543   8.905 -0.2853  0.3661  0.0149
  154SAPE  H14X17200   3.435   4.599   8.866  0.4469  1.3196  2.8013
  154SAPE  H14Y17201   3.254   4.587   8.865  0.2427 -0.0911 -1.8575
  154SAPE  C31517202   3.349   4.398   8.848 -0.8085 -0.0885 -0.0641
  154SAPE  H15X17203   3.433   4.340   8.893 -1.0612 -2.5355 -2.5114
  154SAPE  H15Y17204   3.376   4.394   8.740  0.1536  0.0114  0.1603
  154SAPE  C31617205   3.219   4.316   8.866 -0.1902 -0.6308  1.1038
  154SAPE  H16X17206   3.147   4.344   8.786 -1.1291 -0.2930  2.0296
  154SAPE  H16Y17207   3.189   4.329   8.973  0.7565  0.2941  1.2756
  154SAPE  C31717208   3.235   4.164   8.845  0.0355  0.4250  0.5245
  154SAPE  H17X17209   3.286   4.122   8.934  1.0135 -1.8278 -1.0139
  154SAPE  H17Y17210   3.300   4.130   8.762 -1.1111 -0.1043 -0.1894
  154SAPE  C31817211   3.097   4.096   8.835 -0.1285  0.1774  0.2050
  154SAPE  H18X17212   3.119   3.988   8.818  1.2680  0.3768  0.6729
  154SAPE  H18Y17213   3.035   4.126   8.747  0.4434 -0.2927 -0.3722
  154SAPE  H18Z17214   3.036   4.103   8.927 -1.3254 -2.7185 -0.2698
  155SAPE     N17215   3.019   5.046  10.772 -0.0380 -0.2665 -0.6641
  155SAPE   HN117216   2.944   5.080  10.836  1.5494 -0.0076  1.1403
  155SAPE   HN217217   2.992   5.040  10.672  1.4907  0.6434 -1.1636
  155SAPE   HN317218   3.026   4.946  10.800  1.9566 -0.3889 -1.4477
  155SAPE   C1217219   3.145   5.126  10.809  0.2284 -0.0505 -0.5008
  155SAPE  H12A17220   3.143   5.221  10.751  0.2507  1.8168  2.3570
  155SAPE  H12B17221   3.233   5.075  10.764 -1.1874 -1.0143 -2.3080
  155SAPE   C1117222   3.133   5.150  10.961  0.3564 -0.5208  0.1075
  155SAPE  H11A17223   3.231   5.182  11.001 -0.4498 -0.3082  1.9990
  155SAPE  H11B17224   3.119   5.058  11.021  1.2490 -1.8282 -1.6058
  155SAPE     P17225   3.038   5.354  11.091 -0.1332  0.2701  0.2913
  155SAPE   O1317226   2.967   5.310  11.211  0.4961  1.2231 -0.4639
  155SAPE   O1417227   3.182   5.383  11.119 -0.3281  0.3021  0.3921
  155SAPE   O1217228   3.026   5.242  10.976 -0.1755 -0.1645  0.1001
  155SAPE   O1117229   2.971   5.492  11.034 -0.5496  0.2142  0.1285
  155SAPE    C117230   2.860   5.486  10.952  0.1447 -0.6799  0.6440
  155SAPE    HA17231   2.786   5.413  10.992  1.7129 -0.8429  3.4993
  155SAPE    HB17232   2.816   5.588  10.943  1.0270 -0.4710 -2.8321
  155SAPE    C217233   2.891   5.464  10.800  0.6524  0.9876  0.7437
  155SAPE    HS17234   2.967   5.384  10.787 -0.0176  0.7434 -2.7189
  155SAPE   O2117235   2.948   5.586  10.739  0.2600  1.0172 -0.1117
  155SAPE   C2117236   3.026   5.574  10.638 -0.3147 -0.6738 -1.0111
  155SAPE   O2217237   3.073   5.475  10.589  1.0853  0.0588 -0.5567
  155SAPE   C2217238   3.055   5.711  10.578  0.2427  0.0554  0.0725
  155SAPE   H2R17239   2.957   5.756  10.553 -0.5406 -1.8940 -0.5001
  155SAPE   H2S17240   3.104   5.769  10.660 -0.5716  1.7578 -0.5894
  155SAPE    C317241   2.761   5.436  10.719 -0.0622  0.1115 -0.0425
  155SAPE    HX17242   2.687   5.519  10.716 -1.8981 -1.4782 -2.4859
  155SAPE    HY17243   2.699   5.353  10.760  1.2816 -2.0586 -2.1885
  155SAPE   O3117244   2.787   5.422  10.581  0.4135  0.4682  0.2834
  155SAPE   C3117245   2.817   5.298  10.552  0.8031 -0.2137 -0.4141
  155SAPE   O3217246   2.835   5.208  10.631 -0.3611  0.0799  0.0691
  155SAPE   C3217247   2.840   5.279  10.400  0.5080  0.2454  0.1136
  155SAPE   H2X17248   2.881   5.176  10.383 -0.3246  0.1253 -1.3316
  155SAPE   H2Y17249   2.908   5.358  10.363  0.3938  0.4457  0.3315
  155SAPE   C2317250   3.140   5.718  10.448  0.2838  0.8007 -1.2408
  155SAPE   H3R17251   3.106   5.643  10.374 -1.6555 -2.0145  2.2123
  155SAPE   H3S17252   3.238   5.672  10.473  0.1725 -0.2190 -2.5935
  155SAPE   C2417253   3.175   5.855  10.390 -0.0895 -0.2940 -0.1243
  155SAPE   H4R17254   3.249   5.818  10.315 -1.7032 -1.1153 -1.3831
  155SAPE   H4S17255   3.220   5.918  10.469  3.6636  0.3848 -2.5065
  155SAPE   C2517256   3.049   5.919  10.329 -0.1080  0.1975  0.0304
  155SAPE   H5R17257   2.971   5.942  10.403  1.1384 -0.7886  1.7286
  155SAPE   C2617258   3.016   5.938  10.201 -0.1539  0.2998  0.1844
  155SAPE   H6R17259   2.927   5.999  10.179  0.4050  0.5526 -1.5447
  155SAPE   C2717260   3.090   5.895  10.074  0.6515  0.0194 -0.1724
  155SAPE   H7R17261   3.010   5.878   9.999  0.6118 -0.7367  0.0394
  155SAPE   H7S17262   3.139   5.797  10.091  2.0759  0.5600 -0.9912
  155SAPE   C2817263   3.194   5.999  10.048  0.1001  0.0857 -0.3698
  155SAPE   H8R17264   3.250   6.024  10.139  0.6597 -1.8317 -0.1466
  155SAPE   C2917265   3.234   6.050   9.929 -0.2886 -0.4113 -0.3226
  155SAPE   H9R17266   3.305   6.134   9.926 -1.1234  0.3659  0.6725
  155SAPE  C21017267   3.162   6.004   9.803 -0.7037  0.6159  0.3431
  155SAPE  H10R17268   3.105   5.909   9.813  0.3075  0.1946  3.0366
  155SAPE  H10S17269   3.244   5.991   9.729  0.2898  2.3333  1.0904
  155SAPE  C21117270   3.073   6.117   9.756  0.4964 -0.0012 -0.7044
  155SAPE  H11R17271   3.004   6.158   9.832  0.3827  0.9223 -1.2949
  155SAPE  C21217272   3.061   6.158   9.625 -0.2646 -0.2279  0.5070
  155SAPE  H12R17273   2.990   6.240   9.608  0.0485 -0.0337  0.1316
  155SAPE  C21317274   3.127   6.116   9.493 -0.7617  0.8059 -0.3576
  155SAPE  H13R17275   3.049   6.083   9.422 -0.9066  0.0005  0.1624
  155SAPE  H13S17276   3.192   6.026   9.502 -0.7681  0.6846 -1.4566
  155SAPE  C21417277   3.205   6.222   9.415 -0.2998  0.0420  0.3725
  155SAPE  H14R17278   3.233   6.307   9.479  0.4820 -0.7341  1.0983
  155SAPE  C21517279   3.228   6.227   9.284 -0.2628 -0.2061 -0.6143
  155SAPE  H15R17280   3.294   6.308   9.249 -1.5689  1.5515  0.8183
  155SAPE  C21617281   3.169   6.135   9.181  0.2582 -0.7780  0.8065
  155SAPE  H16R17282   3.109   6.187   9.103  2.0422 -2.5188 -1.9009
  155SAPE  H16S17283   3.100   6.057   9.218 -0.9976  0.5094  1.2603
  155SAPE  C21717284   3.284   6.060   9.108  0.0985 -0.4219  0.6062
  155SAPE  H17R17285   3.237   5.979   9.049  1.6967 -0.3713 -0.8312
  155SAPE  H17S17286   3.353   6.006   9.177 -0.0882 -1.2780  0.1436
  155SAPE  C21817287   3.355   6.148   9.005 -0.4037  0.8095 -0.2486
  155SAPE  H18R17288   3.418   6.227   9.050  1.9760  0.6273 -2.9803
  155SAPE  H18S17289   3.280   6.199   8.940 -0.8198 -0.5717 -0.8935
  155SAPE  C21917290   3.446   6.060   8.916 -0.4601 -0.3095  0.1563
  155SAPE  H19R17291   3.378   5.989   8.865  0.0062  0.5017 -1.6679
  155SAPE  H19S17292   3.520   6.003   8.976  0.0146 -0.3135 -0.4203
  155SAPE  C22017293   3.522   6.140   8.815  0.9044 -0.0375 -0.0383
  155SAPE  H20R17294   3.578   6.073   8.745 -1.4679 -3.5211  1.1170
  155SAPE  H20S17295   3.595   6.209   8.861 -1.6112  2.3088  0.6840
  155SAPE  H20T17296   3.456   6.202   8.751  0.8019  0.5448  0.6229
  155SAPE   C3317297   2.709   5.282  10.323  0.2285  0.5402  0.3435
  155SAPE   H3X17298   2.662   5.380  10.345  2.8193  1.6233  1.5083
  155SAPE   H3Y17299   2.635   5.211  10.365 -2.2894  2.8055  0.0025
  155SAPE   C3417300   2.715   5.276  10.174 -0.0990  0.1390 -0.7211
  155SAPE   H4X17301   2.724   5.172  10.135 -1.8265 -0.3484  0.0992
  155SAPE   H4Y17302   2.804   5.333  10.140 -0.4475  1.3831  0.3579
  155SAPE   C3517303   2.582   5.335  10.130  0.7076  0.3642  0.0593
  155SAPE   H5X17304   2.564   5.440  10.162 -2.3243 -0.0662  0.1147
  155SAPE   H5Y17305   2.498   5.271  10.165  0.5097  0.5444 -0.0842
  155SAPE   C3617306   2.566   5.331   9.975 -0.1568 -0.2275 -0.2670
  155SAPE   H6X17307   2.533   5.225   9.963  0.9656 -0.5596 -0.5366
  155SAPE   H6Y17308   2.660   5.333   9.916 -0.4214 -2.0163 -0.8111
  155SAPE   C3717309   2.457   5.421   9.905  0.1247  0.5737  0.2365
  155SAPE   H7X17310   2.505   5.521   9.902  1.3358 -0.0089 -1.8340
  155SAPE   H7Y17311   2.368   5.420   9.971  0.3570 -0.4346  0.5531
  155SAPE   C3817312   2.415   5.373   9.769  0.1089 -0.0766  0.3081
  155SAPE   H8X17313   2.326   5.429   9.732  0.9595  0.3651 -1.1694
  155SAPE   H8Y17314   2.384   5.266   9.774 -1.9237  0.4707  0.6167
  155SAPE   C3917315   2.519   5.400   9.657  0.8809  0.1409  0.6814
  155SAPE   H9X17316   2.608   5.334   9.667  1.0991  0.4639  0.9195
  155SAPE   H9Y17317   2.561   5.503   9.666 -0.5967  0.9618 -1.3073
  155SAPE  C31017318   2.450   5.383   9.525  0.1760  0.0777 -0.0435
  155SAPE  H10X17319   2.367   5.457   9.518  1.7629  1.9484 -0.1624
  155SAPE  H10Y17320   2.415   5.278   9.520  0.1128  0.1396 -1.0317
  155SAPE  C31117321   2.548   5.408   9.398 -0.1398  0.4563 -1.6408
  155SAPE  H11X17322   2.627   5.334   9.426  1.3127  2.8283  1.0685
  155SAPE  H11Y17323   2.584   5.513   9.395 -1.7765  1.0947 -0.2307
  155SAPE  C31217324   2.494   5.370   9.266 -0.3991 -0.0548 -0.3782
  155SAPE  H12X17325   2.405   5.432   9.242  0.7205  1.2368 -1.3590
  155SAPE  H12Y17326   2.458   5.265   9.270 -0.5779 -0.0078  4.0689
  155SAPE  C31317327   2.612   5.377   9.163  0.4239  0.3817 -0.1835
  155SAPE  H13X17328   2.672   5.286   9.183 -0.5399 -0.8380 -2.4493
  155SAPE  H13Y17329   2.678   5.465   9.177 -0.3151  1.0006 -0.5395
  155SAPE  C31417330   2.558   5.378   9.018 -0.8678 -0.5804  0.5973
  155SAPE  H14X17331   2.489   5.465   9.011 -0.8913 -0.5775  0.8681
  155SAPE  H14Y17332   2.497   5.288   8.996  1.2694 -2.3062  1.4235
  155SAPE  C31517333   2.670   5.384   8.910  0.1196 -0.2636 -0.6926
  155SAPE  H15X17334   2.703   5.280   8.886 -3.4847 -1.8966  0.6455
  155SAPE  H15Y17335   2.763   5.436   8.941 -0.6209 -0.9275  3.0978
  155SAPE  C31617336   2.614   5.447   8.778  0.2529  0.7395  0.1317
  155SAPE  H16X17337   2.553   5.537   8.801 -0.2816  0.4177 -0.0267
  155SAPE  H16Y17338   2.546   5.374   8.729  0.1828 -0.3813  1.8416
  155SAPE  C31717339   2.724   5.483   8.683  0.4087  0.5845 -0.1767
  155SAPE  H17X17340   2.796   5.399   8.671  2.2828  2.1364 -0.3140
  155SAPE  H17Y17341   2.784   5.563   8.732  1.7620 -0.8391  0.5921
  155SAPE  C31817342   2.685   5.522   8.543 -0.0852 -0.4308 -0.6323
  155SAPE  H18X17343   2.622   5.441   8.502  0.6559 -1.6992  0.6636
  155SAPE  H18Y17344   2.775   5.529   8.478  1.6452 -3.7090  1.2024
  155SAPE  H18Z17345   2.631   5.619   8.540 -2.9578 -1.9232 -0.1909
  156SAPE     N17346   5.868   0.904  10.684 -0.0859  0.5939  0.4500
  156SAPE   HN117347   5.919   0.818  10.713  1.1699  0.4285 -2.0379
  156SAPE   HN217348   5.899   0.981  10.747 -2.0288  1.0460  0.9411
  156SAPE   HN317349   5.769   0.895  10.717 -1.0999 -1.3005 -2.7123
  156SAPE   C1217350   5.897   0.952  10.545  0.6126  0.4577  0.0104
  156SAPE  H12A17351   5.858   1.054  10.524  0.7267  0.3355 -0.8418
  156SAPE  H12B17352   5.839   0.883  10.478  0.9005 -0.2497  0.4764
  156SAPE   C1117353   6.041   0.949  10.505  0.1370  0.3687 -0.2915
  156SAPE  H11A17354   6.042   0.964  10.395 -0.8456  1.6245 -0.1497
  156SAPE  H11B17355   6.070   0.841  10.503  0.7827  0.5440 -1.6907
  156SAPE     P17356   6.268   1.017  10.627 -0.0394 -0.0665 -0.0913
  156SAPE   O1317357   6.320   1.140  10.687  0.1797  0.3351  0.5818
  156SAPE   O1417358   6.269   0.901  10.715 -0.6010  0.3713 -0.1506
  156SAPE   O1217359   6.124   1.047  10.577 -0.0883  0.1837 -0.5948
  156SAPE   O1117360   6.345   0.976  10.492 -0.6005  0.3531 -0.1215
  156SAPE    C117361   6.392   1.064  10.392  0.3974  0.2263  0.2409
  156SAPE    HA17362   6.416   1.166  10.429 -1.3745  0.5005  0.7061
  156SAPE    HB17363   6.497   1.039  10.364  0.7849  1.5371  0.4925
  156SAPE    C217364   6.313   1.058  10.256  0.4045  0.1526 -0.9860
  156SAPE    HS17365   6.367   1.111  10.174  0.2662  0.4177 -0.9057
  156SAPE   O2117366   6.192   1.127  10.281 -0.2859  0.2515  0.0663
  156SAPE   C2117367   6.184   1.256  10.303  0.2835  0.7312 -0.7313
  156SAPE   O2217368   6.275   1.336  10.309  0.3344  0.1595  0.2229
  156SAPE   C2217369   6.032   1.289  10.292 -0.5281 -0.6263 -0.3933
  156SAPE   H2R17370   6.003   1.237  10.198  0.8711 -0.1478 -1.1261
  156SAPE   H2S17371   5.983   1.234  10.375 -1.4425 -0.6060 -0.9159
  156SAPE    C317372   6.282   0.917  10.209 -0.3852  0.2058  0.4545
  156SAPE    HX17373   6.229   0.859  10.287 -4.6312  1.2665 -1.3356
  156SAPE    HY17374   6.376   0.864  10.182 -2.6948 -4.2813  0.3324
  156SAPE   O3117375   6.189   0.924  10.099 -0.7808 -0.0107  0.6107
  156SAPE   C3117376   6.241   0.933   9.973 -0.4158  0.3305  0.1659
  156SAPE   O3217377   6.360   0.925   9.946 -0.1144  0.1551 -0.1302
  156SAPE   C3217378   6.125   0.954   9.881 -0.0874  0.2018  0.5521
  156SAPE   H2X17379   6.071   1.047   9.908 -4.4829 -2.5413  2.2213
  156SAPE   H2Y17380   6.050   0.876   9.906  0.5717 -0.8478 -0.6082
  156SAPE   C2317381   5.998   1.436  10.294 -0.0177 -1.1824 -0.0747
  156SAPE   H3R17382   6.029   1.480  10.391 -2.7458 -0.5129  0.5614
  156SAPE   H3S17383   5.889   1.456  10.291  0.4392  1.8161 -0.3658
  156SAPE   C2417384   6.055   1.534  10.189 -0.5108 -0.4657 -0.4839
  156SAPE   H4R17385   6.166   1.531  10.184 -0.5337 -1.2295 -0.6587
  156SAPE   H4S17386   6.026   1.632  10.232  1.1852 -0.9736  2.0361
  156SAPE   C2517387   5.992   1.500  10.053 -0.0164  0.4640  0.4621
  156SAPE   H5R17388   5.888   1.524  10.030  0.4341  1.0860 -1.0815
  156SAPE   C2617389   6.062   1.445   9.951 -0.1417 -0.2174  0.5696
  156SAPE   H6R17390   6.003   1.410   9.865  2.6942  0.1737 -1.6767
  156SAPE   C2717391   6.207   1.402   9.943  0.0086 -0.5094  0.0053
  156SAPE   H7R17392   6.213   1.298   9.905 -0.0806 -0.7876  0.7478
  156SAPE   H7S17393   6.259   1.410  10.041  0.8506 -0.0603 -0.4660
  156SAPE   C2817394   6.280   1.488   9.844 -0.4466  0.4515  0.0222
  156SAPE   H8R17395   6.282   1.594   9.872 -1.3931  0.6092 -0.4585
  156SAPE   C2917396   6.354   1.440   9.738 -0.3646 -0.2117  0.1009
  156SAPE   H9R17397   6.387   1.519   9.668 -2.1231  0.3599 -0.1385
  156SAPE  C21017398   6.377   1.294   9.691 -0.5772  0.4298 -0.0431
  156SAPE  H10R17399   6.315   1.274   9.602  1.0122 -1.3108 -0.8098
  156SAPE  H10S17400   6.350   1.222   9.771  0.4116 -0.4936 -0.5236
  156SAPE  C21117401   6.525   1.277   9.655  0.2498  0.0491 -1.0713
  156SAPE  H11R17402   6.599   1.324   9.721  0.3436 -1.0202 -0.3844
  156SAPE  C21217403   6.574   1.203   9.557  0.1339 -0.4570 -1.1974
  156SAPE  H12R17404   6.683   1.191   9.555  0.1900 -0.1610 -0.1702
  156SAPE  C21317405   6.499   1.120   9.454  0.5211  0.6327 -0.0262
  156SAPE  H13R17406   6.395   1.108   9.491  1.0087  2.0771  1.9928
  156SAPE  H13S17407   6.545   1.018   9.451 -0.6822  0.0186  1.1385
  156SAPE  C21417408   6.497   1.187   9.322 -0.6776 -0.7529 -0.2366
  156SAPE  H14R17409   6.570   1.268   9.310 -2.5834  0.9180 -1.2531
  156SAPE  C21517410   6.428   1.149   9.213  0.1576  0.1195  0.5000
  156SAPE  H15R17411   6.467   1.206   9.127  3.1407 -0.6272  1.2404
  156SAPE  C21617412   6.327   1.039   9.193  0.1841  0.1151 -0.4786
  156SAPE  H16R17413   6.316   0.978   9.286  2.4695  0.7932  0.2989
  156SAPE  H16S17414   6.373   0.968   9.121  1.7616  0.0661  0.5391
  156SAPE  C21717415   6.190   1.085   9.142 -0.7062 -0.5334 -0.2588
  156SAPE  H17R17416   6.127   1.127   9.224  2.5656 -0.8995  2.7044
  156SAPE  H17S17417   6.145   0.988   9.113 -2.1641 -0.1218  0.5226
  156SAPE  C21817418   6.200   1.197   9.032  0.8139  0.0493  0.0451
  156SAPE  H18R17419   6.295   1.168   8.981  0.2713 -1.2606 -0.2419
  156SAPE  H18S17420   6.220   1.294   9.083  2.2709 -0.0474 -0.2976
  156SAPE  C21917421   6.081   1.201   8.937  0.3271  1.1869 -0.4005
  156SAPE  H19R17422   6.102   1.289   8.872  2.2244  1.4166  0.4472
  156SAPE  H19S17423   5.983   1.218   8.986 -1.4972 -1.0031 -3.0359
  156SAPE  C22017424   6.071   1.077   8.840 -0.3906  0.2095 -0.1663
  156SAPE  H20R17425   6.159   1.012   8.824 -0.1958 -0.2697  2.4422
  156SAPE  H20S17426   6.026   1.112   8.744 -0.0771 -1.4391 -0.9556
  156SAPE  H20T17427   6.000   1.003   8.882 -0.9053  0.0086 -1.3535
  156SAPE   C3317428   6.169   0.935   9.735 -0.1722 -0.0548 -0.3583
  156SAPE   H3X17429   6.201   0.830   9.721  0.3277  0.3708 -3.1399
  156SAPE   H3Y17430   6.258   0.997   9.709  0.3992  0.7601  3.0440
  156SAPE   C3417431   6.048   0.971   9.647  0.1355  0.0411  0.9047
  156SAPE   H4X17432   5.961   0.927   9.699  0.8407 -1.8968  0.5457
  156SAPE   H4Y17433   6.050   0.922   9.547 -1.0080  0.3488  0.7282
  156SAPE   C3517434   6.020   1.119   9.625 -0.4711 -0.0351  0.8455
  156SAPE   H5X17435   6.117   1.169   9.605 -0.1540 -1.4763 -1.5436
  156SAPE   H5Y17436   5.979   1.157   9.721  1.2742  2.4082  0.7273
  156SAPE   C3617437   5.931   1.157   9.505  0.8935 -0.1112  0.4948
  156SAPE   H6X17438   5.826   1.138   9.537 -0.7201  1.9703 -2.9195
  156SAPE   H6Y17439   5.957   1.094   9.417 -0.0365 -0.2242  0.2895
  156SAPE   C3717440   5.936   1.306   9.462  0.7227 -0.4916  0.5665
  156SAPE   H7X17441   5.869   1.329   9.376 -0.9550  1.4944  2.2844
  156SAPE   H7Y17442   6.037   1.323   9.419  0.3161 -0.3319 -0.3460
  156SAPE   C3817443   5.909   1.413   9.574 -0.1541  0.3534 -0.3288
  156SAPE   H8X17444   5.922   1.366   9.674 -2.4879 -0.6733 -0.4374
  156SAPE   H8Y17445   5.801   1.438   9.586  0.1014  0.4373  2.4047
  156SAPE   C3917446   6.014   1.528   9.572  0.4933 -0.0387 -0.3765
  156SAPE   H9X17447   6.110   1.483   9.604 -0.7994 -1.9499  1.0010
  156SAPE   H9Y17448   5.985   1.604   9.649  0.1295 -0.3129 -0.2417
  156SAPE  C31017449   6.032   1.585   9.433  0.8262  0.0566 -0.1061
  156SAPE  H10X17450   6.023   1.695   9.444 -0.3472 -0.0547  0.1097
  156SAPE  H10Y17451   5.940   1.568   9.373  0.5299  2.2294 -0.3641
  156SAPE  C31117452   6.158   1.548   9.351  0.7817  0.3844 -0.5329
  156SAPE  H11X17453   6.144   1.448   9.305  0.0796 -0.2889  1.0595
  156SAPE  H11Y17454   6.245   1.548   9.420  0.7757  2.1801 -0.4815
  156SAPE  C31217455   6.190   1.645   9.233  0.4425 -0.6517 -0.6582
  156SAPE  H12X17456   6.230   1.740   9.273 -1.0325  0.3504 -1.5101
  156SAPE  H12Y17457   6.102   1.669   9.170  0.9246 -0.4413 -1.2570
  156SAPE  C31317458   6.297   1.582   9.147 -0.0840  0.1276  0.0536
  156SAPE  H13X17459   6.290   1.472   9.161  1.1512  0.3034  2.4555
  156SAPE  H13Y17460   6.400   1.607   9.181 -0.3183 -0.0582  0.9156
  156SAPE  C31417461   6.274   1.619   9.005 -0.3089  0.0303  0.4448
  156SAPE  H14X17462   6.177   1.577   8.972  0.6037 -0.2511 -2.1393
  156SAPE  H14Y17463   6.346   1.552   8.951  0.4932 -0.6487  2.2719
  156SAPE  C31517464   6.297   1.767   8.967  0.2457 -0.5229  0.4113
  156SAPE  H15X17465   6.366   1.825   9.033  0.6763  0.0741 -0.5454
  156SAPE  H15Y17466   6.199   1.810   8.996 -0.1697 -1.9372  1.1998
  156SAPE  C31617467   6.309   1.787   8.815  0.5810 -0.1244  0.1505
  156SAPE  H16X17468   6.219   1.770   8.753 -0.0039 -1.6402  1.3610
  156SAPE  H16Y17469   6.371   1.698   8.793  0.4280  0.4104 -2.9419
  156SAPE  C31717470   6.384   1.911   8.772 -0.2122 -0.3679 -0.8595
  156SAPE  H17X17471   6.468   1.939   8.840  1.1795 -3.0265 -1.3712
  156SAPE  H17Y17472   6.310   1.993   8.758 -1.4042 -1.1080  0.8242
  156SAPE  C31817473   6.457   1.882   8.639  0.0929  0.3284 -0.0557
  156SAPE  H18X17474   6.386   1.853   8.558  0.0681  0.0274  0.0721
  156SAPE  H18Y17475   6.516   1.789   8.655 -0.2771  0.2470  0.8700
  156SAPE  H18Z17476   6.527   1.964   8.610 -0.7248  1.2802  0.6309
  157SAPE     N17477   0.857   3.206  11.020  0.1811 -0.2208 -0.0383
  157SAPE   HN117478   0.934   3.147  11.058  0.9728 -0.1126 -1.3984
  157SAPE   HN217479   0.887   3.287  10.962 -3.1937 -2.3011 -5.4901
  157SAPE   HN317480   0.810   3.250  11.102  1.6746 -0.4775  1.0058
  157SAPE   C1217481   0.765   3.122  10.941  0.3179  0.2549 -0.0584
  157SAPE  H12A17482   0.697   3.197  10.896 -0.0110 -1.1213 -1.9790
  157SAPE  H12B17483   0.708   3.050  11.003 -0.6310  1.9438  1.1222
  157SAPE   C1117484   0.835   3.038  10.836  0.0186 -0.0708  1.1174
  157SAPE  H11A17485   0.939   3.076  10.842  0.0908 -0.2338  0.9291
  157SAPE  H11B17486   0.791   3.052  10.735 -1.7889  2.8959  2.1858
  157SAPE     P17487   0.925   2.793  10.794  0.4330  0.0275 -0.1371
  157SAPE   O1317488   1.058   2.763  10.859  0.3802  0.6714 -0.1620
  157SAPE   O1417489   0.829   2.677  10.776 -0.4961  0.4284  0.5881
  157SAPE   O1217490   0.843   2.899  10.879 -0.3290 -0.1001  0.1091
  157SAPE   O1117491   0.952   2.865  10.664  0.6103  0.0582  0.3849
  157SAPE    C117492   0.876   2.872  10.541 -0.0840 -0.1803  0.2123
  157SAPE    HA17493   0.769   2.854  10.564  0.0017 -1.5621 -0.3963
  157SAPE    HB17494   0.886   2.976  10.504 -0.5573  0.4048  1.6473
  157SAPE    C217495   0.916   2.775  10.431 -0.1832 -0.5363  0.3606
  157SAPE    HS17496   0.935   2.679  10.483  3.6798  0.0768  0.4448
  157SAPE   O2117497   1.038   2.832  10.378 -0.9194 -0.2275 -0.1441
  157SAPE   C2117498   1.153   2.763  10.388  0.8073  0.2605  0.0123
  157SAPE   O2217499   1.175   2.658  10.443  0.1787 -0.2020 -0.3068
  157SAPE   C2217500   1.262   2.850  10.313  0.0247 -0.3896  1.1688
  157SAPE   H2R17501   1.200   2.896  10.232  1.5142  2.1174  1.3596
  157SAPE   H2S17502   1.285   2.926  10.391  0.9787 -1.2315  1.7316
  157SAPE    C317503   0.809   2.767  10.312 -0.0613 -0.2950 -0.2629
  157SAPE    HX17504   0.867   2.716  10.233 -1.2937  2.0143 -2.8284
  157SAPE    HY17505   0.795   2.869  10.270  2.3356  0.8890  1.5024
  157SAPE   O3117506   0.688   2.701  10.356 -0.4262 -0.7576 -0.6156
  157SAPE   C3117507   0.599   2.677  10.256 -0.3820  0.2432  0.4785
  157SAPE   O3217508   0.613   2.700  10.140  0.4773  0.3645  0.0958
  157SAPE   C3217509   0.476   2.597  10.318 -0.6239 -0.0825 -0.4863
  157SAPE   H2X17510   0.512   2.543  10.408 -0.0472  0.8995 -0.1098
  157SAPE   H2Y17511   0.451   2.525  10.238  1.5102 -1.2788 -0.1210
  157SAPE   C2317512   1.375   2.777  10.244  0.5598  0.3148 -0.8307
  157SAPE   H3R17513   1.415   2.704  10.318 -1.6613 -0.2581 -0.1226
  157SAPE   H3S17514   1.461   2.844  10.223 -0.1100  1.4036 -0.1524
  157SAPE   C2417515   1.339   2.714  10.106 -0.3097 -0.1832 -0.7259
  157SAPE   H4R17516   1.273   2.632  10.141  1.0918 -0.1988  2.2343
  157SAPE   H4S17517   1.428   2.666  10.061 -0.4540  1.8640 -3.4183
  157SAPE   C2517518   1.295   2.811  10.002  0.4312  0.3347 -0.5010
  157SAPE   H5R17519   1.367   2.891   9.978  0.1915  0.7311  0.0826
  157SAPE   C2617520   1.178   2.821   9.946  0.1652  0.3766 -1.0921
  157SAPE   H6R17521   1.163   2.878   9.853 -1.3135 -0.9391 -1.7177
  157SAPE   C2717522   1.066   2.722   9.973 -0.4122 -0.7041  0.1924
  157SAPE   H7R17523   1.060   2.701  10.081  1.4835 -2.1400  0.0752
  157SAPE   H7S17524   1.102   2.625   9.932 -2.2439 -1.5613  0.5368
  157SAPE   C2817525   0.928   2.759   9.921 -0.5908  0.3703  0.0426
  157SAPE   H8R17526   0.869   2.833   9.976 -0.9943  0.5559 -0.6329
  157SAPE   C2917527   0.871   2.708   9.807 -0.3805  0.5087 -0.2402
  157SAPE   H9R17528   0.763   2.718   9.792 -0.5386 -2.5294 -1.8684
  157SAPE  C21017529   0.934   2.622   9.695  0.2286  0.9095 -0.6982
  157SAPE  H10R17530   0.882   2.526   9.670  0.7367  0.5719 -0.4641
  157SAPE  H10S17531   1.031   2.576   9.722  0.5265  1.1381 -1.3742
  157SAPE  C21117532   0.962   2.684   9.571  0.4935 -0.5971  0.8828
  157SAPE  H11R17533   1.067   2.708   9.552  0.4016 -1.2910 -0.6805
  157SAPE  C21217534   0.868   2.738   9.491  0.6222 -0.3388 -0.1308
  157SAPE  H12R17535   0.894   2.786   9.395 -0.4626  2.0202  0.6892
  157SAPE  C21317536   0.717   2.722   9.499 -0.2653 -0.2948 -0.2189
  157SAPE  H13R17537   0.683   2.651   9.577 -3.6008 -0.1116 -1.3704
  157SAPE  H13S17538   0.696   2.665   9.406  0.2856 -0.5318 -0.2039
  157SAPE  C21417539   0.624   2.839   9.494 -0.0547  0.2134 -0.2821
  157SAPE  H14R17540   0.586   2.883   9.587  0.3845  0.1472 -0.0717
  157SAPE  C21517541   0.584   2.900   9.381 -0.8687 -0.0913  0.6358
  157SAPE  H15R17542   0.517   2.986   9.394 -0.8807 -0.0539  0.3351
  157SAPE  C21617543   0.632   2.860   9.244 -0.0273  0.4314 -0.0114
  157SAPE  H16R17544   0.553   2.795   9.201  0.3581  0.9567 -1.6073
  157SAPE  H16S17545   0.721   2.793   9.236 -1.6032 -1.7223 -0.3583
  157SAPE  C21717546   0.646   2.989   9.157 -0.3105 -0.8337  0.1046
  157SAPE  H17R17547   0.725   3.058   9.196  0.3301 -1.1623 -0.5855
  157SAPE  H17S17548   0.550   3.044   9.167 -0.4469 -1.0626  0.0614
  157SAPE  C21817549   0.695   2.969   9.013 -0.0116  0.4117  0.0862
  157SAPE  H18R17550   0.688   3.065   8.957 -2.2988  0.1351 -0.1966
  157SAPE  H18S17551   0.624   2.892   8.978  0.3260 -0.0700  0.4515
  157SAPE  C21917552   0.847   2.937   9.009 -0.1075 -0.1845 -0.1648
  157SAPE  H19R17553   0.869   2.834   9.045 -0.2261 -0.1981 -0.1297
  157SAPE  H19S17554   0.895   3.010   9.077 -0.0547 -1.9217  1.7692
  157SAPE  C22017555   0.920   2.951   8.874  0.6984 -0.1748 -0.1418
  157SAPE  H20R17556   0.901   2.873   8.797  3.9880 -1.2987  0.0294
  157SAPE  H20S17557   1.028   2.952   8.899  1.0910  2.3943 -1.6020
  157SAPE  H20T17558   0.893   3.048   8.828 -1.6640 -0.8523 -0.3531
  157SAPE   C3317559   0.357   2.686  10.352 -0.1022 -0.0396  0.8980
  157SAPE   H3X17560   0.317   2.748  10.270  2.5297  0.9973  0.2963
  157SAPE   H3Y17561   0.399   2.759  10.424  2.3980  0.5698 -1.0371
  157SAPE   C3417562   0.236   2.606  10.395  0.2662 -0.0055 -0.0979
  157SAPE   H4X17563   0.155   2.672  10.432  0.4919 -0.0855  0.5562
  157SAPE   H4Y17564   0.272   2.541  10.478  1.6572  1.1680  0.2579
  157SAPE   C3517565   0.169   2.519  10.275  0.4679 -0.0675 -0.6223
  157SAPE   H5X17566   0.111   2.435  10.319  2.6017 -1.0820  0.4293
  157SAPE   H5Y17567   0.250   2.463  10.225 -0.9870 -2.6152 -0.2844
  157SAPE   C3617568   0.086   2.607  10.174  0.5684  0.6331  0.6743
  157SAPE   H6X17569   0.150   2.689  10.136  0.0713  1.4177  1.4849
  157SAPE   H6Y17570   0.002   2.654  10.230  1.6884  0.4119  2.6431
  157SAPE   C3717571   0.019   2.533  10.060 -0.0776  0.5302  0.6598
  157SAPE   H7X17572  -0.053   2.456  10.095  0.5509 -0.1396  0.5152
  157SAPE   H7Y17573   0.102   2.478  10.010  0.4218 -0.0395  2.0661
  157SAPE   C3817574  -0.044   2.631   9.962 -0.8087 -0.0078  0.1438
  157SAPE   H8X17575   0.035   2.700   9.924 -0.1496  0.4006  2.1201
  157SAPE   H8Y17576  -0.122   2.687  10.018  0.0634  0.2947  1.1046
  157SAPE   C3917577  -0.115   2.558   9.846  0.2551  0.6390  0.3562
  157SAPE   H9X17578  -0.197   2.501   9.894 -0.3893  0.7580 -0.5748
  157SAPE   H9Y17579  -0.036   2.494   9.802  0.5485  0.9002  0.5000
  157SAPE  C31017580  -0.168   2.656   9.747 -0.1254 -0.0555  0.7057
  157SAPE  H10X17581  -0.079   2.721   9.732  0.7085 -1.6204 -1.7860
  157SAPE  H10Y17582  -0.253   2.713   9.788 -0.2609  0.8254 -0.7254
  157SAPE  C31117583  -0.205   2.591   9.611 -0.2437  0.2717  1.0999
  157SAPE  H11X17584  -0.306   2.547   9.623 -2.2058  4.4246  1.4995
  157SAPE  H11Y17585  -0.125   2.522   9.579  2.0395  2.4600  1.7860
  157SAPE  C31217586  -0.228   2.692   9.507 -0.4757 -0.2479  0.2778
  157SAPE  H12X17587  -0.137   2.753   9.487  0.1394 -0.1139  3.1058
  157SAPE  H12Y17588  -0.286   2.776   9.552 -0.2430  0.5149 -0.7889
  157SAPE  C31317589  -0.302   2.635   9.386  0.9012  0.2575  0.8436
  157SAPE  H13X17590  -0.409   2.626   9.415  0.7215 -0.3525  0.0261
  157SAPE  H13Y17591  -0.260   2.534   9.368 -1.7652 -0.8184  0.1599
  157SAPE  C31417592  -0.278   2.737   9.274  0.3161 -0.6542  1.1108
  157SAPE  H14X17593  -0.270   2.841   9.310  1.5914 -0.4905  0.4137
  157SAPE  H14Y17594  -0.360   2.729   9.199  1.7927 -0.3110 -0.6027
  157SAPE  C31517595  -0.144   2.706   9.197  0.3460 -0.4699 -0.4788
  157SAPE  H15X17596  -0.145   2.599   9.168 -1.0087 -0.3597 -0.9007
  157SAPE  H15Y17597  -0.060   2.722   9.268 -0.6160 -1.3299  0.9052
  157SAPE  C31617598  -0.140   2.787   9.071  0.1716  0.5304  0.0530
  157SAPE  H16X17599  -0.173   2.892   9.083 -0.6328  0.3292 -0.3569
  157SAPE  H16Y17600  -0.215   2.739   9.005 -1.8294 -2.7189  4.1761
  157SAPE  C31717601  -0.011   2.777   9.000  0.3147 -1.3927 -0.1809
  157SAPE  H17X17602   0.010   2.669   8.983  0.8193 -1.5936  1.5109
  157SAPE  H17Y17603   0.071   2.816   9.063  2.9416 -4.8439 -1.1422
  157SAPE  C31817604  -0.005   2.867   8.871  0.8999  0.2914 -0.3632
  157SAPE  H18X17605   0.087   2.838   8.816 -0.1319 -2.0789 -0.9391
  157SAPE  H18Y17606   0.011   2.973   8.902  1.5311  0.3840 -0.9789
  157SAPE  H18Z17607  -0.090   2.854   8.801  2.7079 -3.9645 -2.0638
  158SAPE     N17608   1.211   2.523  10.877  0.0974 -0.3574  0.3944
  158SAPE   HN117609   1.292   2.584  10.901 -0.4813  0.7774 -0.4188
  158SAPE   HN217610   1.127   2.575  10.910  0.5157 -0.4542  1.6992
  158SAPE   HN317611   1.219   2.436  10.933 -2.3727 -0.6322  0.4322
  158SAPE   C1217612   1.199   2.484  10.729 -0.5543  0.4133 -0.0957
  158SAPE  H12A17613   1.295   2.437  10.698 -0.5716  0.1327  0.2648
  158SAPE  H12B17614   1.185   2.577  10.670  1.0800  0.9673  0.3167
  158SAPE   C1117615   1.082   2.389  10.711 -0.4679  0.4026 -0.3669
  158SAPE  H11A17616   1.084   2.356  10.605 -0.5744  1.4547 -0.7045
  158SAPE  H11B17617   0.990   2.451  10.719 -0.3374  0.5696 -0.1342
  158SAPE     P17618   1.154   2.141  10.787  0.1567  0.2513  0.1270
  158SAPE   O1317619   1.225   2.105  10.910  0.1960  0.0705 -0.2483
  158SAPE   O1417620   1.053   2.046  10.736  0.3127 -0.5119 -0.0412
  158SAPE   O1217621   1.082   2.279  10.807 -0.6568  0.2137  0.6477
  158SAPE   O1117622   1.252   2.177  10.669 -0.1368 -0.3567 -0.3388
  158SAPE    C117623   1.284   2.078  10.562  0.0743 -0.9927  0.1626
  158SAPE    HA17624   1.393   2.057  10.564  0.1348 -0.7030 -0.0299
  158SAPE    HB17625   1.228   1.984  10.577  1.0858 -1.3211  2.1092
  158SAPE    C217626   1.253   2.133  10.415  0.0459 -0.4042  0.2365
  158SAPE    HS17627   1.289   2.051  10.348  1.3651  0.2788  0.0700
  158SAPE   O2117628   1.317   2.255  10.394  0.3298  0.1511  0.3855
  158SAPE   C2117629   1.445   2.244  10.354 -0.8677 -0.3361 -0.4251
  158SAPE   O2217630   1.509   2.141  10.352 -0.7260  0.0552 -0.4283
  158SAPE   C2217631   1.501   2.383  10.330  0.1093  0.0632  0.0746
  158SAPE   H2R17632   1.428   2.451  10.280  0.5395  0.3848 -0.1250
  158SAPE   H2S17633   1.517   2.431  10.428 -0.0684 -0.7038  0.4845
  158SAPE    C317634   1.099   2.143  10.396  0.0751  0.3051  0.1161
  158SAPE    HX17635   1.044   2.183  10.483 -1.0988 -1.1704  0.0960
  158SAPE    HY17636   1.066   2.036  10.395 -0.2846 -0.0629  6.8588
  158SAPE   O3117637   1.063   2.206  10.269  0.2383  0.1002  0.3614
  158SAPE   C3117638   1.012   2.327  10.272 -0.0099  0.0223 -0.1592
  158SAPE   O3217639   0.985   2.401  10.368  0.4156  0.2083  0.3198
  158SAPE   C3217640   0.980   2.368  10.131  0.9422 -0.2509  0.6660
  158SAPE   H2X17641   1.069   2.362  10.065 -0.1098 -1.3266 -0.7333
  158SAPE   H2Y17642   0.965   2.478  10.141  0.9036 -0.2919  1.0896
  158SAPE   C2317643   1.641   2.394  10.267 -0.0592  0.2180 -0.6528
  158SAPE   H3R17644   1.706   2.311  10.303  1.0607  0.4302 -2.0938
  158SAPE   H3S17645   1.691   2.488  10.297  0.9794  0.1509 -2.0625
  158SAPE   C2417646   1.653   2.390  10.114 -0.4658  0.1938 -0.1398
  158SAPE   H4R17647   1.760   2.406  10.092 -0.0268  0.2239  1.8495
  158SAPE   H4S17648   1.601   2.480  10.074 -1.2421 -0.1772  0.0001
  158SAPE   C2517649   1.611   2.256  10.058 -0.0477 -0.2469 -0.5896
  158SAPE   H5R17650   1.681   2.175  10.083  0.5800  0.1998 -0.8825
  158SAPE   C2617651   1.500   2.222   9.992 -0.6190 -0.2770 -0.3211
  158SAPE   H6R17652   1.492   2.116   9.966  0.2883  0.2600 -3.1204
  158SAPE   C2717653   1.382   2.318   9.955  0.7771 -0.3380 -0.3372
  158SAPE   H7R17654   1.382   2.399  10.030  4.6623  0.2179 -0.7521
  158SAPE   H7S17655   1.285   2.264   9.967  0.1924  1.0729  1.9205
  158SAPE   C2817656   1.402   2.385   9.826 -0.8712  0.3793  0.8985
  158SAPE   H8R17657   1.456   2.479   9.843  1.3762 -1.2775  3.7742
  158SAPE   C2917658   1.351   2.363   9.704 -0.4943  0.4218  0.0409
  158SAPE   H9R17659   1.381   2.425   9.618 -0.0916  0.1493 -0.0184
  158SAPE  C21017660   1.252   2.252   9.663 -0.4456  1.3322  0.6982
  158SAPE  H10R17661   1.150   2.296   9.661 -1.3126 -0.5742  0.5093
  158SAPE  H10S17662   1.237   2.171   9.738 -0.4433 -0.2081 -0.9090
  158SAPE  C21117663   1.291   2.211   9.524  0.0480  0.7382  0.4649
  158SAPE  H11R17664   1.336   2.112   9.507  0.7233  0.4219  3.6110
  158SAPE  C21217665   1.266   2.274   9.405  0.3586  0.2859 -0.2376
  158SAPE  H12R17666   1.289   2.220   9.312  1.5937  1.3470 -0.5794
  158SAPE  C21317667   1.201   2.408   9.382 -0.2370 -0.3477 -0.6977
  158SAPE  H13R17668   1.200   2.454   9.483  1.9992 -0.4853 -0.5559
  158SAPE  H13S17669   1.100   2.410   9.336  0.2418  0.2848 -1.7490
  158SAPE  C21417670   1.303   2.487   9.297  0.3556 -0.9089 -0.4292
  158SAPE  H14R17671   1.405   2.447   9.309  0.3147 -0.5842  1.3520
  158SAPE  C21517672   1.283   2.592   9.213  0.6737 -0.0840  0.0886
  158SAPE  H15R17673   1.365   2.635   9.153  0.7209  1.7530  1.3734
  158SAPE  C21617674   1.148   2.655   9.183 -0.5114 -0.5082 -0.0982
  158SAPE  H16R17675   1.061   2.588   9.200  0.1582 -1.2809  0.3787
  158SAPE  H16S17676   1.149   2.668   9.073  0.5215 -1.2843 -0.1915
  158SAPE  C21717677   1.112   2.791   9.248  0.3796  0.1586 -0.1177
  158SAPE  H17R17678   1.117   2.775   9.358 -0.2995 -0.1376 -0.1277
  158SAPE  H17S17679   1.013   2.824   9.210  0.3390 -0.1764 -0.3061
  158SAPE  C21817680   1.220   2.888   9.199 -0.4804 -0.0935  0.0437
  158SAPE  H18R17681   1.215   2.885   9.088 -2.3188 -0.7640  0.1048
  158SAPE  H18S17682   1.321   2.862   9.237 -1.0337  0.1876  1.8307
  158SAPE  C21917683   1.205   3.028   9.254 -0.0658  0.3231 -0.7403
  158SAPE  H19R17684   1.107   3.070   9.223 -0.6865  0.9740  1.8217
  158SAPE  H19S17685   1.283   3.097   9.215 -0.3606  1.7219  0.9703
  158SAPE  C22017686   1.214   3.040   9.407 -0.2766 -0.1836 -0.2168
  158SAPE  H20R17687   1.299   2.975   9.438 -0.3328 -0.2744 -0.2538
  158SAPE  H20S17688   1.121   2.999   9.450  0.4522 -1.8756 -0.1649
  158SAPE  H20T17689   1.226   3.146   9.441 -1.7185 -0.2823  0.6600
  158SAPE   C3317690   0.854   2.300  10.069  0.0600  0.5330  0.0929
  158SAPE   H3X17691   0.766   2.332  10.129  0.7229  0.3186  1.1994
  158SAPE   H3Y17692   0.860   2.190  10.074 -0.7562  0.5263  1.4539
  158SAPE   C3417693   0.840   2.349   9.928  0.2791 -0.0660  0.5416
  158SAPE   H4X17694   0.891   2.272   9.866  1.4124 -0.1611  1.5649
  158SAPE   H4Y17695   0.889   2.448   9.916 -0.5461  0.9565  4.2460
  158SAPE   C3517696   0.694   2.346   9.870  0.4267  0.3207  0.2888
  158SAPE   H5X17697   0.653   2.248   9.903  1.1743  0.3679  1.3981
  158SAPE   H5Y17698   0.691   2.344   9.759 -0.5566 -2.1450  0.2903
  158SAPE   C3617699   0.612   2.464   9.923  0.2441 -0.0763  0.4622
  158SAPE   H6X17700   0.669   2.559   9.932  1.0264 -0.6395  1.6169
  158SAPE   H6Y17701   0.561   2.452  10.021 -2.8883  1.9389 -0.7527
  158SAPE   C3717702   0.499   2.515   9.824 -0.2370  0.1960  0.1715
  158SAPE   H7X17703   0.541   2.537   9.724 -0.9531 -0.2767 -0.2435
  158SAPE   H7Y17704   0.461   2.608   9.872 -0.3651 -0.1987  0.8579
  158SAPE   C3817705   0.391   2.413   9.818 -0.0996  0.1866  0.1996
  158SAPE   H8X17706   0.350   2.396   9.920 -1.0851 -2.0792 -0.5052
  158SAPE   H8Y17707   0.438   2.313   9.802  0.7157  0.6394 -0.2987
  158SAPE   C3917708   0.285   2.434   9.714  0.2530 -0.2722 -0.3005
  158SAPE   H9X17709   0.227   2.525   9.740 -0.9340 -1.4872  1.5738
  158SAPE   H9Y17710   0.217   2.347   9.703 -1.4903  1.2872 -2.8165
  158SAPE  C31017711   0.339   2.460   9.570  0.3623  0.8299 -0.2008
  158SAPE  H10X17712   0.417   2.381   9.559 -0.5531 -0.0105 -0.7684
  158SAPE  H10Y17713   0.387   2.560   9.554  0.5288  1.1493  1.9925
  158SAPE  C31117714   0.222   2.435   9.474  0.2524 -0.4994  0.0572
  158SAPE  H11X17715   0.140   2.508   9.492 -0.5054 -1.7288  1.9088
  158SAPE  H11Y17716   0.175   2.335   9.482  0.8687 -0.8426 -0.5081
  158SAPE  C31217717   0.268   2.443   9.326 -0.0762 -1.2700 -0.4513
  158SAPE  H12X17718   0.348   2.366   9.330 -1.2441 -2.4993 -0.1801
  158SAPE  H12Y17719   0.313   2.541   9.299  1.2196 -1.4168  1.0264
  158SAPE  C31317720   0.168   2.397   9.220 -0.2973  0.0648  0.1569
  158SAPE  H13X17721   0.103   2.481   9.189 -1.7640 -0.6852  1.1194
  158SAPE  H13Y17722   0.100   2.317   9.255  1.2308 -0.8733  1.1042
  158SAPE  C31417723   0.246   2.348   9.093  0.2206 -0.1745  0.8358
  158SAPE  H14X17724   0.281   2.244   9.110  0.6576 -0.7641 -2.8653
  158SAPE  H14Y17725   0.330   2.417   9.074 -0.8105  0.7229 -0.7565
  158SAPE  C31517726   0.160   2.338   8.962 -0.3462  0.0841  1.0394
  158SAPE  H15X17727   0.150   2.441   8.920  0.9452 -0.2144 -0.0440
  158SAPE  H15Y17728   0.062   2.305   9.004  0.1801 -0.4580  1.8536
  158SAPE  C31617729   0.231   2.242   8.865  0.2547 -0.2451  0.4272
  158SAPE  H16X17730   0.169   2.241   8.773  3.5369 -0.8021 -1.9593
  158SAPE  H16Y17731   0.219   2.143   8.912 -0.8946  0.7170  2.2746
  158SAPE  C31717732   0.368   2.281   8.833 -0.7926 -0.2678 -0.0057
  158SAPE  H17X17733   0.429   2.211   8.894  0.4772 -0.6812 -1.6486
  158SAPE  H17Y17734   0.390   2.385   8.866 -0.4683  0.2582 -1.7812
  158SAPE  C31817735   0.412   2.273   8.692  0.6997 -0.1410  0.2139
  158SAPE  H18X17736   0.386   2.181   8.636 -0.0215 -0.0019  0.3102
  158SAPE  H18Y17737   0.523   2.278   8.683  0.6121  0.4011 -0.7957
  158SAPE  H18Z17738   0.377   2.361   8.633  0.4908  1.0801  2.0504
  159SAPE     N17739   4.760   5.412   6.373  0.7399 -0.0018  0.0485
  159SAPE   HN117740   4.863   5.408   6.373  0.7529  0.2640  0.3085
  159SAPE   HN217741   4.718   5.336   6.431 -0.6957 -0.3391 -1.3494
  159SAPE   HN317742   4.722   5.404   6.276 -1.1424  0.8041  0.6683
  159SAPE   C1217743   4.717   5.541   6.442  0.5549 -0.0205 -0.2787
  159SAPE  H12A17744   4.644   5.511   6.520  1.4721 -0.9603  0.2448
  159SAPE  H12B17745   4.680   5.618   6.372  1.3708  1.5280  0.9440
  159SAPE   C1117746   4.845   5.596   6.509  0.1983 -0.2386  0.1290
  159SAPE  H11A17747   4.874   5.520   6.584 -0.0844 -2.7234 -2.1560
  159SAPE  H11B17748   4.824   5.691   6.563  2.2575  0.7182 -0.6445
  159SAPE     P17749   5.055   5.725   6.429  0.1803 -0.0250  0.1576
  159SAPE   O1317750   5.176   5.668   6.371  0.2602  0.2759  0.5953
  159SAPE   O1417751   5.003   5.852   6.364  0.0808  0.4975 -0.0534
  159SAPE   O1217752   4.946   5.613   6.414 -0.1216  0.4898  0.0728
  159SAPE   O1117753   5.064   5.740   6.591  0.4449  0.5828  0.3158
  159SAPE    C117754   5.154   5.655   6.664 -0.2693  0.8245  0.5106
  159SAPE    HA17755   5.114   5.551   6.675  1.1103  0.3073  0.7457
  159SAPE    HB17756   5.254   5.639   6.619 -0.1145  0.1903  1.0690
  159SAPE    C217757   5.165   5.709   6.810  0.2743  0.1356 -0.0231
  159SAPE    HS17758   5.227   5.644   6.875 -0.1493 -0.4935 -0.2424
  159SAPE   O2117759   5.031   5.722   6.867  0.1192 -0.3223  0.1537
  159SAPE   C2117760   4.971   5.613   6.912  0.1221 -0.4362  0.4162
  159SAPE   O2217761   5.018   5.498   6.912  0.7299  0.4287 -0.0789
  159SAPE   C2217762   4.841   5.652   6.981  0.2112  0.1348 -0.3099
  159SAPE   H2R17763   4.869   5.727   7.058  0.0306 -0.2672  0.1424
  159SAPE   H2S17764   4.776   5.696   6.902  0.8869  1.8224  0.0144
  159SAPE    C317765   5.231   5.851   6.812  0.2875  0.2508  0.5327
  159SAPE    HX17766   5.153   5.912   6.761 -0.3243 -0.0553  1.0945
  159SAPE    HY17767   5.320   5.841   6.746 -1.0160 -0.1551 -1.2567
  159SAPE   O3117768   5.254   5.899   6.950  0.3395 -0.1261  0.5910
  159SAPE   C3117769   5.295   6.026   6.949  0.2441  0.2231  0.6169
  159SAPE   O3217770   5.307   6.103   6.854  0.3954  0.0988 -0.5021
  159SAPE   C3217771   5.333   6.076   7.088  0.7446 -0.4531 -0.2528
  159SAPE   H2X17772   5.433   6.123   7.076  1.1164 -0.3174  2.6571
  159SAPE   H2Y17773   5.331   5.989   7.156  3.9180  0.0025  0.5817
  159SAPE   C2317774   4.782   5.536   7.061  0.0657 -0.3609 -0.7799
  159SAPE   H3R17775   4.855   5.499   7.136 -1.4342 -0.4495  0.7039
  159SAPE   H3S17776   4.773   5.443   7.002 -1.2228 -1.1878  0.6712
  159SAPE   C2417777   4.645   5.567   7.124 -0.0832  0.2623 -0.3134
  159SAPE   H4R17778   4.600   5.467   7.142 -0.7187  0.0738 -2.6070
  159SAPE   H4S17779   4.586   5.615   7.043 -3.2552 -1.4511  0.8081
  159SAPE   C2517780   4.648   5.644   7.248 -0.3860  0.0824 -0.3161
  159SAPE   H5R17781   4.610   5.747   7.252 -3.4215 -0.9575  0.8960
  159SAPE   C2617782   4.693   5.596   7.364 -0.1968  0.2750 -0.3081
  159SAPE   H6R17783   4.669   5.658   7.451 -0.3310 -1.2866  0.7990
  159SAPE   C2717784   4.757   5.461   7.385 -0.1472 -0.5935 -0.1097
  159SAPE   H7R17785   4.865   5.477   7.364  0.0971 -2.9037 -0.8578
  159SAPE   H7S17786   4.728   5.387   7.307 -1.1685  0.3380 -0.6490
  159SAPE   C2817787   4.757   5.401   7.523 -0.7656  0.0213 -0.1851
  159SAPE   H8R17788   4.781   5.295   7.502  2.1031 -0.5007  4.1871
  159SAPE   C2917789   4.729   5.452   7.644  0.9359 -0.0275 -0.2219
  159SAPE   H9R17790   4.725   5.383   7.730  2.3827 -1.5751 -1.3177
  159SAPE  C21017791   4.688   5.595   7.678 -0.3124  0.1502 -0.1923
  159SAPE  H10R17792   4.596   5.617   7.619  0.9816  0.3112 -2.2179
  159SAPE  H10S17793   4.760   5.669   7.637  0.0397  0.5258  1.0496
  159SAPE  C21117794   4.664   5.603   7.825 -0.3869 -0.4290 -0.6850
  159SAPE  H11R17795   4.597   5.526   7.865  0.3873 -1.5715 -1.5408
  159SAPE  C21217796   4.729   5.689   7.911  0.8423 -0.3340 -0.5216
  159SAPE  H12R17797   4.695   5.678   8.015  1.3802 -4.3568 -0.5967
  159SAPE  C21317798   4.826   5.800   7.873 -0.0382 -0.0236 -0.2689
  159SAPE  H13R17799   4.785   5.895   7.914 -1.4703 -0.7008 -0.0876
  159SAPE  H13S17800   4.809   5.819   7.765  0.3781 -1.2533 -0.5610
  159SAPE  C21417801   4.971   5.786   7.899  0.7501  0.1534  0.0587
  159SAPE  H14R17802   5.014   5.809   7.998  2.4762 -2.2309 -0.0518
  159SAPE  C21517803   5.066   5.763   7.810  0.2880  0.0494  1.1447
  159SAPE  H15R17804   5.169   5.755   7.848  0.5521  0.4437  0.5136
  159SAPE  C21617805   5.052   5.733   7.659  0.0920  0.2709 -0.1695
  159SAPE  H16R17806   4.955   5.779   7.628 -0.0989  2.4239  3.1529
  159SAPE  H16S17807   5.042   5.629   7.622 -0.1997  0.8026 -1.6807
  159SAPE  C21717808   5.162   5.802   7.576 -0.0610 -0.1904  0.5635
  159SAPE  H17R17809   5.253   5.739   7.571  0.9665  1.2972 -0.0265
  159SAPE  H17S17810   5.173   5.902   7.623  0.4952  0.0802 -0.1349
  159SAPE  C21817811   5.126   5.831   7.434  0.1151 -0.8433  1.1584
  159SAPE  H18R17812   5.217   5.878   7.389 -0.0225 -0.6104  1.1222
  159SAPE  H18S17813   5.039   5.898   7.419  1.1861  0.6593  1.4994
  159SAPE  C21917814   5.123   5.711   7.342  0.1942 -0.2803  0.1832
  159SAPE  H19R17815   5.034   5.651   7.371 -0.7657 -0.0336 -2.0639
  159SAPE  H19S17816   5.216   5.660   7.374  0.9041  1.7488  1.5426
  159SAPE  C22017817   5.120   5.749   7.198  0.2529  0.0391  0.2477
  159SAPE  H20R17818   5.122   5.657   7.136  0.5546 -0.2648  0.7078
  159SAPE  H20S17819   5.211   5.809   7.180  1.0314 -0.9065  0.9743
  159SAPE  H20T17820   5.022   5.794   7.168  1.6741  0.7692 -4.0251
  159SAPE   C3317821   5.238   6.187   7.151  0.0537 -0.0582  0.4609
  159SAPE   H3X17822   5.145   6.188   7.092  0.3303 -1.9426 -0.0911
  159SAPE   H3Y17823   5.283   6.287   7.134  1.4382 -0.5988  0.7765
  159SAPE   C3417824   5.206   6.173   7.292 -0.3325 -0.2745 -0.3838
  159SAPE   H4X17825   5.156   6.075   7.308  1.6213 -1.1746  0.7343
  159SAPE   H4Y17826   5.139   6.253   7.328  0.0306 -0.5515  0.9772
  159SAPE   C3517827   5.331   6.178   7.390  0.2227  0.1902  0.3582
  159SAPE   H5X17828   5.419   6.232   7.350 -0.5957  0.8631 -0.5669
  159SAPE   H5Y17829   5.357   6.071   7.395 -2.4750 -0.6834 -1.8347
  159SAPE   C3617830   5.294   6.240   7.531  0.7386 -0.0306  0.5334
  159SAPE   H6X17831   5.188   6.212   7.550  1.1015 -1.3639  0.6910
  159SAPE   H6Y17832   5.308   6.350   7.526  2.4566  0.0850  4.6261
  159SAPE   C3717833   5.386   6.198   7.640 -0.4714  0.4816  0.3385
  159SAPE   H7X17834   5.488   6.235   7.617 -0.8284  0.6280 -1.0862
  159SAPE   H7Y17835   5.395   6.088   7.645 -1.1212  0.4654  1.4591
  159SAPE   C3817836   5.354   6.234   7.789  0.5494 -0.1917 -0.0162
  159SAPE   H8X17837   5.254   6.195   7.816  0.8743 -1.8746 -1.1026
  159SAPE   H8Y17838   5.353   6.344   7.804  0.5849 -0.1497 -0.3042
  159SAPE   C3917839   5.460   6.167   7.877 -0.3805  0.4824 -0.5310
  159SAPE   H9X17840   5.554   6.220   7.852 -0.4925  0.6068 -0.6844
  159SAPE   H9Y17841   5.473   6.060   7.850  0.6489  0.3297  0.4795
  159SAPE  C31017842   5.436   6.188   8.032 -0.1939  0.6832 -0.2747
  159SAPE  H10X17843   5.423   6.299   8.041  0.6746  0.6528  2.5004
  159SAPE  H10Y17844   5.527   6.160   8.088 -0.0070  3.0234  0.7302
  159SAPE  C31117845   5.324   6.107   8.095  0.4361 -0.2694  0.3815
  159SAPE  H11X17846   5.358   6.001   8.101  0.4511 -0.2754  0.2029
  159SAPE  H11Y17847   5.239   6.109   8.024 -0.4597 -2.0245  1.3414
  159SAPE  C31217848   5.300   6.165   8.234 -0.1745 -0.4650  0.1892
  159SAPE  H12X17849   5.246   6.262   8.229 -1.8001 -1.3184  0.4789
  159SAPE  H12Y17850   5.401   6.177   8.280 -0.8785  1.9959  1.2432
  159SAPE  C31317851   5.217   6.080   8.321 -0.1654  0.1245  0.0698
  159SAPE  H13X17852   5.250   5.974   8.322  0.7634  0.3781 -0.9313
  159SAPE  H13Y17853   5.112   6.100   8.291  0.3388  1.1223 -1.1312
  159SAPE  C31417854   5.232   6.132   8.460  0.0352 -0.6022 -0.0661
  159SAPE  H14X17855   5.212   6.241   8.468  0.1169 -0.4269 -1.9198
  159SAPE  H14Y17856   5.340   6.120   8.486  0.7637 -0.0808 -2.6142
  159SAPE  C31517857   5.146   6.051   8.555  0.3203 -0.6636 -0.0554
  159SAPE  H15X17858   5.189   5.948   8.558  1.2624 -0.2520  1.0032
  159SAPE  H15Y17859   5.043   6.048   8.513  0.7539 -0.5493 -1.1672
  159SAPE  C31617860   5.130   6.122   8.689 -0.3564 -0.2468 -0.3878
  159SAPE  H16X17861   5.054   6.066   8.748  0.3394 -0.0189  0.7599
  159SAPE  H16Y17862   5.094   6.227   8.678  1.9580  0.7731  0.9656
  159SAPE  C31717863   5.263   6.131   8.779 -0.6742 -0.0156 -0.1632
  159SAPE  H17X17864   5.344   6.166   8.712  0.2938 -1.9010 -0.0265
  159SAPE  H17Y17865   5.268   6.025   8.811 -0.8093  0.4915  1.6273
  159SAPE  C31817866   5.234   6.226   8.903  0.2225  0.5233 -0.3320
  159SAPE  H18X17867   5.204   6.330   8.879  2.0031  1.4797  1.3998
  159SAPE  H18Y17868   5.321   6.240   8.970 -0.9018 -0.9616  1.5451
  159SAPE  H18Z17869   5.152   6.174   8.957  1.6311 -0.5889  0.7953
  160SAPE     N17870   5.111   6.625   6.215  0.1890  0.1350 -0.2823
  160SAPE   HN117871   5.203   6.621   6.167  1.2624  1.6979  1.5151
  160SAPE   HN217872   5.124   6.587   6.311  0.3701 -0.5199 -0.5587
  160SAPE   HN317873   5.050   6.561   6.161 -0.8083  1.0919 -0.3087
  160SAPE   C1217874   5.055   6.768   6.216 -0.3296  1.0434 -0.1884
  160SAPE  H12A17875   4.944   6.761   6.210 -0.3800  1.9504 -0.5844
  160SAPE  H12B17876   5.083   6.807   6.115  0.4162  0.3505 -0.2570
  160SAPE   C1117877   5.117   6.846   6.336  0.1294  0.4083  0.2559
  160SAPE  H11A17878   5.075   6.947   6.355  0.1170  0.2888  0.8976
  160SAPE  H11B17879   5.226   6.847   6.315  0.8641 -1.4249  3.3177
  160SAPE     P17880   4.976   6.771   6.547 -0.0412  0.3398 -0.2709
  160SAPE   O1317881   4.859   6.775   6.461 -0.2005 -0.0007 -1.1888
  160SAPE   O1417882   4.978   6.658   6.648  0.2033 -0.1606 -0.3280
  160SAPE   O1217883   5.101   6.765   6.456  0.6679  0.5360  0.2661
  160SAPE   O1117884   4.980   6.913   6.609  0.4964 -0.0057 -0.1046
  160SAPE    C117885   5.104   6.953   6.669  0.5880 -0.0495  0.8863
  160SAPE    HA17886   5.168   6.864   6.689  1.6016  0.5397  0.3844
  160SAPE    HB17887   5.161   7.014   6.595  0.5438 -1.7204 -0.5972
  160SAPE    C217888   5.091   7.029   6.805 -0.2215  0.0771 -0.4814
  160SAPE    HS17889   5.191   7.046   6.851 -1.2098  0.8156  1.5342
  160SAPE   O2117890   5.008   6.955   6.897 -0.8330 -0.0480  0.3005
  160SAPE   C2117891   5.067   6.856   6.959  0.2115 -0.9502  0.1439
  160SAPE   O2217892   5.181   6.815   6.936  0.0644  0.7533  0.4916
  160SAPE   C2217893   4.965   6.789   7.053  0.6457 -0.3898 -0.1196
  160SAPE   H2R17894   4.911   6.870   7.108 -0.0447  0.5569 -2.0707
  160SAPE   H2S17895   4.888   6.729   6.999  0.0651  1.9870 -2.1476
  160SAPE    C317896   5.021   7.164   6.782  0.9608  0.1148  0.3423
  160SAPE    HX17897   4.910   7.155   6.783  0.7837  2.0406  0.3866
  160SAPE    HY17898   5.045   7.205   6.682  1.6305  0.8208  0.7870
  160SAPE   O3117899   5.061   7.260   6.884  0.3466 -0.4379  0.0008
  160SAPE   C3117900   5.020   7.386   6.862  0.2082  0.5090  0.5765
  160SAPE   O3217901   4.936   7.419   6.776 -0.2874  0.0428  0.3859
  160SAPE   C3217902   5.083   7.477   6.964  1.0174  0.1977  0.1911
  160SAPE   H2X17903   5.065   7.584   6.939 -2.9368 -0.7243 -1.6570
  160SAPE   H2Y17904   5.191   7.452   6.965  1.2002  0.7458 -1.8045
  160SAPE   C2317905   5.042   6.704   7.152 -0.1952  0.5442 -0.2014
  160SAPE   H3R17906   5.111   6.770   7.210  0.0455 -1.1385  1.5338
  160SAPE   H3S17907   5.101   6.618   7.114 -0.4005  0.4611 -0.3306
  160SAPE   C2417908   4.938   6.647   7.254 -0.2615  0.6629  0.1191
  160SAPE   H4R17909   4.882   6.568   7.199 -0.3436 -0.4598  1.7500
  160SAPE   H4S17910   4.865   6.730   7.266 -1.6061 -0.3246 -0.9886
  160SAPE   C2517911   4.993   6.588   7.384 -0.2162  0.0571  0.4784
  160SAPE   H5R17912   5.056   6.498   7.375 -0.5888 -0.5585  3.2637
  160SAPE   C2617913   4.975   6.634   7.506  1.1283 -0.3303 -0.5632
  160SAPE   H6R17914   5.041   6.593   7.584  1.0048  0.5664  0.0287
  160SAPE   C2717915   4.883   6.749   7.544  0.6150  0.2132 -0.2810
  160SAPE   H7R17916   4.833   6.795   7.456 -1.9030  1.0556  1.4612
  160SAPE   H7S17917   4.947   6.832   7.581 -0.3478  1.3657 -1.1105
  160SAPE   C2817918   4.768   6.718   7.642  0.1022 -0.3184  0.4443
  160SAPE   H8R17919   4.676   6.694   7.587 -0.3669  2.8896 -0.3534
  160SAPE   C2917920   4.750   6.736   7.772  0.2479  0.0909 -0.6054
  160SAPE   H9R17921   4.652   6.724   7.820  0.6832 -1.8562 -0.1212
  160SAPE  C21017922   4.866   6.781   7.861 -0.3663 -0.4001 -1.1648
  160SAPE  H10R17923   4.858   6.885   7.899  1.0496 -1.0949  1.2614
  160SAPE  H10S17924   4.967   6.787   7.815  0.1850 -0.3818  0.0247
  160SAPE  C21117925   4.880   6.688   7.983  0.1196 -0.3824  0.4566
  160SAPE  H11R17926   4.924   6.588   7.970 -0.3402 -0.9238  2.5450
  160SAPE  C21217927   4.822   6.717   8.103 -0.4727  0.6486  0.5620
  160SAPE  H12R17928   4.840   6.643   8.182  1.4799 -0.0685 -0.4772
  160SAPE  C21317929   4.745   6.845   8.126 -0.0752 -0.2812 -0.0521
  160SAPE  H13R17930   4.658   6.817   8.189 -0.0933  1.3514  0.6943
  160SAPE  H13S17931   4.687   6.867   8.034 -2.0523 -0.2825  1.1294
  160SAPE  C21417932   4.816   6.968   8.168  0.2384  0.2437  0.1070
  160SAPE  H14R17933   4.843   7.030   8.081  1.2997  1.0070  0.9521
  160SAPE  C21517934   4.823   7.026   8.293  0.7337  0.3829 -0.1894
  160SAPE  H15R17935   4.872   7.123   8.315  1.2047  0.1662 -0.2645
  160SAPE  C21617936   4.754   6.953   8.404  0.1046  0.1463  0.0275
  160SAPE  H16R17937   4.737   6.846   8.382 -0.3478  0.1310  0.4324
  160SAPE  H16S17938   4.657   7.002   8.431  0.1498  1.2725 -1.6828
  160SAPE  C21717939   4.857   6.940   8.519 -0.3669  0.6413  0.3798
  160SAPE  H17R17940   4.884   7.042   8.555 -0.2767  1.3442 -1.5713
  160SAPE  H17S17941   4.947   6.884   8.488  0.1905  1.1206  1.0912
  160SAPE  C21817942   4.805   6.856   8.633 -0.0237  0.2583  0.0215
  160SAPE  H18R17943   4.770   6.757   8.596 -2.6012  0.6881  1.1378
  160SAPE  H18S17944   4.724   6.907   8.688 -1.1245  0.7167 -1.9224
  160SAPE  C21917945   4.911   6.837   8.742 -0.1053  0.1279  0.8925
  160SAPE  H19R17946   4.928   6.929   8.801  1.9132 -0.1089  0.7480
  160SAPE  H19S17947   5.004   6.818   8.685 -1.2757 -0.2653 -0.9674
  160SAPE  C22017948   4.857   6.716   8.835 -0.4328 -0.0256 -0.3672
  160SAPE  H20R17949   4.812   6.761   8.927  1.2367 -1.3572  1.1751
  160SAPE  H20S17950   4.930   6.640   8.868 -1.4277 -1.0739 -0.5390
  160SAPE  H20T17951   4.790   6.646   8.782 -1.5735  0.8317 -0.1062
  160SAPE   C3317952   5.014   7.451   7.099  0.4781 -0.3308 -0.0833
  160SAPE   H3X17953   5.022   7.342   7.120 -1.2598 -0.2420  1.3047
  160SAPE   H3Y17954   4.906   7.479   7.093  0.7692  0.9096  0.3268
  160SAPE   C3417955   5.082   7.527   7.223 -0.3406 -0.0538  0.9366
  160SAPE   H4X17956   5.062   7.634   7.203 -1.4625 -0.5009 -0.5263
  160SAPE   H4Y17957   5.192   7.514   7.216 -0.0368  2.0001  1.3813
  160SAPE   C3517958   5.007   7.489   7.346 -0.1242  0.1345 -0.2569
  160SAPE   H5X17959   5.007   7.379   7.363  0.8819  0.4092  1.7615
  160SAPE   H5Y17960   4.903   7.521   7.327 -0.2034 -0.2375 -0.4560
  160SAPE   C3617961   5.054   7.572   7.466 -0.1666 -0.0610 -0.3476
  160SAPE   H6X17962   5.045   7.678   7.437  0.1694 -0.5522 -2.3618
  160SAPE   H6Y17963   5.159   7.546   7.489 -0.0581 -2.1277 -2.7259
  160SAPE   C3717964   4.974   7.536   7.593  0.1873  0.5893 -0.3853
  160SAPE   H7X17965   4.950   7.429   7.572  1.0086 -0.2299  2.4758
  160SAPE   H7Y17966   4.885   7.601   7.600 -1.0101 -0.9753 -0.4255
  160SAPE   C3817967   5.056   7.536   7.724 -0.0410  0.4017 -0.7825
  160SAPE   H8X17968   5.093   7.637   7.754  1.9313 -0.2657 -0.8368
  160SAPE   H8Y17969   5.144   7.470   7.709 -0.5302 -0.1417 -1.2816
  160SAPE   C3917970   4.976   7.471   7.837  0.7591  0.1443 -0.3422
  160SAPE   H9X17971   4.936   7.372   7.807  1.4084  0.1425 -1.2163
  160SAPE   H9Y17972   4.884   7.530   7.860  1.0590  0.5958 -0.2735
  160SAPE  C31017973   5.069   7.452   7.950 -0.4208 -0.3442  0.8543
  160SAPE  H10X17974   5.144   7.534   7.945 -0.4873 -0.2753  0.9878
  160SAPE  H10Y17975   5.132   7.363   7.930 -0.9276 -0.3735 -0.7535
  160SAPE  C31117976   5.002   7.450   8.090 -0.6811 -0.7721 -0.3239
  160SAPE  H11X17977   4.968   7.345   8.103 -1.0432 -0.6548 -0.3175
  160SAPE  H11Y17978   4.931   7.535   8.097  1.0385  0.7497 -0.8070
  160SAPE  C31217979   5.092   7.484   8.209 -0.2636  0.3920  0.2357
  160SAPE  H12X17980   5.125   7.590   8.198  0.8321 -0.2051 -3.0883
  160SAPE  H12Y17981   5.183   7.422   8.213 -0.1780  0.5626  1.4088
  160SAPE  C31317982   5.012   7.456   8.343 -0.0799  0.7186 -0.2572
  160SAPE  H13X17983   4.962   7.359   8.323  1.3739  0.5474 -3.8737
  160SAPE  H13Y17984   4.926   7.523   8.363 -1.2029 -0.6186 -0.4556
  160SAPE  C31417985   5.086   7.472   8.473  0.2412 -0.1098  0.0249
  160SAPE  H14X17986   5.155   7.386   8.480 -0.3536 -0.6056 -0.1265
  160SAPE  H14Y17987   5.013   7.462   8.556 -0.8816  0.5450 -0.8557
  160SAPE  C31517988   5.185   7.594   8.493  0.2404  0.0777  0.4982
  160SAPE  H15X17989   5.136   7.685   8.534 -0.2431 -0.6083  1.4797
  160SAPE  H15Y17990   5.222   7.626   8.394 -1.4979 -0.4293 -0.3613
  160SAPE  C31617991   5.297   7.576   8.595  0.6897  0.1180  0.1119
  160SAPE  H16X17992   5.350   7.674   8.599 -2.9059  2.2348  0.1259
  160SAPE  H16Y17993   5.375   7.502   8.567 -0.6260 -1.0869 -0.4292
  160SAPE  C31717994   5.258   7.535   8.742  0.1693  0.2862 -0.2879
  160SAPE  H17X17995   5.195   7.443   8.747 -1.2625  1.2833  1.2367
  160SAPE  H17Y17996   5.194   7.616   8.783 -0.7928 -0.0385 -1.1074
  160SAPE  C31817997   5.375   7.524   8.833 -0.3763  0.1154 -0.0632
  160SAPE  H18X17998   5.342   7.492   8.934 -0.6127 -0.7795 -0.4208
  160SAPE  H18Y17999   5.424   7.624   8.844  0.9670 -0.2917 -1.9300
  160SAPE  H18Z18000   5.442   7.443   8.798 -1.0197 -0.1637 -0.6508
  161SAPE     N18001   6.624   4.165   6.246  0.0628 -0.7347 -0.6487
  161SAPE   HN118002   6.627   4.115   6.337  2.5966 -3.0608 -1.8595
  161SAPE   HN218003   6.580   4.258   6.262  1.2021 -0.2317 -0.3225
  161SAPE   HN318004   6.559   4.113   6.183  1.3049 -0.6790 -2.0439
  161SAPE   C1218005   6.766   4.194   6.196  0.5043  0.0680 -0.6059
  161SAPE  H12A18006   6.761   4.234   6.092 -0.1197  0.8606 -0.2771
  161SAPE  H12B18007   6.821   4.097   6.201  0.1678 -0.0643  3.0682
  161SAPE   C1118008   6.831   4.297   6.279  0.0486 -0.2747  0.4729
  161SAPE  H11A18009   6.779   4.393   6.258  1.3473  0.3009 -0.2299
  161SAPE  H11B18010   6.930   4.322   6.235  0.7452 -1.8674  1.0741
  161SAPE     P18011   6.946   4.151   6.466 -0.0600 -0.2413  0.2810
  161SAPE   O1318012   6.880   4.017   6.489  0.4491  0.8959  0.0313
  161SAPE   O1418013   7.061   4.149   6.366  0.1431 -0.3179  0.2395
  161SAPE   O1218014   6.837   4.260   6.414 -0.4564 -0.6032 -0.0985
  161SAPE   O1118015   6.989   4.206   6.606 -0.5050  0.3171  0.4193
  161SAPE    C118016   6.888   4.237   6.703  0.4925 -0.1370  0.0159
  161SAPE    HA18017   6.801   4.300   6.675 -1.2379 -3.1575 -1.8216
  161SAPE    HB18018   6.848   4.139   6.737  0.6762 -0.1352  0.2364
  161SAPE    C218019   6.943   4.310   6.833 -0.1144  0.2821  0.8094
  161SAPE    HS18020   7.018   4.237   6.872 -0.7311 -0.2764  0.9662
  161SAPE   O2118021   6.830   4.332   6.920  0.2722 -0.6474  0.0164
  161SAPE   C2118022   6.835   4.288   7.046 -0.3280  0.5126  0.8675
  161SAPE   O2218023   6.929   4.235   7.096  0.2255  0.3219 -0.1895
  161SAPE   C2218024   6.705   4.304   7.109 -0.1534 -0.2145 -0.2944
  161SAPE   H2R18025   6.625   4.358   7.054  1.1605  0.4405 -1.6253
  161SAPE   H2S18026   6.675   4.197   7.110  0.1485 -0.2996  0.4673
  161SAPE    C318027   7.007   4.446   6.805 -0.1042 -0.7724 -0.6339
  161SAPE    HX18028   6.938   4.517   6.756  0.7537 -0.9799 -2.2278
  161SAPE    HY18029   7.085   4.425   6.728  1.4398  0.1332  0.6239
  161SAPE   O3118030   7.061   4.515   6.927  0.3706  0.6721  0.1148
  161SAPE   C3118031   7.168   4.464   6.975 -0.2645 -0.0240 -0.3309
  161SAPE   O3218032   7.247   4.400   6.908 -0.0159 -0.0508  0.3194
  161SAPE   C3218033   7.175   4.487   7.125  0.4658 -0.1843 -0.3566
  161SAPE   H2X18034   7.075   4.474   7.173  1.7932  0.0804  2.7455
  161SAPE   H2Y18035   7.208   4.593   7.126 -1.6763  0.5468 -1.6671
  161SAPE   C2318036   6.718   4.377   7.247 -0.0622  0.1175  0.0532
  161SAPE   H3R18037   6.689   4.484   7.233 -0.1274  0.3232  1.5730
  161SAPE   H3S18038   6.823   4.373   7.281  1.0026  3.5158 -2.2804
  161SAPE   C2418039   6.613   4.328   7.348  0.1175  0.2339  0.9980
  161SAPE   H4R18040   6.520   4.310   7.291  0.6528 -1.5310  0.6287
  161SAPE   H4S18041   6.601   4.393   7.437 -1.4777 -1.3834  2.0314
  161SAPE   C2518042   6.670   4.195   7.403 -0.1812 -0.2583  0.3297
  161SAPE   H5R18043   6.696   4.117   7.329 -0.6510 -0.5258  0.4393
  161SAPE   C2618044   6.699   4.172   7.529 -0.0800  0.1427  0.2731
  161SAPE   H6R18045   6.739   4.073   7.555  0.2550 -0.2660 -1.6490
  161SAPE   C2718046   6.687   4.266   7.645  0.1173  0.3557  0.6176
  161SAPE   H7R18047   6.748   4.355   7.620  0.0683 -0.1781 -1.5253
  161SAPE   H7S18048   6.737   4.223   7.734 -1.3929  1.3207  2.0003
  161SAPE   C2818049   6.547   4.292   7.693  0.1383  0.1450  0.3975
  161SAPE   H8R18050   6.477   4.298   7.609 -2.2591 -2.6954  2.0099
  161SAPE   C2918051   6.494   4.278   7.816 -0.1617 -0.6152  0.1036
  161SAPE   H9R18052   6.387   4.287   7.835 -0.1145 -2.2522  1.4076
  161SAPE  C21018053   6.571   4.238   7.934 -0.1896  0.5377 -0.5900
  161SAPE  H10R18054   6.682   4.236   7.925 -0.2914 -1.3223 -2.1730
  161SAPE  H10S18055   6.542   4.131   7.938  1.9711 -0.0573  1.3651
  161SAPE  C21118056   6.528   4.305   8.061 -0.8521  0.0914 -0.4147
  161SAPE  H11R18057   6.598   4.381   8.098  1.1191 -1.8989  0.1874
  161SAPE  C21218058   6.423   4.279   8.137 -0.7992  0.0916  0.3193
  161SAPE  H12R18059   6.411   4.341   8.228  1.2797  3.7715 -1.6886
  161SAPE  C21318060   6.322   4.171   8.127 -0.2279  0.1673 -0.1083
  161SAPE  H13R18061   6.339   4.087   8.056  0.8607 -0.1621  0.5193
  161SAPE  H13S18062   6.228   4.216   8.088 -0.8478 -1.4341 -0.5613
  161SAPE  C21418063   6.287   4.120   8.265 -1.1285  0.2256  0.1276
  161SAPE  H14R18064   6.215   4.191   8.308 -2.2167  0.5801 -2.1246
  161SAPE  C21518065   6.338   4.017   8.327 -0.1849  0.4595  0.5454
  161SAPE  H15R18066   6.299   3.994   8.427 -0.4693  0.1658  0.3688
  161SAPE  C21618067   6.433   3.916   8.269 -0.1475 -0.1928  0.0962
  161SAPE  H16R18068   6.483   3.957   8.178 -0.3101  0.2115  0.1882
  161SAPE  H16S18069   6.371   3.829   8.239 -0.1328 -0.4988  0.9272
  161SAPE  C21718070   6.527   3.865   8.390  0.1063  0.6661  0.1800
  161SAPE  H17R18071   6.578   3.770   8.365 -1.0072 -0.6621  2.6113
  161SAPE  H17S18072   6.460   3.838   8.475 -1.4293  0.0858 -1.1516
  161SAPE  C21818073   6.627   3.970   8.433 -0.4573  0.2437  0.4131
  161SAPE  H18R18074   6.673   3.930   8.526  0.1753 -0.5846 -0.2395
  161SAPE  H18S18075   6.569   4.060   8.463 -0.5067  0.3683 -0.0534
  161SAPE  C21918076   6.724   4.018   8.324 -0.2511  0.5475  1.1430
  161SAPE  H19R18077   6.669   4.084   8.253 -0.5637  0.2253  1.0869
  161SAPE  H19S18078   6.761   3.927   8.272 -1.2566  0.5402  0.3892
  161SAPE  C22018079   6.841   4.105   8.380  0.9738 -0.0071  0.1872
  161SAPE  H20R18080   6.808   4.164   8.468  4.1115 -1.5621  2.6172
  161SAPE  H20S18081   6.879   4.176   8.304  0.2756 -0.8504 -0.9804
  161SAPE  H20T18082   6.919   4.036   8.420 -0.0851  0.3120  3.0090
  161SAPE   C3318083   7.281   4.406   7.201 -0.4959  0.2642  0.3304
  161SAPE   H3X18084   7.370   4.404   7.134 -0.8088 -2.6166 -0.1443
  161SAPE   H3Y18085   7.240   4.302   7.193  0.3280  0.0820 -4.5395
  161SAPE   C3418086   7.312   4.461   7.331  0.6523  0.2925 -0.9938
  161SAPE   H4X18087   7.216   4.480   7.383  1.0248 -2.5121  0.9762
  161SAPE   H4Y18088   7.364   4.558   7.320  3.9819 -1.3222 -0.8826
  161SAPE   C3518089   7.419   4.377   7.408  0.4320 -1.1172  0.5316
  161SAPE   H5X18090   7.516   4.379   7.354  0.2201 -0.2460  0.1761
  161SAPE   H5Y18091   7.389   4.271   7.425  0.6234 -1.2521  0.0237
  161SAPE   C3618092   7.445   4.431   7.546  0.0705  0.2009 -0.0450
  161SAPE   H6X18093   7.353   4.430   7.608  1.4768  2.1093  2.2844
  161SAPE   H6Y18094   7.491   4.532   7.536 -2.7731  1.5842 -0.2223
  161SAPE   C3718095   7.546   4.336   7.622 -0.3015 -0.0802 -0.5615
  161SAPE   H7X18096   7.640   4.346   7.564  0.8996  0.9073  1.4490
  161SAPE   H7Y18097   7.513   4.230   7.612  0.7795 -0.4900  0.0645
  161SAPE   C3818098   7.581   4.386   7.765 -0.1584 -0.3429 -0.3103
  161SAPE   H8X18099   7.619   4.490   7.754 -2.3046  0.5846  0.3328
  161SAPE   H8Y18100   7.659   4.318   7.804  0.7278 -1.4223 -3.6584
  161SAPE   C3918101   7.472   4.399   7.879  0.4771 -0.4631  0.9635
  161SAPE   H9X18102   7.403   4.312   7.882  0.6029 -0.6900 -1.1117
  161SAPE   H9Y18103   7.399   4.477   7.847 -1.0051 -3.1992 -3.1524
  161SAPE  C31018104   7.539   4.435   8.018 -0.1044  0.1813  0.6063
  161SAPE  H10X18105   7.461   4.486   8.078 -0.0161  3.1572 -1.6225
  161SAPE  H10Y18106   7.612   4.512   7.986 -0.6729  0.7106  0.5639
  161SAPE  C31118107   7.600   4.310   8.082 -0.0018 -0.5022 -0.2451
  161SAPE  H11X18108   7.659   4.257   8.004  0.5577 -0.1285 -0.0899
  161SAPE  H11Y18109   7.521   4.246   8.125 -0.4845  0.7670  0.8309
  161SAPE  C31218110   7.705   4.347   8.191  0.4793 -0.9080  0.8442
  161SAPE  H12X18111   7.742   4.449   8.166 -1.1567 -0.4849 -0.0233
  161SAPE  H12Y18112   7.790   4.276   8.198  0.8636 -0.4840  0.5631
  161SAPE  C31318113   7.630   4.357   8.327  0.3010  0.5174 -0.7809
  161SAPE  H13X18114   7.617   4.249   8.352  0.0569  0.7303  0.0284
  161SAPE  H13Y18115   7.537   4.415   8.308  1.4156  1.4367 -3.9775
  161SAPE  C31418116   7.704   4.422   8.447 -0.3674  0.0283 -0.1533
  161SAPE  H14X18117   7.698   4.532   8.430  1.1675 -0.1610 -2.4317
  161SAPE  H14Y18118   7.813   4.400   8.441 -0.2103  0.4715  0.8964
  161SAPE  C31518119   7.643   4.394   8.582  0.0689 -0.1846 -0.2404
  161SAPE  H15X18120   7.650   4.288   8.617 -0.9646 -0.3791 -0.5689
  161SAPE  H15Y18121   7.537   4.426   8.573  0.1172  0.9830  2.4310
  161SAPE  C31618122   7.704   4.483   8.692  0.0004  0.5095 -0.3427
  161SAPE  H16X18123   7.646   4.461   8.784  0.6624  3.2589  0.8509
  161SAPE  H16Y18124   7.701   4.590   8.662 -0.0661  0.1317 -1.7479
  161SAPE  C31718125   7.848   4.439   8.724  0.4483  0.8003 -0.0818
  161SAPE  H17X18126   7.906   4.480   8.638 -0.4344 -1.1054 -1.6726
  161SAPE  H17Y18127   7.861   4.328   8.721  3.8101  1.0963 -0.6412
  161SAPE  C31818128   7.902   4.510   8.855  0.2619 -0.2135 -0.0344
  161SAPE  H18X18129   7.854   4.466   8.945 -0.8985 -0.8401 -0.9318
  161SAPE  H18Y18130   7.875   4.618   8.852  0.5629  0.0597  3.0052
  161SAPE  H18Z18131   8.013   4.496   8.854  0.1645 -1.0127 -1.3276
  162SAPE     N18132   4.924   5.092   6.181  0.1543  0.2547 -0.1645
  162SAPE   HN118133   4.847   5.044   6.130  0.7468  0.9203 -1.7645
  162SAPE   HN218134   4.875   5.120   6.268 -1.6731  0.9119 -1.3299
  162SAPE   HN318135   4.955   5.185   6.146 -0.1551  0.9051  1.2163
  162SAPE   C1218136   5.032   4.996   6.218  0.1126 -0.2875 -0.3334
  162SAPE  H12A18137   5.066   4.956   6.120 -1.8614 -0.6512 -0.9145
  162SAPE  H12B18138   4.987   4.903   6.259 -0.9322 -0.5375 -1.9388
  162SAPE   C1118139   5.143   5.065   6.301 -0.0871 -0.0013 -0.1111
  162SAPE  H11A18140   5.177   5.156   6.247 -3.3012  0.7692 -1.0381
  162SAPE  H11B18141   5.221   4.985   6.305 -1.0645 -1.0432 -1.1941
  162SAPE     P18142   5.076   5.244   6.483 -0.1066  0.3749 -0.1140
  162SAPE   O1318143   5.005   5.320   6.374 -0.5904 -0.3204 -0.1954
  162SAPE   O1418144   5.030   5.248   6.623  0.9824  0.1697  0.0838
  162SAPE   O1218145   5.099   5.096   6.432  0.0887  0.7065 -0.4727
  162SAPE   O1118146   5.226   5.294   6.476  0.7392 -1.0092  0.0189
  162SAPE    C118147   5.343   5.217   6.499  0.2666  0.3545  0.4045
  162SAPE    HA18148   5.318   5.122   6.551  1.0085 -0.5977 -0.9038
  162SAPE    HB18149   5.390   5.199   6.400 -0.8679 -0.4954 -0.0086
  162SAPE    C218150   5.447   5.297   6.584 -0.3732 -0.1378  0.8816
  162SAPE    HS18151   5.538   5.234   6.579 -0.1513  0.0497  2.1840
  162SAPE   O2118152   5.412   5.301   6.726  0.1250  0.4656 -0.2708
  162SAPE   C2118153   5.412   5.190   6.793 -0.5877 -0.0514 -0.1831
  162SAPE   O2218154   5.451   5.079   6.762  0.2649 -0.3875  0.4559
  162SAPE   C2218155   5.362   5.226   6.933 -0.3675 -0.3992  0.0984
  162SAPE   H2R18156   5.421   5.311   6.974  1.9718 -0.6035 -2.5328
  162SAPE   H2S18157   5.255   5.255   6.921  0.1163  0.2050 -4.5164
  162SAPE    C318158   5.480   5.441   6.527 -0.0734 -0.1105  1.0770
  162SAPE    HX18159   5.384   5.492   6.505  0.0499 -0.5171 -0.4800
  162SAPE    HY18160   5.532   5.438   6.429 -2.0669  0.9394 -0.0696
  162SAPE   O3118161   5.563   5.520   6.618  0.4299 -0.0100  0.0485
  162SAPE   C3118162   5.681   5.481   6.630  0.1254 -0.5247  0.4478
  162SAPE   O3218163   5.738   5.401   6.565 -0.3457  1.1254  0.3995
  162SAPE   C3218164   5.756   5.546   6.738 -0.6033  0.2169  0.1871
  162SAPE   H2X18165   5.832   5.608   6.685  0.3297 -0.0667  1.1801
  162SAPE   H2Y18166   5.819   5.476   6.796 -1.6283  0.8232  2.1109
  162SAPE   C2318167   5.382   5.108   7.022  0.3866  0.2876  0.5605
  162SAPE   H3R18168   5.487   5.071   7.032 -0.3418 -1.8755  0.8458
  162SAPE   H3S18169   5.323   5.024   6.979 -2.7073  2.2166  0.7776
  162SAPE   C2418170   5.339   5.143   7.167  0.2418 -0.4129  0.8382
  162SAPE   H4R18171   5.428   5.193   7.213 -0.4117  0.4003  1.2378
  162SAPE   H4S18172   5.320   5.049   7.222  0.2804 -0.9264 -0.0153
  162SAPE   C2518173   5.211   5.221   7.171 -0.7556 -0.9256  0.1801
  162SAPE   H5R18174   5.137   5.191   7.095 -0.1554 -0.7867 -0.4686
  162SAPE   C2618175   5.188   5.338   7.240 -0.4237  0.4775 -0.1672
  162SAPE   H6R18176   5.093   5.395   7.237  0.8610  2.7253 -0.6315
  162SAPE   C2718177   5.276   5.400   7.344 -0.0962  0.5124  0.2881
  162SAPE   H7R18178   5.303   5.500   7.306 -0.3721 -0.1172 -1.6940
  162SAPE   H7S18179   5.376   5.352   7.353  0.1414  0.7947 -0.7313
  162SAPE   C2818180   5.209   5.413   7.479 -0.3984 -0.3989 -0.1053
  162SAPE   H8R18181   5.110   5.461   7.474  0.4222  1.5517  1.1984
  162SAPE   C2918182   5.254   5.377   7.601  0.0331  1.0339 -0.2037
  162SAPE   H9R18183   5.175   5.393   7.676  0.5991  1.0230  0.4032
  162SAPE  C21018184   5.384   5.304   7.640 -0.1572 -0.4576  0.8128
  162SAPE  H10R18185   5.444   5.362   7.714  0.3542 -1.3324  1.0908
  162SAPE  H10S18186   5.459   5.296   7.558 -0.8381 -2.9952  0.3670
  162SAPE  C21118187   5.356   5.173   7.711 -0.8074 -0.6547  0.5647
  162SAPE  H11R18188   5.345   5.085   7.646 -1.7246 -0.8141  0.9179
  162SAPE  C21218189   5.340   5.158   7.843 -0.0958  0.3765 -0.6217
  162SAPE  H12R18190   5.317   5.056   7.879 -2.2181  1.2037  0.5085
  162SAPE  C21318191   5.350   5.265   7.952 -0.0080  0.5727  0.7354
  162SAPE  H13R18192   5.262   5.251   8.019 -0.2619  1.7684  0.6899
  162SAPE  H13S18193   5.348   5.370   7.914  1.6845  0.6815  0.8634
  162SAPE  C21418194   5.477   5.239   8.032 -1.4609 -0.7051  0.3781
  162SAPE  H14R18195   5.567   5.294   7.999 -1.2287 -0.8683  0.7288
  162SAPE  C21518196   5.488   5.159   8.140  0.4746 -0.4119 -0.5861
  162SAPE  H15R18197   5.586   5.128   8.181 -0.8473 -1.8570  1.6793
  162SAPE  C21618198   5.380   5.076   8.198  0.6021  0.4650 -0.4590
  162SAPE  H16R18199   5.419   4.983   8.244  1.1222 -0.0079 -1.7869
  162SAPE  H16S18200   5.309   5.034   8.124  1.7592 -0.9013 -0.8491
  162SAPE  C21718201   5.300   5.155   8.300 -0.0467 -0.5048 -0.5194
  162SAPE  H17R18202   5.213   5.094   8.333 -1.4787  1.7254  0.0529
  162SAPE  H17S18203   5.245   5.232   8.241 -0.1744  0.2832  0.5938
  162SAPE  C21818204   5.386   5.220   8.408  0.7044  0.4788  0.1004
  162SAPE  H18R18205   5.462   5.295   8.376  0.2148  2.0475  2.3906
  162SAPE  H18S18206   5.435   5.139   8.465  0.2597  0.5032  0.5152
  162SAPE  C21918207   5.302   5.296   8.513 -0.0262 -0.5949  1.0135
  162SAPE  H19R18208   5.231   5.225   8.559 -0.3629 -1.3335 -0.5673
  162SAPE  H19S18209   5.249   5.378   8.460  0.3546 -0.7382  0.4011
  162SAPE  C22018210   5.383   5.368   8.628 -0.1317 -0.2571  1.0527
  162SAPE  H20R18211   5.431   5.463   8.596 -1.4089  0.4737  1.2512
  162SAPE  H20S18212   5.456   5.295   8.669 -0.0097 -0.3474  0.6826
  162SAPE  H20T18213   5.312   5.384   8.711 -2.8428 -1.8206 -0.8306
  162SAPE   C3318214   5.678   5.635   6.840  0.3194 -0.3759 -0.3644
  162SAPE   H3X18215   5.625   5.709   6.777 -0.7888 -1.1197 -0.3341
  162SAPE   H3Y18216   5.751   5.675   6.914  0.6751 -1.0925 -0.3244
  162SAPE   C3418217   5.578   5.554   6.919  0.5804  0.1230  0.4593
  162SAPE   H4X18218   5.631   5.468   6.966  2.2327 -0.2636 -1.8861
  162SAPE   H4Y18219   5.510   5.491   6.858  0.2998  1.1336 -0.2973
  162SAPE   C3518220   5.497   5.633   7.021 -0.2757 -0.1596 -0.7324
  162SAPE   H5X18221   5.403   5.586   7.056 -0.5793  1.1266  0.2750
  162SAPE   H5Y18222   5.479   5.730   6.971  0.3956 -1.1284 -2.9599
  162SAPE   C3618223   5.580   5.659   7.155 -0.0911 -0.2634  0.1466
  162SAPE   H6X18224   5.689   5.679   7.141  0.0241 -1.0241 -0.1012
  162SAPE   H6Y18225   5.571   5.569   7.219 -0.5807 -0.9075 -0.8063
  162SAPE   C3718226   5.517   5.785   7.223 -0.2481  0.4184  0.1086
  162SAPE   H7X18227   5.411   5.762   7.247 -0.5303  1.2837 -0.2604
  162SAPE   H7Y18228   5.531   5.871   7.153 -0.5410 -0.5307 -1.1567
  162SAPE   C3818229   5.592   5.828   7.353 -0.4734 -0.5140  0.2156
  162SAPE   H8X18230   5.611   5.936   7.368 -0.6990 -0.8011  3.1427
  162SAPE   H8Y18231   5.696   5.793   7.363  0.2059  1.1305 -0.6827
  162SAPE   C3918232   5.504   5.788   7.475  0.0419  0.2743 -0.3367
  162SAPE   H9X18233   5.460   5.686   7.474  1.6548 -0.5146  1.7101
  162SAPE   H9Y18234   5.424   5.864   7.485  1.0414  1.1030  2.2867
  162SAPE  C31018235   5.582   5.808   7.610  0.2660 -0.1457  0.1600
  162SAPE  H10X18236   5.610   5.915   7.622 -1.8785  0.2779  1.9806
  162SAPE  H10Y18237   5.676   5.749   7.617  1.6748  2.1200  1.4467
  162SAPE  C31118238   5.507   5.767   7.731  0.2525  0.2326  0.1195
  162SAPE  H11X18239   5.482   5.660   7.715  0.6265  0.2813 -0.8134
  162SAPE  H11Y18240   5.412   5.823   7.732  0.0465 -0.0401  2.5292
  162SAPE  C31218241   5.587   5.776   7.863  0.0677 -0.0288  0.6720
  162SAPE  H12X18242   5.632   5.877   7.875 -0.2504  0.1671  0.2643
  162SAPE  H12Y18243   5.675   5.710   7.854  1.8790  2.1464  1.5070
  162SAPE  C31318244   5.503   5.739   7.990 -0.2823 -0.3154  0.2532
  162SAPE  H13X18245   5.453   5.641   7.981 -0.3314 -0.3217  0.5878
  162SAPE  H13Y18246   5.415   5.808   7.985  0.5787  0.9197  1.4857
  162SAPE  C31418247   5.574   5.772   8.123 -0.1891 -0.1404  0.2567
  162SAPE  H14X18248   5.585   5.882   8.127 -0.2019 -0.0733 -1.1588
  162SAPE  H14Y18249   5.676   5.727   8.128  0.9512  1.9601 -2.0225
  162SAPE  C31518250   5.481   5.739   8.243 -0.5330  0.3835  0.3853
  162SAPE  H15X18251   5.487   5.631   8.268 -0.3059  0.4049  0.4222
  162SAPE  H15Y18252   5.376   5.754   8.210 -0.4658  1.2411  0.5505
  162SAPE  C31618253   5.495   5.822   8.369 -0.2187  0.2778 -0.4462
  162SAPE  H16X18254   5.440   5.918   8.363  0.7101  0.7894 -1.1074
  162SAPE  H16Y18255   5.604   5.841   8.381 -0.4506  0.4296  1.7425
  162SAPE  C31718256   5.445   5.750   8.500  0.1155  0.6634  0.2736
  162SAPE  H17X18257   5.508   5.660   8.515 -1.4506 -0.3504  1.1267
  162SAPE  H17Y18258   5.343   5.707   8.492 -0.0341  1.0099  0.3199
  162SAPE  C31818259   5.459   5.833   8.632 -0.6875 -0.0965  0.0195
  162SAPE  H18X18260   5.563   5.853   8.667 -0.6560  3.6241 -1.7766
  162SAPE  H18Y18261   5.406   5.770   8.707  0.2147 -0.2316  0.5591
  162SAPE  H18Z18262   5.420   5.934   8.609  2.3482  0.9664 -0.8639
  163SAPE     N18263   6.577   2.928   6.315 -0.7445  0.6973  0.2724
  163SAPE   HN118264   6.542   2.952   6.220  1.2963 -2.2503 -1.3834
  163SAPE   HN218265   6.549   3.003   6.382 -2.2731 -1.6570  2.4668
  163SAPE   HN318266   6.680   2.917   6.311 -0.6053  0.7401  2.4095
  163SAPE   C1218267   6.507   2.795   6.347  0.2906  0.0615  0.2496
  163SAPE  H12A18268   6.585   2.720   6.320  0.6564  0.6931 -0.5185
  163SAPE  H12B18269   6.424   2.787   6.273  2.1807 -2.2770 -1.8462
  163SAPE   C1118270   6.447   2.801   6.498 -0.1821  0.8870  0.2941
  163SAPE  H11A18271   6.537   2.788   6.560  0.0840 -3.5292 -0.6231
  163SAPE  H11B18272   6.388   2.708   6.517  1.5350 -0.0969  0.9845
  163SAPE     P18273   6.224   2.923   6.548 -0.1397  0.0985 -0.2354
  163SAPE   O1318274   6.172   3.062   6.555  0.6263  0.4200 -0.6181
  163SAPE   O1418275   6.163   2.846   6.439  0.0530  0.4295  0.3114
  163SAPE   O1218276   6.378   2.916   6.529 -0.3392 -0.6995 -0.0400
  163SAPE   O1118277   6.198   2.849   6.687  0.3581  0.5243 -0.0169
  163SAPE    C118278   6.249   2.903   6.803 -0.6560  0.0282 -0.5370
  163SAPE    HA18279   6.259   2.820   6.876  0.8616  0.9866  0.3901
  163SAPE    HB18280   6.352   2.941   6.790 -0.1616 -0.2146  2.2114
  163SAPE    C218281   6.150   3.003   6.873 -0.6364 -0.1512 -0.0851
  163SAPE    HS18282   6.139   3.091   6.805 -1.0859 -0.1587 -0.0225
  163SAPE   O2118283   6.201   3.037   7.004  0.1999  0.0198 -0.5340
  163SAPE   C2118284   6.295   3.123   7.015 -0.2612 -0.5646  0.2818
  163SAPE   O2218285   6.348   3.193   6.927 -0.4201  0.3380  0.5390
  163SAPE   C2218286   6.338   3.152   7.157  0.2211 -0.0963 -0.3175
  163SAPE   H2R18287   6.305   3.057   7.203 -1.2081  0.2975 -0.4707
  163SAPE   H2S18288   6.449   3.156   7.157  0.2443 -0.2235 -1.6154
  163SAPE    C318289   6.005   2.951   6.883  0.0563 -0.2440 -0.0485
  163SAPE    HX18290   5.961   2.916   6.787  0.1048  1.0889 -0.5699
  163SAPE    HY18291   5.949   3.044   6.907  0.2456  0.2203 -1.3430
  163SAPE   O3118292   6.005   2.842   6.976 -0.4988  0.8821 -0.5009
  163SAPE   C3118293   5.952   2.723   6.945 -0.9787 -0.8212  0.0970
  163SAPE   O3218294   5.908   2.694   6.841 -0.1538 -0.0435 -0.1672
  163SAPE   C3218295   5.983   2.624   7.057 -0.3558 -0.3783  0.7909
  163SAPE   H2X18296   6.071   2.566   7.022 -1.4878 -0.9680 -1.2307
  163SAPE   H2Y18297   5.904   2.547   7.054  0.8154 -1.7958  3.1249
  163SAPE   C2318298   6.276   3.286   7.204  0.8386 -0.4648  0.3832
  163SAPE   H3R18299   6.241   3.247   7.302  0.2640  1.1207  0.8455
  163SAPE   H3S18300   6.190   3.325   7.145  2.3337  0.0752 -1.5350
  163SAPE   C2418301   6.381   3.398   7.212 -0.5678  0.6492 -0.0372
  163SAPE   H4R18302   6.393   3.429   7.106 -0.0946 -1.5228 -0.6706
  163SAPE   H4S18303   6.481   3.371   7.252  0.8289  3.0962 -1.6415
  163SAPE   C2518304   6.331   3.519   7.284 -0.2517  0.4403 -0.3989
  163SAPE   H5R18305   6.281   3.588   7.215 -3.9603 -1.1560  0.3898
  163SAPE   C2618306   6.330   3.536   7.420 -0.3457  0.3625 -0.0232
  163SAPE   H6R18307   6.282   3.631   7.448 -1.0758  0.7139 -2.2671
  163SAPE   C2718308   6.397   3.448   7.526  0.3971 -0.1548 -0.7546
  163SAPE   H7R18309   6.508   3.445   7.520  0.6266 -1.1584  2.3614
  163SAPE   H7S18310   6.376   3.342   7.501 -1.5838  0.1816 -0.6949
  163SAPE   C2818311   6.347   3.480   7.668  1.1236  0.0856  0.1139
  163SAPE   H8R18312   6.383   3.576   7.706  0.6304  0.2059  0.2880
  163SAPE   C2918313   6.270   3.408   7.747  0.2401 -0.3669 -0.2910
  163SAPE   H9R18314   6.250   3.444   7.849  0.0945  0.2181 -0.5213
  163SAPE  C21018315   6.225   3.269   7.711 -0.0673 -0.1222  0.2417
  163SAPE  H10R18316   6.296   3.217   7.643  1.0625 -1.0704  2.0643
  163SAPE  H10S18317   6.131   3.280   7.653  0.0189  1.4480  0.3797
  163SAPE  C21118318   6.202   3.176   7.830 -0.5610 -0.1751 -0.3178
  163SAPE  H11R18319   6.276   3.097   7.851  0.0537  0.3905 -0.3322
  163SAPE  C21218320   6.105   3.174   7.918  0.8977 -0.1377  0.5771
  163SAPE  H12R18321   6.096   3.095   7.994 -0.0928  0.1699  0.8084
  163SAPE  C21318322   5.977   3.265   7.909 -1.0275 -0.2000 -0.0920
  163SAPE  H13R18323   5.947   3.291   7.805  2.1825  1.0514 -0.8426
  163SAPE  H13S18324   6.001   3.363   7.956 -0.5199  0.5694 -1.8939
  163SAPE  C21418325   5.867   3.193   7.986 -0.2997 -0.6610 -0.6522
  163SAPE  H14R18326   5.897   3.104   8.043 -1.2855  0.0286  1.0191
  163SAPE  C21518327   5.739   3.229   7.987  0.0714 -0.0962 -0.2075
  163SAPE  H15R18328   5.672   3.177   8.057  1.2495  0.9165  1.7587
  163SAPE  C21618329   5.676   3.353   7.918 -0.1244  0.4987  0.2874
  163SAPE  H16R18330   5.751   3.429   7.889 -0.0307  0.2410 -0.1418
  163SAPE  H16S18331   5.606   3.404   7.988 -0.0752  1.7672 -0.5681
  163SAPE  C21718332   5.602   3.303   7.793  0.0456 -0.2130 -0.0876
  163SAPE  H17R18333   5.538   3.222   7.832 -1.0536  1.2630  1.3119
  163SAPE  H17S18334   5.671   3.261   7.717  1.0038 -0.5273  0.9407
  163SAPE  C21818335   5.515   3.412   7.725  0.2350  0.3092  0.2558
  163SAPE  H18R18336   5.583   3.500   7.718  0.2604  0.2475 -0.3812
  163SAPE  H18S18337   5.437   3.430   7.802 -1.4226  2.3365 -1.7213
  163SAPE  C21918338   5.446   3.365   7.596 -0.8326  0.8745 -0.5758
  163SAPE  H19R18339   5.528   3.360   7.521  0.0995 -0.2992  0.4677
  163SAPE  H19S18340   5.383   3.447   7.556 -1.6428  0.6939  0.3065
  163SAPE  C22018341   5.366   3.240   7.614 -0.3841  0.0576 -0.1568
  163SAPE  H20R18342   5.289   3.268   7.689  1.0528  1.9129  0.7137
  163SAPE  H20S18343   5.433   3.160   7.655  0.9614  0.6707 -1.0756
  163SAPE  H20T18344   5.328   3.209   7.514  0.5503  4.4345 -2.0912
  163SAPE   C3318345   5.997   2.688   7.201 -0.0268 -0.0021  0.2203
  163SAPE   H3X18346   5.957   2.614   7.273 -1.6827 -0.2752 -0.9421
  163SAPE   H3Y18347   5.934   2.779   7.216  0.4846  0.2927  0.6367
  163SAPE   C3418348   6.147   2.720   7.228  0.0835  0.6618 -0.5014
  163SAPE   H4X18349   6.194   2.785   7.151  0.8542 -0.4996 -1.0423
  163SAPE   H4Y18350   6.204   2.625   7.224 -1.8392 -0.7161  2.0014
  163SAPE   C3518351   6.172   2.775   7.367  0.2326 -0.2008 -0.2390
  163SAPE   H5X18352   6.099   2.857   7.379 -0.8837 -1.2476  0.2740
  163SAPE   H5Y18353   6.275   2.818   7.372  0.5271 -0.8573 -0.4924
  163SAPE   C3618354   6.144   2.674   7.478  0.2775  0.7950 -0.5187
  163SAPE   H6X18355   6.214   2.589   7.492 -1.1690 -0.5550 -1.0909
  163SAPE   H6Y18356   6.041   2.633   7.463 -0.3085  1.3142  1.6689
  163SAPE   C3718357   6.136   2.767   7.604  0.2229  0.1519  0.0624
  163SAPE   H7X18358   6.053   2.840   7.600  0.4585  0.4598  0.6273
  163SAPE   H7Y18359   6.225   2.834   7.602 -1.3187  2.4058  1.6192
  163SAPE   C3818360   6.138   2.698   7.743  0.5244  0.2115 -0.0990
  163SAPE   H8X18361   6.228   2.634   7.752  2.6421  3.2440  2.9827
  163SAPE   H8Y18362   6.041   2.644   7.750  1.1719 -1.0159 -0.3458
  163SAPE   C3918363   6.153   2.794   7.861  0.2572 -1.1021 -0.4176
  163SAPE   H9X18364   6.066   2.864   7.861 -0.5966 -2.1498 -0.3349
  163SAPE   H9Y18365   6.244   2.855   7.840 -0.9826  2.0580  2.5162
  163SAPE  C31018366   6.160   2.730   7.998  0.4220  0.0265  0.0456
  163SAPE  H10X18367   6.246   2.659   8.005 -0.4899 -1.1139 -0.0264
  163SAPE  H10Y18368   6.070   2.667   8.015 -0.3588  1.0270 -0.3178
  163SAPE  C31118369   6.188   2.848   8.096  0.2296  0.1961 -0.6748
  163SAPE  H11X18370   6.092   2.904   8.101 -1.4165 -2.4886 -0.0860
  163SAPE  H11Y18371   6.256   2.927   8.057 -1.2281  1.9364  0.0986
  163SAPE  C31218372   6.229   2.793   8.241 -0.3366 -0.0717  0.6098
  163SAPE  H12X18373   6.337   2.772   8.250  0.0169  1.9427  1.6028
  163SAPE  H12Y18374   6.179   2.697   8.265  0.5829 -0.9674 -0.9485
  163SAPE  C31318375   6.198   2.900   8.356  0.6156 -0.1545  0.4172
  163SAPE  H13X18376   6.104   2.954   8.332  0.9316 -0.3203 -1.3086
  163SAPE  H13Y18377   6.286   2.968   8.355 -0.8523  1.8170  0.9452
  163SAPE  C31418378   6.203   2.836   8.504 -0.1213 -0.5868  0.4453
  163SAPE  H14X18379   6.309   2.816   8.532 -0.0926 -1.1787 -0.0567
  163SAPE  H14Y18380   6.141   2.744   8.510  0.5224 -0.9557  1.6789
  163SAPE  C31518381   6.173   2.948   8.596 -0.2742  0.0186 -0.3898
  163SAPE  H15X18382   6.065   2.971   8.587 -0.7306 -1.2456  1.2989
  163SAPE  H15Y18383   6.238   3.033   8.566  1.2988 -1.6206 -1.8600
  163SAPE  C31618384   6.182   2.901   8.740 -0.5139 -0.0830 -0.3170
  163SAPE  H16X18385   6.292   2.894   8.756 -0.5319  0.6261  0.1555
  163SAPE  H16Y18386   6.144   2.798   8.756 -0.1478  0.1451  2.5516
  163SAPE  C31718387   6.129   2.994   8.845 -0.4136 -0.0882  0.0105
  163SAPE  H17X18388   6.022   3.018   8.824 -0.3071  0.2044 -0.1931
  163SAPE  H17Y18389   6.177   3.094   8.846 -0.5206 -0.0352 -0.1703
  163SAPE  C31818390   6.134   2.919   8.977  0.4897  0.2581 -0.1592
  163SAPE  H18X18391   6.109   2.811   8.974 -1.9743  0.7762 -0.8593
  163SAPE  H18Y18392   6.066   2.971   9.047 -0.1097 -2.2852  1.2761
  163SAPE  H18Z18393   6.236   2.936   9.019  0.4836  0.3376 -0.1753
  164SAPE     N18394   1.819   1.454   6.107 -0.6731  0.1468  0.0249
  164SAPE   HN118395   1.763   1.482   6.023 -1.1111 -0.1073  0.2274
  164SAPE   HN218396   1.909   1.504   6.091  0.3643 -1.5684  0.3445
  164SAPE   HN318397   1.842   1.353   6.114  1.5266  0.7146  2.7669
  164SAPE   C1218398   1.748   1.495   6.230 -0.3006  0.2950  0.6204
  164SAPE  H12A18399   1.710   1.598   6.219  2.4239  1.4275  0.9384
  164SAPE  H12B18400   1.825   1.496   6.311  0.9631 -0.0809 -0.5447
  164SAPE   C1118401   1.632   1.402   6.273  0.1672  0.6752 -0.2454
  164SAPE  H11A18402   1.605   1.443   6.373  0.1230 -1.1993  0.5404
  164SAPE  H11B18403   1.665   1.298   6.289  1.5279  1.0083 -0.7665
  164SAPE     P18404   1.483   1.314   6.070 -0.2302  0.3088 -0.1777
  164SAPE   O1318405   1.366   1.374   5.998  0.4080  0.4717 -0.3720
  164SAPE   O1418406   1.595   1.283   5.981 -0.1280 -0.4902  0.1466
  164SAPE   O1218407   1.525   1.420   6.182  0.4276 -0.6069 -0.3297
  164SAPE   O1118408   1.433   1.180   6.149 -0.9753 -0.4225 -0.0576
  164SAPE    C118409   1.314   1.176   6.225 -0.3714 -0.6886  0.4702
  164SAPE    HA18410   1.233   1.235   6.175  0.6524  1.4541  1.2021
  164SAPE    HB18411   1.286   1.069   6.232 -0.2736 -1.0886 -3.2426
  164SAPE    C218412   1.336   1.226   6.367  0.1030 -0.0083 -0.6891
  164SAPE    HS18413   1.389   1.323   6.377  0.3169 -0.1529 -0.4146
  164SAPE   O2118414   1.401   1.119   6.435 -0.4708 -0.2483  0.5428
  164SAPE   C2118415   1.490   1.155   6.529  0.6370 -0.3926  0.3258
  164SAPE   O2218416   1.526   1.270   6.551  0.0596 -0.6157  0.5460
  164SAPE   C2218417   1.538   1.031   6.613  0.0533  0.1401 -0.2168
  164SAPE   H2R18418   1.473   0.945   6.587  0.5014 -0.7607  1.5199
  164SAPE   H2S18419   1.639   1.000   6.579  0.5832  1.2052  0.3354
  164SAPE    C318420   1.201   1.261   6.427 -1.2004 -0.8511  0.1397
  164SAPE    HX18421   1.143   1.166   6.414  0.6777 -1.7322 -2.6776
  164SAPE    HY18422   1.158   1.343   6.366 -0.0960 -0.9525 -0.7966
  164SAPE   O3118423   1.211   1.293   6.566 -0.4496 -0.7584 -0.1568
  164SAPE   C3118424   1.226   1.424   6.602  0.1490  0.1825  0.5118
  164SAPE   O3218425   1.257   1.512   6.523 -0.1333  0.0475 -0.4326
  164SAPE   C3218426   1.197   1.452   6.752  0.1283 -0.5566  0.2159
  164SAPE   H2X18427   1.200   1.351   6.799  1.2091  0.0775  1.5960
  164SAPE   H2Y18428   1.098   1.501   6.762  0.9111  1.5072 -1.4841
  164SAPE   C2318429   1.553   1.068   6.755  0.4031  0.1892  0.4691
  164SAPE   H3R18430   1.629   1.149   6.755  1.5137 -0.8169  0.3028
  164SAPE   H3S18431   1.598   0.983   6.811  1.4059  2.4884  3.3956
  164SAPE   C2418432   1.428   1.108   6.830 -0.2664  1.2436 -0.8361
  164SAPE   H4R18433   1.391   1.206   6.792 -1.9779  0.8190 -0.3023
  164SAPE   H4S18434   1.458   1.129   6.935  0.4776  1.2712 -1.0480
  164SAPE   C2518435   1.322   0.997   6.820  0.1789 -0.5806 -0.2928
  164SAPE   H5R18436   1.248   1.011   6.739  0.0453 -0.2392 -0.1133
  164SAPE   C2618437   1.328   0.890   6.903  0.5557  0.7212  0.2122
  164SAPE   H6R18438   1.255   0.808   6.886  0.0969  0.5939  2.4205
  164SAPE   C2718439   1.429   0.875   7.010 -0.4611  0.5555 -0.5651
  164SAPE   H7R18440   1.512   0.948   7.012  0.1637 -0.1583  0.2678
  164SAPE   H7S18441   1.465   0.770   7.002 -2.7725 -0.2145 -2.1814
  164SAPE   C2818442   1.359   0.879   7.145 -0.4324 -0.1977  0.1685
  164SAPE   H8R18443   1.317   0.980   7.160  0.8983  0.6239 -1.3313
  164SAPE   C2918444   1.367   0.794   7.247 -0.0012  0.2811  0.2543
  164SAPE   H9R18445   1.295   0.799   7.331  2.3234  2.7616  2.2789
  164SAPE  C21018446   1.449   0.669   7.247 -1.0261 -0.7608  0.9960
  164SAPE  H10R18447   1.455   0.643   7.139  1.0518  1.2280  0.5588
  164SAPE  H10S18448   1.400   0.584   7.300  0.8429 -2.5399  0.0488
  164SAPE  C21118449   1.588   0.667   7.307  0.6740  0.3193 -0.7419
  164SAPE  H11R18450   1.603   0.724   7.400  2.0198  2.2770 -2.0718
  164SAPE  C21218451   1.685   0.587   7.262 -0.3426 -0.4028  0.1998
  164SAPE  H12R18452   1.776   0.582   7.323 -0.2186  5.1017  0.8862
  164SAPE  C21318453   1.684   0.488   7.149  0.7445  0.5063  0.1318
  164SAPE  H13R18454   1.620   0.523   7.065 -1.6564 -0.6599  1.3838
  164SAPE  H13S18455   1.647   0.392   7.191  0.2109  0.2351 -0.9337
  164SAPE  C21418456   1.820   0.455   7.086  1.0564 -0.0737 -0.6917
  164SAPE  H14R18457   1.851   0.511   6.996  0.7902 -0.6702 -1.1660
  164SAPE  C21518458   1.903   0.361   7.130  0.5598  1.2086  0.1523
  164SAPE  H15R18459   1.994   0.341   7.073  0.0796  0.0827 -0.2619
  164SAPE  C21618460   1.877   0.267   7.244 -0.1301  0.1154 -0.2319
  164SAPE  H16R18461   1.857   0.162   7.213 -1.2851  0.6155 -1.2686
  164SAPE  H16S18462   1.791   0.300   7.307  0.2756 -0.0171  0.4056
  164SAPE  C21718463   1.982   0.263   7.353  0.2763 -0.0455  0.1748
  164SAPE  H17R18464   1.994   0.361   7.404 -0.2586  1.1687 -1.9136
  164SAPE  H17S18465   2.079   0.218   7.322  0.6328  1.0017 -0.2815
  164SAPE  C21818466   1.934   0.170   7.466  0.3125  0.1775  0.5045
  164SAPE  H18R18467   1.898   0.077   7.418 -0.0536  0.6706 -0.1983
  164SAPE  H18S18468   1.857   0.223   7.527 -1.6919 -1.3877 -0.5548
  164SAPE  C21918469   2.047   0.125   7.563 -0.1364 -0.4319  0.3918
  164SAPE  H19R18470   2.071   0.199   7.641 -1.1264  0.1262  0.1796
  164SAPE  H19S18471   2.135   0.123   7.495 -0.0198  1.1718  0.4760
  164SAPE  C22018472   2.009  -0.011   7.623 -0.2042 -0.2891 -0.2109
  164SAPE  H20R18473   1.985  -0.080   7.540 -2.6729  0.7091 -0.4166
  164SAPE  H20S18474   1.920  -0.005   7.689 -1.3069 -0.4975 -1.6438
  164SAPE  H20T18475   2.093  -0.046   7.688  0.3247  2.9274  1.0273
  164SAPE   C3318476   1.311   1.537   6.828  0.6902  0.6604  0.4080
  164SAPE   H3X18477   1.313   1.633   6.771 -2.5549 -0.2374 -1.4543
  164SAPE   H3Y18478   1.408   1.485   6.836 -0.2030 -1.8570 -2.9559
  164SAPE   C3418479   1.282   1.569   6.971  0.5912  0.4510 -0.6141
  164SAPE   H4X18480   1.177   1.605   6.976 -0.5688 -2.5490 -0.9674
  164SAPE   H4Y18481   1.352   1.648   7.004  1.7709  0.0363 -2.0593
  164SAPE   C3518482   1.323   1.445   7.054  0.6451  0.2677  0.1418
  164SAPE   H5X18483   1.435   1.443   7.055  0.8810  3.1174 -2.7045
  164SAPE   H5Y18484   1.276   1.350   7.021  0.0558  0.7656 -0.4685
  164SAPE   C3618485   1.304   1.458   7.218  1.3675  0.0266  1.2231
  164SAPE   H6X18486   1.194   1.446   7.230  1.1433  1.0936  0.3926
  164SAPE   H6Y18487   1.337   1.553   7.264  0.4951  0.5945  0.7058
  164SAPE   C3718488   1.364   1.334   7.275 -0.1001  0.0544 -0.4266
  164SAPE   H7X18489   1.470   1.364   7.266 -0.1632  0.2412 -0.5285
  164SAPE   H7Y18490   1.331   1.248   7.213 -2.3780  1.1371 -0.8051
  164SAPE   C3818491   1.333   1.313   7.419 -0.5159  0.1494 -0.3897
  164SAPE   H8X18492   1.355   1.209   7.453 -0.0002  0.0747 -0.9340
  164SAPE   H8Y18493   1.225   1.335   7.426 -0.4858  0.2808 -0.3349
  164SAPE   C3918494   1.411   1.405   7.521  0.2374 -0.2227 -0.3724
  164SAPE   H9X18495   1.378   1.511   7.519  0.2005 -0.1063  2.3336
  164SAPE   H9Y18496   1.522   1.404   7.516  0.1827  0.0640 -2.1395
  164SAPE  C31018497   1.375   1.349   7.656 -0.4039  0.5177  0.2291
  164SAPE  H10X18498   1.414   1.245   7.650 -1.6585 -0.0333  1.0892
  164SAPE  H10Y18499   1.266   1.344   7.673 -0.4189 -1.8249 -0.2253
  164SAPE  C31118500   1.451   1.424   7.775 -0.9518 -0.2123 -0.7012
  164SAPE  H11X18501   1.425   1.532   7.766  1.0511  0.4090  0.2174
  164SAPE  H11Y18502   1.558   1.406   7.750 -1.1636 -0.5215 -1.4276
  164SAPE  C31218503   1.424   1.376   7.915  0.9687  0.8265 -0.4659
  164SAPE  H12X18504   1.439   1.266   7.911 -1.1109  0.4891 -0.1306
  164SAPE  H12Y18505   1.315   1.392   7.928  1.0705  0.9650  0.2749
  164SAPE  C31318506   1.510   1.446   8.019 -0.2595 -0.0797 -0.0534
  164SAPE  H13X18507   1.481   1.553   8.009  0.4728  0.1787  0.4537
  164SAPE  H13Y18508   1.615   1.446   7.983  0.0279  0.4239  0.7692
  164SAPE  C31418509   1.490   1.398   8.163  0.4656 -0.1560  0.0143
  164SAPE  H14X18510   1.548   1.304   8.174 -0.0206 -0.4579  0.0161
  164SAPE  H14Y18511   1.381   1.382   8.177  0.3437 -0.5986 -1.3286
  164SAPE  C31518512   1.530   1.501   8.271  0.1378  0.2912  0.2533
  164SAPE  H15X18513   1.641   1.516   8.270  0.7521 -3.4233 -0.0241
  164SAPE  H15Y18514   1.510   1.466   8.375  2.5019 -0.3926  0.5373
  164SAPE  C31618515   1.453   1.635   8.255 -0.0213 -0.6293 -0.3110
  164SAPE  H16X18516   1.345   1.608   8.256  0.2629 -1.7774  0.3129
  164SAPE  H16Y18517   1.486   1.692   8.165  2.5064 -1.2078  0.1642
  164SAPE  C31718518   1.488   1.725   8.383 -0.5902 -0.6304 -1.0155
  164SAPE  H17X18519   1.598   1.737   8.392 -0.6892  0.4797 -1.0999
  164SAPE  H17Y18520   1.461   1.666   8.473  1.7615 -1.0713 -0.5272
  164SAPE  C31818521   1.442   1.868   8.396  0.4532 -0.3288  0.2284
  164SAPE  H18X18522   1.488   1.930   8.316  0.5548 -2.1947 -1.2506
  164SAPE  H18Y18523   1.477   1.911   8.492  0.2492  1.0359 -0.2896
  164SAPE  H18Z18524   1.332   1.863   8.386  0.4238 -2.1843  1.0474
  165SAPE     N18525   0.600   4.506   6.484 -0.1076 -0.3837  0.1745
  165SAPE   HN118526   0.536   4.428   6.459  1.5785 -2.7486  2.6564
  165SAPE   HN218527   0.541   4.591   6.481 -2.9563 -2.2479 -2.7777
  165SAPE   HN318528   0.666   4.504   6.403 -2.1773 -0.0478 -1.5964
  165SAPE   C1218529   0.667   4.482   6.612 -0.3091  0.1905 -0.1245
  165SAPE  H12A18530   0.716   4.383   6.609  1.0202  0.4949  4.0242
  165SAPE  H12B18531   0.591   4.485   6.693 -0.3427 -0.8013 -0.1154
  165SAPE   C1118532   0.772   4.593   6.648 -0.0631 -0.0405 -0.3072
  165SAPE  H11A18533   0.805   4.566   6.750 -2.5927  2.9436  1.5017
  165SAPE  H11B18534   0.721   4.691   6.662 -0.7833 -0.5282  0.5747
  165SAPE     P18535   0.912   4.708   6.455  0.3125 -0.6996 -0.0528
  165SAPE   O1318536   1.037   4.697   6.387 -0.4700 -0.5450 -0.0960
  165SAPE   O1418537   0.794   4.704   6.365  0.0757 -0.5564  0.0080
  165SAPE   O1218538   0.881   4.596   6.559  0.0850  0.1850 -0.3372
  165SAPE   O1118539   0.902   4.845   6.539 -0.0179  0.5730  0.3295
  165SAPE    C118540   1.023   4.909   6.585  0.0565  0.3093  0.8138
  165SAPE    HA18541   1.106   4.916   6.511  0.3593  3.2271  1.2841
  165SAPE    HB18542   0.998   5.011   6.623 -0.7804  0.3625  0.1501
  165SAPE    C218543   1.069   4.839   6.713  0.5180 -0.2453  0.4700
  165SAPE    HS18544   1.107   4.738   6.688  0.1775 -1.1922  3.3344
  165SAPE   O2118545   0.961   4.831   6.808 -0.3244  0.3016 -0.6585
  165SAPE   C2118546   0.968   4.739   6.899  0.1782  0.1717 -0.2552
  165SAPE   O2218547   1.044   4.644   6.901  0.0209 -0.5621  0.8606
  165SAPE   C2218548   0.854   4.764   6.987  0.0859  0.3207  0.0207
  165SAPE   H2R18549   0.757   4.785   6.935  0.4318  2.6867  0.2096
  165SAPE   H2S18550   0.823   4.670   7.037  3.6421 -1.2410 -0.4609
  165SAPE    C318551   1.190   4.918   6.774  0.1573  0.0382 -0.5137
  165SAPE    HX18552   1.129   5.007   6.801  0.4320  0.0695 -0.0031
  165SAPE    HY18553   1.267   4.941   6.697  0.6070  2.8791  0.6746
  165SAPE   O3118554   1.239   4.857   6.898 -0.6120 -0.3351  0.2620
  165SAPE   C3118555   1.334   4.780   6.882 -0.4548 -0.2279 -0.0918
  165SAPE   O3218556   1.406   4.757   6.783  0.3157 -0.1928 -0.0739
  165SAPE   C3218557   1.361   4.712   7.022 -0.1399 -0.7157 -0.5223
  165SAPE   H2X18558   1.412   4.614   7.005 -0.1689 -0.5592 -1.6425
  165SAPE   H2Y18559   1.264   4.688   7.071 -1.8724  1.1309 -2.8333
  165SAPE   C2318560   0.867   4.875   7.092  0.1864 -0.6542 -0.2012
  165SAPE   H3R18561   0.774   4.887   7.151 -1.0977  3.1281 -2.6219
  165SAPE   H3S18562   0.881   4.967   7.031  1.2695 -1.4080 -1.1359
  165SAPE   C2418563   0.990   4.854   7.187  1.2161  0.3950 -0.2026
  165SAPE   H4R18564   0.998   4.941   7.255  0.2579  0.6638 -0.4095
  165SAPE   H4S18565   1.084   4.859   7.129 -0.3922 -0.3689 -3.0620
  165SAPE   C2518566   0.983   4.731   7.272 -0.6405  0.4002  0.2395
  165SAPE   H5R18567   0.986   4.640   7.211 -0.3735  0.5174  0.0738
  165SAPE   C2618568   0.979   4.727   7.410  0.6429  0.1489  0.2184
  165SAPE   H6R18569   0.979   4.632   7.466 -0.2853 -0.1128 -0.1954
  165SAPE   C2718570   0.970   4.850   7.505 -0.3397 -0.2845  0.1230
  165SAPE   H7R18571   0.903   4.923   7.456 -1.1546 -1.2366 -0.2195
  165SAPE   H7S18572   1.072   4.891   7.520  0.2792 -0.7283 -2.4953
  165SAPE   C2818573   0.918   4.831   7.644 -0.1638  0.7301 -0.1270
  165SAPE   H8R18574   0.819   4.878   7.659 -0.4974  1.2457 -3.1945
  165SAPE   C2918575   0.973   4.759   7.749  0.6601  0.5630  0.3684
  165SAPE   H9R18576   0.922   4.749   7.846  0.7635  2.4074  0.6413
  165SAPE  C21018577   1.105   4.690   7.750  0.6946 -0.2084  0.2217
  165SAPE  H10R18578   1.133   4.659   7.647 -0.3321 -0.4940  0.0149
  165SAPE  H10S18579   1.098   4.594   7.805  0.7684  0.5050  1.5149
  165SAPE  C21118580   1.221   4.775   7.785  0.4908 -0.5412 -0.2116
  165SAPE  H11R18581   1.270   4.836   7.708  1.6693 -0.4680  0.5624
  165SAPE  C21218582   1.288   4.780   7.908 -0.2209  0.3039  0.5270
  165SAPE  H12R18583   1.381   4.838   7.915  1.5107 -2.2169 -0.0765
  165SAPE  C21318584   1.246   4.710   8.030  0.0599 -0.0928 -0.2222
  165SAPE  H13R18585   1.321   4.733   8.108 -1.7368 -0.1631  1.6187
  165SAPE  H13S18586   1.254   4.601   8.010  0.0564 -0.3795  1.2036
  165SAPE  C21418587   1.107   4.734   8.090 -0.4555 -1.1534 -0.3179
  165SAPE  H14R18588   1.029   4.723   8.013 -0.9802 -3.5038  0.4623
  165SAPE  C21518589   1.072   4.757   8.219  1.0779  0.1838  0.2517
  165SAPE  H15R18590   0.966   4.770   8.248  1.2218 -1.6815  1.8194
  165SAPE  C21618591   1.160   4.763   8.338 -0.1330  0.1096 -0.0545
  165SAPE  H16R18592   1.250   4.827   8.328 -0.9476  0.9656 -2.5014
  165SAPE  H16S18593   1.193   4.659   8.361 -2.4762 -0.1453  2.6860
  165SAPE  C21718594   1.095   4.815   8.465  0.0134  0.2487  0.4768
  165SAPE  H17R18595   1.157   4.807   8.557  1.6514 -0.4670 -0.6426
  165SAPE  H17S18596   1.009   4.748   8.486 -0.9495  0.5633 -2.1571
  165SAPE  C21818597   1.050   4.965   8.456 -0.7158 -0.3961  0.3968
  165SAPE  H18R18598   1.007   4.982   8.557  0.3583  1.2372  0.6187
  165SAPE  H18S18599   0.980   4.984   8.372  0.2053 -0.3737 -0.3859
  165SAPE  C21918600   1.170   5.065   8.451  0.5382  0.7754  0.4403
  165SAPE  H19R18601   1.200   5.083   8.345 -2.0646  1.6875 -0.2250
  165SAPE  H19S18602   1.257   5.016   8.499 -0.3978  0.3689  1.7754
  165SAPE  C22018603   1.137   5.198   8.522 -0.0319 -0.4421 -0.2982
  165SAPE  H20R18604   1.218   5.275   8.524 -1.9684  1.7522 -1.3874
  165SAPE  H20S18605   1.096   5.181   8.624 -0.8201 -2.8746 -0.9523
  165SAPE  H20T18606   1.050   5.248   8.474  0.0972 -1.0285 -1.1755
  165SAPE   C3318607   1.442   4.800   7.117  0.7876 -0.0127 -0.4279
  165SAPE   H3X18608   1.381   4.891   7.135  0.8051 -0.4076  1.8804
  165SAPE   H3Y18609   1.540   4.831   7.075  1.6114  0.1531  1.5322
  165SAPE   C3418610   1.463   4.727   7.252 -0.3018  0.5417 -0.4422
  165SAPE   H4X18611   1.539   4.647   7.235  0.1955  0.2959  2.4227
  165SAPE   H4Y18612   1.372   4.679   7.293  0.6105 -0.4927  0.4475
  165SAPE   C3518613   1.507   4.820   7.366 -0.9045  0.5825 -0.1577
  165SAPE   H5X18614   1.422   4.886   7.392 -0.3124  1.3438 -0.1335
  165SAPE   H5Y18615   1.595   4.885   7.349  0.0421 -0.5803  0.0985
  165SAPE   C3618616   1.552   4.732   7.486  0.7648 -0.3367 -0.4600
  165SAPE   H6X18617   1.640   4.673   7.453  3.6427  2.0360  2.3622
  165SAPE   H6Y18618   1.466   4.669   7.518  0.4353  0.0063 -0.6543
  165SAPE   C3718619   1.594   4.808   7.612 -0.0002  0.9673 -0.5725
  165SAPE   H7X18620   1.503   4.863   7.646 -0.2066  0.3105 -0.0183
  165SAPE   H7Y18621   1.683   4.872   7.594 -0.7233  1.8515 -1.1019
  165SAPE   C3818622   1.611   4.699   7.732 -0.4181  0.4188  0.5936
  165SAPE   H8X18623   1.683   4.618   7.709 -0.8486  0.5362 -1.3718
  165SAPE   H8Y18624   1.511   4.649   7.738 -0.7437  0.8039 -1.1473
  165SAPE   C3918625   1.648   4.763   7.866 -0.4101  0.2288  0.2027
  165SAPE   H9X18626   1.585   4.854   7.871 -2.4118 -1.1555  1.8927
  165SAPE   H9Y18627   1.753   4.799   7.865 -0.5013  0.7815  2.6944
  165SAPE  C31018628   1.630   4.672   7.990  0.3939  0.4458 -0.0252
  165SAPE  H10X18629   1.708   4.593   7.998  0.1621  0.0230 -1.5804
  165SAPE  H10Y18630   1.529   4.626   7.981  0.5788  0.2517 -1.3312
  165SAPE  C31118631   1.625   4.757   8.114 -0.4567  0.2598  0.1840
  165SAPE  H11X18632   1.556   4.841   8.093 -1.1328 -0.9593 -3.0645
  165SAPE  H11Y18633   1.727   4.800   8.128 -0.6932  0.3935  1.6915
  165SAPE  C31218634   1.579   4.674   8.238  0.1857 -0.2397  1.2746
  165SAPE  H12X18635   1.652   4.593   8.261  0.3369  0.2462  2.6037
  165SAPE  H12Y18636   1.483   4.631   8.205  1.0303 -2.4476  1.5097
  165SAPE  C31318637   1.557   4.767   8.356 -0.4520  0.1842  0.3131
  165SAPE  H13X18638   1.515   4.705   8.438  1.7569 -3.4055 -1.0115
  165SAPE  H13Y18639   1.484   4.845   8.326 -2.2160 -1.2490  0.7227
  165SAPE  C31418640   1.678   4.822   8.426 -0.0150  0.3289 -0.0592
  165SAPE  H14X18641   1.771   4.831   8.366  0.2340 -1.7011 -0.0200
  165SAPE  H14Y18642   1.717   4.755   8.506 -0.0149 -1.0972 -1.2197
  165SAPE  C31518643   1.641   4.955   8.501 -0.1286 -0.4130 -0.3524
  165SAPE  H15X18644   1.544   4.943   8.554  0.6611 -0.7317  1.0882
  165SAPE  H15Y18645   1.635   5.039   8.429 -0.8379  1.6200  1.9470
  165SAPE  C31618646   1.747   4.996   8.599  0.3250 -0.1849  0.4720
  165SAPE  H16X18647   1.846   4.998   8.548  1.0730  0.6309  1.8798
  165SAPE  H16Y18648   1.744   4.935   8.691 -3.1692  0.2067  0.7479
  165SAPE  C31718649   1.727   5.135   8.657 -0.0571  0.5805 -0.8057
  165SAPE  H17X18650   1.626   5.135   8.703  0.3887  0.5710  0.2022
  165SAPE  H17Y18651   1.728   5.214   8.579 -0.4634  0.4689 -0.9273
  165SAPE  C31818652   1.828   5.162   8.769 -0.9345 -0.1024 -0.7752
  165SAPE  H18X18653   1.828   5.268   8.803  0.2372 -0.2794 -0.1537
  165SAPE  H18Y18654   1.930   5.127   8.743  0.4665  1.6404  1.9365
  165SAPE  H18Z18655   1.805   5.117   8.868 -0.2070  6.3588  2.9142
  166SAPE     N18656   1.485   0.034   5.783  0.0831  0.0867 -0.4655
  166SAPE   HN118657   1.500   0.124   5.732  0.0014 -0.5119 -1.5644
  166SAPE   HN218658   1.518   0.029   5.881  1.6677 -0.4068 -0.9791
  166SAPE   HN318659   1.534  -0.045   5.737  0.3423  0.8110 -1.4727
  166SAPE   C1218660   1.346  -0.028   5.792  0.3510 -0.3394  0.5649
  166SAPE  H12A18661   1.355  -0.129   5.837 -3.6875 -0.4552  1.5431
  166SAPE  H12B18662   1.292  -0.039   5.696 -1.1120 -0.9877  1.4209
  166SAPE   C1118663   1.244   0.053   5.892 -0.5082  0.3562 -0.4942
  166SAPE  H11A18664   1.143   0.008   5.881 -0.7142  0.2990  1.3305
  166SAPE  H11B18665   1.242   0.161   5.870  0.0804  0.5400  0.2906
  166SAPE     P18666   1.247  -0.073   6.120  0.0644 -0.1229 -0.5022
  166SAPE   O1318667   1.096  -0.064   6.134  0.2323 -0.9948  0.0093
  166SAPE   O1418668   1.296  -0.204   6.072  0.1698  0.2842 -0.2986
  166SAPE   O1218669   1.298   0.040   6.026  0.7264  0.4815  0.2970
  166SAPE   O1118670   1.316  -0.032   6.250 -0.0540 -0.2680  0.0104
  166SAPE    C118671   1.444  -0.087   6.285  0.0245  0.0150  0.7223
  166SAPE    HA18672   1.497  -0.111   6.191 -1.0065  0.7170 -0.0560
  166SAPE    HB18673   1.502  -0.014   6.346 -0.4861 -1.5624  3.2351
  166SAPE    C218674   1.416  -0.216   6.370 -0.5702  0.5110  0.0118
  166SAPE    HS18675   1.350  -0.289   6.318 -0.7867 -0.9400  2.1834
  166SAPE   O2118676   1.347  -0.177   6.493 -0.2716  0.0718 -0.0948
  166SAPE   C2118677   1.310  -0.280   6.569  0.4629  0.5135  0.4423
  166SAPE   O2218678   1.307  -0.395   6.525  0.3097 -0.0051 -0.2808
  166SAPE   C2218679   1.255  -0.227   6.702  0.1129  0.0877 -0.1237
  166SAPE   H2R18680   1.342  -0.189   6.759 -0.8754  1.9141  0.2351
  166SAPE   H2S18681   1.184  -0.146   6.674 -1.2863 -1.0103  0.1281
  166SAPE    C318682   1.559  -0.287   6.397 -0.2975 -0.2991  0.7410
  166SAPE    HX18683   1.598  -0.331   6.303  0.0530  0.9328  0.2840
  166SAPE    HY18684   1.546  -0.377   6.461  0.3942 -1.1612 -0.2982
  166SAPE   O3118685   1.657  -0.188   6.441  0.3577  0.2663 -1.0796
  166SAPE   C3118686   1.678  -0.196   6.577  0.0300  0.2193 -0.0104
  166SAPE   O3218687   1.659  -0.297   6.643 -0.0738 -0.2107 -0.6089
  166SAPE   C3218688   1.733  -0.057   6.626 -0.9957  0.0284  0.1412
  166SAPE   H2X18689   1.650   0.011   6.599 -2.2437 -1.9629 -1.2876
  166SAPE   H2Y18690   1.816  -0.027   6.558 -1.7941 -3.1166 -2.4397
  166SAPE   C2318691   1.180  -0.342   6.778  0.1521  0.1386  0.0871
  166SAPE   H3R18692   1.253  -0.424   6.791  0.4371  0.6732  2.2887
  166SAPE   H3S18693   1.100  -0.378   6.710 -0.1421  0.2345  0.3820
  166SAPE   C2418694   1.113  -0.290   6.902  0.3600 -0.3984 -0.2467
  166SAPE   H4R18695   1.048  -0.364   6.953  0.9896 -0.0744  1.1020
  166SAPE   H4S18696   1.047  -0.207   6.869 -2.2969 -3.2761 -2.7151
  166SAPE   C2518697   1.212  -0.231   7.003 -1.1041  0.3406 -0.0683
  166SAPE   H5R18698   1.281  -0.160   6.954 -1.9865  1.4355  0.2436
  166SAPE   C2618699   1.232  -0.245   7.137  0.0058  0.0682  0.1991
  166SAPE   H6R18700   1.314  -0.191   7.186 -1.2050  1.9444  0.2822
  166SAPE   C2718701   1.156  -0.346   7.224  1.0763  0.1159  0.5286
  166SAPE   H7R18702   1.106  -0.418   7.156  2.3823 -0.5242  0.2223
  166SAPE   H7S18703   1.073  -0.288   7.270  0.1560  0.7442 -1.8098
  166SAPE   C2818704   1.260  -0.405   7.314  0.4331  0.1783  0.1981
  166SAPE   H8R18705   1.351  -0.435   7.259 -0.6438  0.2143 -1.6937
  166SAPE   C2918706   1.262  -0.420   7.448 -0.1614  0.1296  0.5226
  166SAPE   H9R18707   1.351  -0.470   7.488 -0.9690 -1.6841  0.1715
  166SAPE  C21018708   1.154  -0.374   7.545  0.1136 -0.2295  0.0617
  166SAPE  H10R18709   1.052  -0.376   7.500  0.7197 -2.2897 -1.4008
  166SAPE  H10S18710   1.174  -0.265   7.554  0.0578 -0.0062 -1.9580
  166SAPE  C21118711   1.157  -0.432   7.684  0.0812 -0.2313 -0.1623
  166SAPE  H11R18712   1.232  -0.512   7.694 -1.7176 -2.0154 -0.2742
  166SAPE  C21218713   1.066  -0.426   7.777 -0.2612  0.3813  0.4782
  166SAPE  H12R18714   1.096  -0.465   7.875  1.2281 -0.6257 -0.3385
  166SAPE  C21318715   0.938  -0.345   7.767 -0.3725 -0.2227  0.5624
  166SAPE  H13R18716   0.944  -0.272   7.683 -1.4362 -0.6853  0.0496
  166SAPE  H13S18717   0.948  -0.279   7.855  1.7060  0.2454  0.0341
  166SAPE  C21418718   0.811  -0.418   7.765 -0.3921  0.8492  0.0315
  166SAPE  H14R18719   0.765  -0.439   7.863 -2.2646  2.1799 -0.5356
  166SAPE  C21518720   0.750  -0.459   7.653  0.9108 -0.2817  0.2062
  166SAPE  H15R18721   0.662  -0.524   7.663  1.5907 -1.2951 -0.3534
  166SAPE  C21618722   0.790  -0.431   7.510 -0.1559 -0.4119 -0.3583
  166SAPE  H16R18723   0.856  -0.511   7.471 -1.3841 -2.3526  1.3322
  166SAPE  H16S18724   0.851  -0.340   7.495  2.5688 -2.2474 -1.1164
  166SAPE  C21718725   0.670  -0.428   7.411 -0.1967  0.8607 -0.7997
  166SAPE  H17R18726   0.587  -0.366   7.452 -2.6272 -1.9856 -1.1341
  166SAPE  H17S18727   0.640  -0.533   7.393 -0.7419  0.7245  0.7712
  166SAPE  C21818728   0.708  -0.383   7.270 -0.4837  0.0087 -0.1097
  166SAPE  H18R18729   0.795  -0.315   7.269  1.0071 -1.6492  3.2963
  166SAPE  H18S18730   0.621  -0.332   7.223 -0.0047 -0.1152 -1.1541
  166SAPE  C21918731   0.757  -0.496   7.185  0.4831 -0.3242  1.1177
  166SAPE  H19R18732   0.699  -0.589   7.199 -0.4310 -0.1507 -1.2026
  166SAPE  H19S18733   0.855  -0.535   7.222  0.9960 -1.8977 -1.6186
  166SAPE  C22018734   0.756  -0.468   7.030 -0.0738 -0.6064  0.1214
  166SAPE  H20R18735   0.796  -0.550   6.967 -0.5115  0.1494 -1.1875
  166SAPE  H20S18736   0.814  -0.375   7.013  1.9565 -1.6007  1.2661
  166SAPE  H20T18737   0.651  -0.446   6.997 -1.1000 -0.0751  3.4000
  166SAPE   C3318738   1.761  -0.063   6.783 -0.2244  0.7130 -0.8173
  166SAPE   H3X18739   1.825  -0.147   6.817  0.6453  1.9190  0.6541
  166SAPE   H3Y18740   1.662  -0.070   6.834  0.6177  1.2569  0.9786
  166SAPE   C3418741   1.821   0.063   6.841  0.1948  0.5374 -0.0212
  166SAPE   H4X18742   1.794   0.058   6.949 -0.2382  0.9320 -0.1116
  166SAPE   H4Y18743   1.775   0.152   6.793 -0.7901 -0.1423 -0.3790
  166SAPE   C3518744   1.972   0.082   6.811 -0.0912 -0.4499  0.3175
  166SAPE   H5X18745   2.002   0.187   6.827 -1.0829 -0.0045 -0.5907
  166SAPE   H5Y18746   1.983   0.065   6.701 -2.9656  0.3300 -0.1730
  166SAPE   C3618747   2.079   0.001   6.881  0.4406  0.0684  0.6144
  166SAPE   H6X18748   2.179   0.041   6.854  1.0158  0.5188  3.1663
  166SAPE   H6Y18749   2.071  -0.105   6.849  0.6961  0.6100 -1.4488
  166SAPE   C3718750   2.053   0.001   7.035  0.8172  0.3365  0.1122
  166SAPE   H7X18751   1.951  -0.036   7.058  0.3798  0.9522 -0.7904
  166SAPE   H7Y18752   2.058   0.107   7.068 -1.3456  0.5988 -0.2597
  166SAPE   C3818753   2.157  -0.092   7.105  0.4010 -0.3611  0.6166
  166SAPE   H8X18754   2.254  -0.076   7.053  1.3657 -2.5269  1.6145
  166SAPE   H8Y18755   2.119  -0.194   7.085 -0.4112 -0.1111  0.8419
  166SAPE   C3918756   2.175  -0.069   7.257  0.6759 -0.3021  0.9014
  166SAPE   H9X18757   2.073  -0.094   7.295 -0.1937 -0.0475 -1.1748
  166SAPE   H9Y18758   2.183   0.041   7.270  0.0490 -0.3090  1.4383
  166SAPE  C31018759   2.289  -0.150   7.304  0.4051 -0.3139 -0.0401
  166SAPE  H10X18760   2.389  -0.103   7.286  0.1774 -0.6413 -2.4248
  166SAPE  H10Y18761   2.287  -0.241   7.241  0.3369  1.2475 -2.3995
  166SAPE  C31118762   2.284  -0.189   7.453  1.0171 -0.3265  0.3660
  166SAPE  H11X18763   2.204  -0.266   7.457  0.3297  0.4096  3.3444
  166SAPE  H11Y18764   2.263  -0.101   7.517 -0.8244 -0.9602  0.7061
  166SAPE  C31218765   2.407  -0.256   7.514 -0.2421  0.6151  0.2095
  166SAPE  H12X18766   2.496  -0.221   7.458  0.0859 -2.7464 -1.5997
  166SAPE  H12Y18767   2.394  -0.362   7.483 -2.8879  0.4596  1.5447
  166SAPE  C31318768   2.429  -0.245   7.666  0.6213  0.0399  0.1992
  166SAPE  H13X18769   2.428  -0.135   7.682 -0.9112  0.3631 -1.6149
  166SAPE  H13Y18770   2.527  -0.290   7.693  0.8038  0.1560 -0.2561
  166SAPE  C31418771   2.312  -0.306   7.751  0.3918 -0.0890 -0.6925
  166SAPE  H14X18772   2.303  -0.416   7.732  0.6483 -0.4370  1.0870
  166SAPE  H14Y18773   2.211  -0.270   7.725  0.2934  2.1799  2.3871
  166SAPE  C31518774   2.344  -0.286   7.901  0.5470  0.4637 -0.6860
  166SAPE  H15X18775   2.425  -0.351   7.939 -1.3961 -1.0359  1.1261
  166SAPE  H15Y18776   2.256  -0.332   7.950  0.6268  1.2727  0.2409
  166SAPE  C31618777   2.366  -0.145   7.952 -0.0081 -0.3010 -0.1751
  166SAPE  H16X18778   2.313  -0.080   7.879 -0.6778 -1.2806 -0.5833
  166SAPE  H16Y18779   2.475  -0.120   7.947  0.0373 -0.2505  0.8316
  166SAPE  C31718780   2.322  -0.122   8.091 -0.1165  0.5629  0.5171
  166SAPE  H17X18781   2.211  -0.121   8.087 -0.1437 -1.1062  0.1592
  166SAPE  H17Y18782   2.344  -0.021   8.131  0.1349  0.9843 -0.6584
  166SAPE  C31818783   2.366  -0.231   8.197  0.7925  0.6052  0.5286
  166SAPE  H18X18784   2.286  -0.308   8.204  2.0042 -0.6336  1.3320
  166SAPE  H18Y18785   2.381  -0.183   8.295 -0.9807  1.7583  0.2905
  166SAPE  H18Z18786   2.460  -0.282   8.167  0.4121 -0.2927  0.8187
  167SAPE     N18787   3.215   1.177   6.419  0.2994  0.5175 -0.3912
  167SAPE   HN118788   3.241   1.125   6.332 -1.5595 -1.7661  0.2966
  167SAPE   HN218789   3.183   1.273   6.395 -0.4406  0.4661  0.3425
  167SAPE   HN318790   3.291   1.183   6.489  0.2184  0.2606 -0.2784
  167SAPE   C1218791   3.104   1.097   6.481 -0.5785  0.0242 -0.0458
  167SAPE  H12A18792   3.153   0.997   6.483 -2.3194 -0.8885 -1.1127
  167SAPE  H12B18793   3.026   1.085   6.403 -0.4929  0.8753 -0.2750
  167SAPE   C1118794   3.055   1.158   6.617  0.6312  0.4339  0.6645
  167SAPE  H11A18795   3.141   1.162   6.686  0.6606  2.1631  0.5726
  167SAPE  H11B18796   2.980   1.091   6.663  2.2560 -2.1428 -0.2276
  167SAPE     P18797   2.854   1.322   6.548 -0.2024 -0.1895 -0.1734
  167SAPE   O1318798   2.839   1.472   6.536 -0.2847  0.2342  0.0792
  167SAPE   O1418799   2.819   1.239   6.431 -0.4259 -0.0968  0.0488
  167SAPE   O1218800   3.007   1.289   6.590  0.4508  0.6108  0.2706
  167SAPE   O1118801   2.753   1.280   6.666  0.0015 -0.1192 -0.3042
  167SAPE    C118802   2.716   1.362   6.770  0.0299  0.4161  0.1505
  167SAPE    HA18803   2.705   1.469   6.740  1.9073  0.4760 -0.5108
  167SAPE    HB18804   2.617   1.324   6.802  1.1892 -2.0308  1.0590
  167SAPE    C218805   2.814   1.362   6.897 -0.0351  0.2122 -0.2266
  167SAPE    HS18806   2.910   1.398   6.852 -0.6059  1.3991 -0.5402
  167SAPE   O2118807   2.819   1.227   6.938 -0.3836  0.2045  0.1611
  167SAPE   C2118808   2.934   1.189   6.998  0.2312 -0.4155  0.1088
  167SAPE   O2218809   3.031   1.269   7.007  0.3761  0.0795 -0.4373
  167SAPE   C2218810   2.911   1.058   7.069 -0.9332  0.1189  0.6551
  167SAPE   H2R18811   2.811   1.012   7.063 -0.5131 -0.6853 -0.4432
  167SAPE   H2S18812   2.976   0.988   7.013 -0.5559 -0.5137  1.8431
  167SAPE    C318813   2.770   1.452   7.010 -0.2448  0.2306 -0.7369
  167SAPE    HX18814   2.678   1.407   7.052 -1.0740  2.1722 -0.3474
  167SAPE    HY18815   2.730   1.547   6.969  0.0319  0.6636 -0.0238
  167SAPE   O3118816   2.874   1.468   7.116 -0.1018 -0.0696 -0.6942
  167SAPE   C3118817   2.942   1.575   7.084 -0.4626  0.1587 -0.8599
  167SAPE   O3218818   2.945   1.632   6.974 -0.2135  0.3788  0.1272
  167SAPE   C3218819   3.020   1.603   7.206  1.1586  0.3557  0.0281
  167SAPE   H2X18820   2.956   1.571   7.290 -0.0565  1.4882 -0.4317
  167SAPE   H2Y18821   3.021   1.715   7.208  0.9047  0.3810 -0.8688
  167SAPE   C2318822   2.989   1.050   7.208 -0.5326 -0.1508 -0.2219
  167SAPE   H3R18823   3.092   1.088   7.189 -0.0390 -0.3339  1.8418
  167SAPE   H3S18824   3.005   0.944   7.236 -0.4982 -0.6755 -2.0885
  167SAPE   C2418825   2.928   1.123   7.327  0.1179 -0.2160  0.9390
  167SAPE   H4R18826   2.843   1.062   7.363 -2.8871  2.1224 -1.6394
  167SAPE   H4S18827   2.892   1.224   7.301  1.4687 -0.0981 -0.6547
  167SAPE   C2518828   3.025   1.152   7.439  0.6549 -0.2319 -0.9948
  167SAPE   H5R18829   3.117   1.206   7.411  1.5255 -1.3184 -0.3237
  167SAPE   C2618830   2.991   1.133   7.567 -0.1940  0.8933 -0.7342
  167SAPE   H6R18831   3.073   1.152   7.638 -0.5414 -0.3598  0.0305
  167SAPE   C2718832   2.863   1.086   7.632 -0.5202 -1.0227  0.6832
  167SAPE   H7R18833   2.888   0.991   7.683  3.7617 -0.5628 -0.1075
  167SAPE   H7S18834   2.790   1.075   7.549 -0.5693  0.3108  0.5159
  167SAPE   C2818835   2.810   1.188   7.720 -0.1035  0.6667  0.6885
  167SAPE   H8R18836   2.735   1.251   7.669  0.1915  0.3754 -0.1191
  167SAPE   C2918837   2.844   1.195   7.851 -0.0697 -0.6608 -0.1670
  167SAPE   H9R18838   2.785   1.268   7.909  0.0277  0.2065 -1.1196
  167SAPE  C21018839   2.946   1.114   7.927 -0.4796  0.2210 -0.2733
  167SAPE  H10R18840   2.992   1.160   8.018 -2.0023 -0.1405  0.7119
  167SAPE  H10S18841   3.031   1.095   7.857 -0.4797 -1.3358  0.1035
  167SAPE  C21118842   2.881   0.988   7.972  0.4368  0.0233  0.3595
  167SAPE  H11R18843   2.843   0.927   7.889  0.9916  0.8697 -0.5446
  167SAPE  C21218844   2.894   0.930   8.095 -0.1540  0.5260 -0.0140
  167SAPE  H12R18845   2.846   0.833   8.115  1.1916 -0.2632 -0.4409
  167SAPE  C21318846   2.973   0.978   8.212 -0.2967 -0.3079  0.0022
  167SAPE  H13R18847   3.039   1.057   8.171 -0.5047 -0.8010 -1.3342
  167SAPE  H13S18848   3.036   0.895   8.250  0.2292 -0.3647 -0.9701
  167SAPE  C21418849   2.884   1.033   8.320 -0.5070  0.9348  0.0175
  167SAPE  H14R18850   2.840   1.133   8.309 -2.3115  0.3103  1.0980
  167SAPE  C21518851   2.836   0.962   8.427  0.1192 -0.0696  0.9934
  167SAPE  H15R18852   2.766   1.010   8.497 -0.6873 -0.8190  0.7175
  167SAPE  C21618853   2.869   0.820   8.468  0.0037  0.0308  0.4189
  167SAPE  H16R18854   2.836   0.822   8.574  1.6370  3.3133  0.9781
  167SAPE  H16S18855   2.979   0.807   8.476  0.1336  0.9464  0.2178
  167SAPE  C21718856   2.810   0.708   8.380  0.1367 -0.1962 -0.3386
  167SAPE  H17R18857   2.871   0.617   8.399  0.4866  0.1534  0.2647
  167SAPE  H17S18858   2.821   0.733   8.273  0.0083  0.1345 -0.2751
  167SAPE  C21818859   2.662   0.673   8.394  0.2601  0.0070 -0.1818
  167SAPE  H18R18860   2.596   0.756   8.361 -0.9772  0.9713  4.0565
  167SAPE  H18S18861   2.638   0.647   8.500  1.0158  1.4512  0.3749
  167SAPE  C21918862   2.639   0.551   8.305  0.8631 -0.0889 -0.2248
  167SAPE  H19R18863   2.711   0.471   8.333  0.1679 -1.3566 -1.8768
  167SAPE  H19S18864   2.653   0.573   8.197 -0.2135 -0.0969 -0.3712
  167SAPE  C22018865   2.503   0.473   8.327 -0.0979 -0.3722 -0.1865
  167SAPE  H20R18866   2.513   0.368   8.291  0.4182 -0.3274 -0.1920
  167SAPE  H20S18867   2.427   0.532   8.273  1.2943  1.3257 -0.3691
  167SAPE  H20T18868   2.480   0.480   8.436  0.8157 -1.0778  0.0674
  167SAPE   C3318869   3.157   1.537   7.200 -0.0174  0.1539 -0.1183
  167SAPE   H3X18870   3.208   1.582   7.112 -2.1016  0.2867 -1.3407
  167SAPE   H3Y18871   3.136   1.429   7.182 -0.1767  0.3900 -1.4580
  167SAPE   C3418872   3.234   1.553   7.328 -0.1334 -0.4590  0.3352
  167SAPE   H4X18873   3.268   1.658   7.336 -0.7914 -0.0900 -1.2811
  167SAPE   H4Y18874   3.319   1.488   7.299 -0.0091  0.2647 -0.9986
  167SAPE   C3518875   3.174   1.502   7.457  0.8671  0.8162  0.3851
  167SAPE   H5X18876   3.137   1.400   7.433  0.5916  1.3517 -1.7052
  167SAPE   H5Y18877   3.075   1.551   7.469 -1.5373 -3.1608 -1.0582
  167SAPE   C3618878   3.255   1.513   7.582  0.3280 -0.1068  0.3514
  167SAPE   H6X18879   3.283   1.616   7.615 -0.6843  0.4806 -0.5358
  167SAPE   H6Y18880   3.344   1.452   7.558 -0.1290 -0.2360 -1.1305
  167SAPE   C3718881   3.206   1.438   7.710  0.5439  0.5684  0.1514
  167SAPE   H7X18882   3.167   1.338   7.679  2.3165  0.8719 -3.6897
  167SAPE   H7Y18883   3.127   1.504   7.751  0.5177  1.4869 -1.2961
  167SAPE   C3818884   3.314   1.398   7.816 -0.2606  0.2994  0.7247
  167SAPE   H8X18885   3.368   1.490   7.846 -0.3694  1.0925 -1.3062
  167SAPE   H8Y18886   3.386   1.326   7.771 -3.3100 -2.3215 -0.4674
  167SAPE   C3918887   3.252   1.335   7.943 -0.9172 -0.1054  0.6659
  167SAPE   H9X18888   3.327   1.347   8.024  1.3952  2.5585 -1.6598
  167SAPE   H9Y18889   3.211   1.232   7.943 -0.6932 -0.2119  2.0906
  167SAPE  C31018890   3.145   1.419   8.005  0.8644 -0.4931 -0.3175
  167SAPE  H10X18891   3.058   1.400   7.938  0.5768 -1.9987  0.4232
  167SAPE  H10Y18892   3.172   1.525   7.988 -1.4008 -0.2465 -2.9498
  167SAPE  C31118893   3.103   1.392   8.148 -0.2798  0.5296 -0.2525
  167SAPE  H11X18894   3.174   1.440   8.219  1.2270 -0.5345 -1.0014
  167SAPE  H11Y18895   3.105   1.282   8.155  0.0887  0.3916 -1.9521
  167SAPE  C31218896   2.968   1.441   8.190 -0.7391 -0.1027 -0.5819
  167SAPE  H12X18897   2.894   1.399   8.119 -1.4204  1.0003 -0.5511
  167SAPE  H12Y18898   2.974   1.551   8.173  1.7359  0.0849  1.0355
  167SAPE  C31318899   2.935   1.416   8.342  0.1744  0.0252  1.0649
  167SAPE  H13X18900   2.950   1.307   8.358 -1.0741 -0.1017  1.4740
  167SAPE  H13Y18901   2.827   1.432   8.364  0.3114  1.9977  0.4604
  167SAPE  C31418902   3.008   1.495   8.451 -0.1721 -0.2073 -0.4563
  167SAPE  H14X18903   3.000   1.605   8.435  0.0221 -0.2198 -0.6375
  167SAPE  H14Y18904   3.118   1.479   8.447 -0.4832 -2.3282 -2.1749
  167SAPE  C31518905   2.947   1.468   8.588  0.4269 -0.2189 -0.1968
  167SAPE  H15X18906   2.839   1.490   8.572  0.2833 -1.7758 -1.7587
  167SAPE  H15Y18907   2.983   1.537   8.667  1.2280 -0.6819 -0.1552
  167SAPE  C31618908   2.938   1.322   8.640  0.0477 -0.1095  0.4802
  167SAPE  H16X18909   3.036   1.305   8.689 -0.0362  1.7033  1.3738
  167SAPE  H16Y18910   2.917   1.258   8.551  2.2908 -2.4534  1.5289
  167SAPE  C31718911   2.822   1.294   8.735  0.0629 -0.3839 -0.2936
  167SAPE  H17X18912   2.726   1.317   8.683  0.0318  0.4775  0.1198
  167SAPE  H17Y18913   2.845   1.363   8.819 -0.4422 -1.3253  0.6337
  167SAPE  C31818914   2.830   1.148   8.780  0.0244 -0.6730  0.1966
  167SAPE  H18X18915   2.743   1.119   8.842 -1.8282  1.8525 -1.0064
  167SAPE  H18Y18916   2.924   1.135   8.838 -0.8295  3.9417  3.1309
  167SAPE  H18Z18917   2.833   1.080   8.692  0.0988  0.7789 -0.9789
  168SAPE     N18918   2.822   1.032   6.248  0.0965  0.1234 -0.3977
  168SAPE   HN118919   2.839   1.080   6.157 -2.4814  0.5629 -0.7220
  168SAPE   HN218920   2.814   1.107   6.319 -2.1034 -0.4012 -0.0073
  168SAPE   HN318921   2.903   0.976   6.282 -0.7160 -0.1010  1.3106
  168SAPE   C1218922   2.688   0.960   6.244 -0.6000  0.0653  0.9931
  168SAPE  H12A18923   2.703   0.872   6.178 -0.3612  0.5566  0.3811
  168SAPE  H12B18924   2.610   1.033   6.211  0.1568  1.6842  2.5970
  168SAPE   C1118925   2.635   0.904   6.381 -0.0655  0.5641 -0.1663
  168SAPE  H11A18926   2.525   0.887   6.376 -0.0199  0.2985 -0.3046
  168SAPE  H11B18927   2.645   0.982   6.459  0.1330  0.9917 -0.6168
  168SAPE     P18928   2.806   0.786   6.525 -0.0886  0.2354 -0.2575
  168SAPE   O1318929   2.871   0.657   6.549 -0.0827 -0.0088  0.7915
  168SAPE   O1418930   2.886   0.905   6.501 -0.1982  0.4226 -0.7906
  168SAPE   O1218931   2.697   0.777   6.419 -0.5928  0.7334  0.0388
  168SAPE   O1118932   2.713   0.805   6.657  0.2635 -0.4341 -0.5712
  168SAPE    C118933   2.619   0.702   6.685  0.2833 -0.1525 -0.3707
  168SAPE    HA18934   2.523   0.749   6.656  0.1888  0.0763  0.3154
  168SAPE    HB18935   2.623   0.610   6.623  0.1223  0.7946 -1.8383
  168SAPE    C218936   2.626   0.673   6.835 -0.2654  0.2679  0.3802
  168SAPE    HS18937   2.558   0.591   6.868  0.7206 -1.5884 -1.8966
  168SAPE   O2118938   2.608   0.790   6.916 -0.3974  0.5868  0.1417
  168SAPE   C2118939   2.489   0.857   6.918  0.4760  0.1609  0.2491
  168SAPE   O2218940   2.391   0.831   6.847  0.5608 -0.3051 -0.1200
  168SAPE   C2218941   2.502   0.963   7.028 -0.5354 -0.6155 -0.4310
  168SAPE   H2R18942   2.577   0.930   7.104  0.9784  1.0175 -1.1407
  168SAPE   H2S18943   2.530   1.062   6.986 -0.8678 -0.4191 -0.1921
  168SAPE    C318944   2.764   0.608   6.867 -0.1789  0.4053  0.8543
  168SAPE    HX18945   2.848   0.666   6.822 -0.4554 -0.1373 -0.3964
  168SAPE    HY18946   2.769   0.511   6.813 -1.0674 -0.1781  1.7854
  168SAPE   O3118947   2.784   0.582   7.010 -0.0367  0.0255 -0.0664
  168SAPE   C3118948   2.883   0.653   7.070  0.1071  0.2791 -0.2499
  168SAPE   O3218949   2.965   0.722   7.014  0.3850  0.5493 -0.5642
  168SAPE   C3218950   2.853   0.664   7.215 -0.3444  0.3782 -0.0291
  168SAPE   H2X18951   2.859   0.768   7.252  0.0138  0.5286 -0.5040
  168SAPE   H2Y18952   2.919   0.603   7.280  0.1178  0.8305 -0.0671
  168SAPE   C2318953   2.385   0.990   7.119  0.6255  0.0335 -0.0250
  168SAPE   H3R18954   2.359   0.898   7.176  1.4127 -0.9375 -1.1986
  168SAPE   H3S18955   2.301   1.014   7.050  0.3682 -2.8524 -0.8402
  168SAPE   C2418956   2.403   1.124   7.207  0.2310  0.5497  0.1764
  168SAPE   H4R18957   2.297   1.143   7.235 -1.1512 -3.3777 -1.5516
  168SAPE   H4S18958   2.437   1.208   7.144  2.5593  0.1411  0.7803
  168SAPE   C2518959   2.500   1.125   7.321 -0.9731  0.3656 -0.5546
  168SAPE   H5R18960   2.608   1.128   7.306 -0.9177  1.9446  0.0310
  168SAPE   C2618961   2.467   1.126   7.453  0.4844  0.6528  0.5671
  168SAPE   H6R18962   2.552   1.139   7.522  1.1042 -0.0697 -0.0342
  168SAPE   C2718963   2.333   1.127   7.521  0.3217  0.6953  0.5070
  168SAPE   H7R18964   2.339   1.040   7.590  0.4662 -0.5677 -1.0409
  168SAPE   H7S18965   2.246   1.117   7.453  0.1878 -1.8598  0.9518
  168SAPE   C2818966   2.320   1.257   7.591 -0.3232 -1.0638 -0.2920
  168SAPE   H8R18967   2.284   1.348   7.540 -0.9784  0.1034  2.1328
  168SAPE   C2918968   2.345   1.281   7.716 -0.5995  0.9177 -0.3652
  168SAPE   H9R18969   2.316   1.380   7.753  1.3812  1.5357 -0.3610
  168SAPE  C21018970   2.402   1.192   7.831  0.1896  0.3923  0.2005
  168SAPE  H10R18971   2.493   1.246   7.864 -0.4181  2.8427 -1.7669
  168SAPE  H10S18972   2.428   1.089   7.797 -3.1203 -0.3214 -0.5124
  168SAPE  C21118973   2.300   1.156   7.941 -0.4178  0.5831  0.0343
  168SAPE  H11R18974   2.205   1.112   7.909 -3.0803  5.7587 -0.2721
  168SAPE  C21218975   2.313   1.160   8.078  0.1081 -0.2647 -0.4547
  168SAPE  H12R18976   2.231   1.140   8.147 -0.3883  1.1434 -0.6034
  168SAPE  C21318977   2.431   1.219   8.147 -0.2454  0.4304 -0.3343
  168SAPE  H13R18978   2.402   1.310   8.204  5.8913  1.4105  1.9522
  168SAPE  H13S18979   2.509   1.258   8.078  1.7931 -1.5342  0.7088
  168SAPE  C21418980   2.505   1.125   8.244 -0.6459 -0.3427  0.4246
  168SAPE  H14R18981   2.537   1.027   8.204  0.0007  0.2200 -0.4864
  168SAPE  C21518982   2.554   1.158   8.368  0.2491  0.1550 -0.1804
  168SAPE  H15R18983   2.597   1.076   8.428 -1.7786 -1.6650 -1.0717
  168SAPE  C21618984   2.543   1.292   8.434  0.3418 -0.0428  0.5143
  168SAPE  H16R18985   2.484   1.366   8.375  0.5888 -1.2255 -1.2985
  168SAPE  H16S18986   2.643   1.338   8.448 -0.0770  0.5299  1.7982
  168SAPE  C21718987   2.468   1.264   8.561  0.0491  1.0140 -0.2551
  168SAPE  H17R18988   2.540   1.231   8.640 -1.5235 -1.4007  0.2989
  168SAPE  H17S18989   2.392   1.184   8.544  0.0385  0.6896  1.1541
  168SAPE  C21818990   2.413   1.392   8.625  0.3735  0.2163 -0.1920
  168SAPE  H18R18991   2.327   1.436   8.569  1.0712  2.1401  0.1720
  168SAPE  H18S18992   2.491   1.471   8.621  1.2464 -0.6681 -1.3996
  168SAPE  C21918993   2.368   1.374   8.774 -0.6393 -0.5062 -0.4228
  168SAPE  H19R18994   2.336   1.474   8.812 -1.0071 -0.5826 -0.5212
  168SAPE  H19S18995   2.448   1.323   8.831 -0.3990  0.0023 -0.2996
  168SAPE  C22018996   2.238   1.294   8.779 -0.0575 -0.5345 -0.2938
  168SAPE  H20R18997   2.274   1.196   8.742  0.2035  0.2067 -2.0867
  168SAPE  H20S18998   2.167   1.331   8.702 -1.7012 -1.2913  0.7985
  168SAPE  H20T18999   2.195   1.289   8.882 -0.7846 -2.9304 -0.6601
  168SAPE   C3319000   2.709   0.623   7.262  0.0442 -0.3007  0.0209
  168SAPE   H3X19001   2.678   0.526   7.217  0.4207 -0.1831 -0.4931
  168SAPE   H3Y19002   2.640   0.702   7.222  3.5454  2.6894 -0.6630
  168SAPE   C3419003   2.681   0.609   7.410 -0.0373  0.8621 -0.3539
  168SAPE   H4X19004   2.757   0.547   7.461  0.6819  1.5187 -0.6109
  168SAPE   H4Y19005   2.575   0.575   7.414  0.1562  0.1194 -1.1187
  168SAPE   C3519006   2.682   0.734   7.492 -0.3213  0.2999  0.0429
  168SAPE   H5X19007   2.635   0.804   7.420 -2.0797 -2.4884 -1.7402
  168SAPE   H5Y19008   2.789   0.765   7.493  0.0669 -0.9535 -0.4109
  168SAPE   C3619009   2.615   0.713   7.633 -0.3060  0.4233 -0.2910
  168SAPE   H6X19010   2.649   0.624   7.690  0.9650  0.8102 -0.4310
  168SAPE   H6Y19011   2.506   0.702   7.613 -0.1864  1.6820 -1.8557
  168SAPE   C3719012   2.629   0.832   7.732  0.1380 -0.6314  0.2772
  168SAPE   H7X19013   2.577   0.923   7.694  1.3059 -0.0401  0.0583
  168SAPE   H7Y19014   2.733   0.869   7.745 -1.2406  3.7077  0.5895
  168SAPE   C3819015   2.570   0.799   7.863 -0.2569 -0.0285 -0.2119
  168SAPE   H8X19016   2.578   0.887   7.929  0.2385  0.9143 -1.4877
  168SAPE   H8Y19017   2.629   0.714   7.903  1.5831  0.2761 -2.0593
  168SAPE   C3919018   2.419   0.774   7.855  0.2931  0.1213 -0.3247
  168SAPE   H9X19019   2.402   0.677   7.805  1.5112 -0.2120 -0.1036
  168SAPE   H9Y19020   2.375   0.857   7.794 -1.4405 -0.6579 -0.1826
  168SAPE  C31019021   2.351   0.758   7.991  0.1063  0.3185 -0.1843
  168SAPE  H10X19022   2.375   0.847   8.054 -2.2300  0.0609  1.1622
  168SAPE  H10Y19023   2.392   0.668   8.041 -0.7326 -0.1741 -0.3759
  168SAPE  C31119024   2.201   0.744   7.976 -1.0186 -0.4574 -0.0868
  168SAPE  H11X19025   2.181   0.674   7.892  0.6281  0.3627 -1.2315
  168SAPE  H11Y19026   2.148   0.838   7.951  1.3486  0.2827 -2.8887
  168SAPE  C31219027   2.152   0.678   8.111  0.2334  0.2512  0.0880
  168SAPE  H12X19028   2.157   0.743   8.201 -3.6716  1.3252 -0.2933
  168SAPE  H12Y19029   2.219   0.593   8.136 -1.7259 -1.2507  0.4931
  168SAPE  C31319030   2.012   0.617   8.120 -0.5120 -0.5017 -0.1321
  168SAPE  H13X19031   2.003   0.542   8.038 -0.2920  1.4674 -2.0491
  168SAPE  H13Y19032   1.931   0.692   8.104 -0.5023 -0.4773 -0.0677
  168SAPE  C31419033   1.986   0.543   8.251  0.6850 -0.2612 -0.2438
  168SAPE  H14X19034   1.977   0.621   8.329  3.0615  1.4405 -1.5358
  168SAPE  H14Y19035   2.076   0.484   8.280 -0.1929 -1.2028  0.6845
  168SAPE  C31519036   1.855   0.458   8.224  0.4423 -0.8602  0.3707
  168SAPE  H15X19037   1.883   0.388   8.142  0.6941 -1.6880  1.1520
  168SAPE  H15Y19038   1.786   0.537   8.187  1.9354  1.3777  2.0986
  168SAPE  C31619039   1.791   0.385   8.344  0.1877  0.1792 -0.5341
  168SAPE  H16X19040   1.689   0.430   8.353  0.0139 -0.1037 -1.0617
  168SAPE  H16Y19041   1.863   0.393   8.429  1.7642 -2.0914 -1.5524
  168SAPE  C31719042   1.776   0.235   8.322 -0.1364  0.0982  0.0965
  168SAPE  H17X19043   1.751   0.187   8.419 -1.4813  0.9946  0.2146
  168SAPE  H17Y19044   1.875   0.190   8.300  0.7146  1.6911  0.5119
  168SAPE  C31819045   1.683   0.195   8.210  0.5148  0.2000 -0.1238
  168SAPE  H18X19046   1.581   0.240   8.216  1.6642  3.1276 -1.0846
  168SAPE  H18Y19047   1.664   0.085   8.206 -0.8958  0.3594  1.4112
  168SAPE  H18Z19048   1.728   0.232   8.115  1.7188 -1.4086 -0.2267
  169SAPE     N19049   1.974   4.870   6.116  0.5192  0.0009  0.2798
  169SAPE   HN119050   1.919   4.783   6.107  1.4417 -0.5148 -0.5454
  169SAPE   HN219051   1.961   4.910   6.021  2.5971  1.7539  0.6628
  169SAPE   HN319052   2.072   4.839   6.129 -0.0817 -2.6733 -0.9494
  169SAPE   C1219053   1.926   4.951   6.233  0.0642 -0.9366  0.8118
  169SAPE  H12A19054   1.816   4.937   6.245  0.2617 -1.9228  1.6005
  169SAPE  H12B19055   1.950   5.058   6.215 -1.9425 -0.6690 -0.6790
  169SAPE   C1119056   1.977   4.894   6.361 -0.4978 -0.5855  0.2902
  169SAPE  H11A19057   1.930   4.942   6.450  1.3252  2.2040 -0.1177
  169SAPE  H11B19058   2.080   4.935   6.359 -1.2382  1.4150  0.7501
  169SAPE     P19059   2.090   4.674   6.431  0.1914 -0.2662  0.3371
  169SAPE   O1319060   2.084   4.524   6.420 -0.1102 -0.3457  0.3956
  169SAPE   O1419061   2.217   4.731   6.384 -1.1875  0.0510 -0.3173
  169SAPE   O1219062   1.969   4.759   6.368 -0.1697  0.2486  0.3231
  169SAPE   O1119063   2.085   4.703   6.582 -0.6395 -0.2958  0.2233
  169SAPE    C119064   1.974   4.751   6.659 -0.1139  0.4301  0.5904
  169SAPE    HA19065   1.986   4.861   6.671  0.5629  0.3206  1.0313
  169SAPE    HB19066   1.877   4.716   6.619  0.1820  1.2465 -0.9096
  169SAPE    C219067   1.972   4.689   6.799 -0.0483  0.4875  0.3972
  169SAPE    HS19068   1.869   4.709   6.835 -0.3220 -0.1431 -0.0148
  169SAPE   O2119069   2.068   4.760   6.869 -0.2966  0.7777 -0.1061
  169SAPE   C2119070   2.032   4.877   6.941 -0.9265 -0.0468 -0.1546
  169SAPE   O2219071   1.922   4.920   6.936 -0.0683 -0.6408  0.0904
  169SAPE   C2219072   2.156   4.934   7.007  0.6421 -0.3409 -0.1005
  169SAPE   H2R19073   2.245   4.886   6.961 -0.1119 -0.5845 -1.3323
  169SAPE   H2S19074   2.173   5.039   6.976  0.8209 -0.2769  0.2057
  169SAPE    C319075   1.998   4.535   6.810 -0.1535 -0.0388 -1.2747
  169SAPE    HX19076   2.106   4.516   6.796 -0.3058 -0.8477 -1.4341
  169SAPE    HY19077   1.939   4.473   6.738 -1.2011 -1.6236  0.8153
  169SAPE   O3119078   1.968   4.491   6.942 -0.5428  0.1468 -0.3601
  169SAPE   C3119079   1.843   4.474   6.975 -0.0312  0.3379  0.5090
  169SAPE   O3219080   1.749   4.507   6.907 -0.6416 -0.4448 -0.0572
  169SAPE   C3219081   1.839   4.406   7.108 -0.5703  0.2611  0.7110
  169SAPE   H2X19082   1.930   4.433   7.165 -1.1555  0.6833  1.4724
  169SAPE   H2Y19083   1.835   4.295   7.097 -0.0869  0.3055  0.0221
  169SAPE   C2319084   2.148   4.916   7.161 -0.6085 -0.3642  0.4618
  169SAPE   H3R19085   2.077   4.985   7.211 -2.0557  0.7412 -2.8724
  169SAPE   H3S19086   2.244   4.939   7.213 -1.8160  2.0858  1.8137
  169SAPE   C2419087   2.118   4.776   7.215  0.3051 -0.2846  0.0583
  169SAPE   H4R19088   2.190   4.771   7.300  0.7270  2.8313  0.0174
  169SAPE   H4S19089   2.154   4.701   7.142  3.0223 -2.0672  2.9614
  169SAPE   C2519090   1.975   4.749   7.238 -0.1414  0.0312 -0.4174
  169SAPE   H5R19091   1.909   4.728   7.153  0.0617 -0.9799 -0.3358
  169SAPE   C2619092   1.921   4.742   7.364  0.5921 -0.1510  0.1491
  169SAPE   H6R19093   1.811   4.746   7.370  0.5982 -0.2651  0.3365
  169SAPE   C2719094   1.991   4.754   7.500 -0.0992  0.3066 -0.3944
  169SAPE   H7R19095   1.930   4.798   7.581  0.4755  1.3641 -0.5182
  169SAPE   H7S19096   2.082   4.817   7.494  0.2376  0.0177  1.1748
  169SAPE   C2819097   2.022   4.612   7.545  0.3334  0.7395 -0.1858
  169SAPE   H8R19098   2.006   4.533   7.470  0.1620  0.7294 -0.1391
  169SAPE   C2919099   2.094   4.570   7.651  0.1466  0.0184 -0.2381
  169SAPE   H9R19100   2.123   4.464   7.649  0.9864  0.1739  1.6226
  169SAPE  C21019101   2.166   4.659   7.759 -0.1244 -0.4624  0.5123
  169SAPE  H10R19102   2.156   4.766   7.732 -0.4485 -0.2489  1.4183
  169SAPE  H10S19103   2.271   4.627   7.775  0.3976  1.5242  1.4085
  169SAPE  C21119104   2.111   4.644   7.898 -0.4427 -0.7784  0.3339
  169SAPE  H11R19105   2.001   4.651   7.907 -0.4659 -0.7361  0.0158
  169SAPE  C21219106   2.171   4.612   8.014  0.3208 -0.8481  0.8101
  169SAPE  H12R19107   2.108   4.585   8.100 -0.5680  1.5298  0.9661
  169SAPE  C21319108   2.320   4.598   8.046  0.4268  0.3930 -0.6164
  169SAPE  H13R19109   2.369   4.556   7.956  0.2707 -0.2664 -0.4002
  169SAPE  H13S19110   2.318   4.526   8.131 -0.0443  1.0666 -0.0424
  169SAPE  C21419111   2.369   4.738   8.083  0.3798 -0.3863 -0.2951
  169SAPE  H14R19112   2.352   4.810   8.001  0.6278  1.5180  1.2727
  169SAPE  C21519113   2.439   4.773   8.197 -0.2244 -0.3311  0.0716
  169SAPE  H15R19114   2.473   4.877   8.209  1.6174 -0.5592 -2.4082
  169SAPE  C21619115   2.469   4.682   8.307 -0.0083 -0.2268  0.8362
  169SAPE  H16R19116   2.479   4.577   8.275 -1.8660 -0.4023  0.7694
  169SAPE  H16S19117   2.377   4.680   8.369 -1.5852  1.1628 -1.3402
  169SAPE  C21719118   2.573   4.724   8.419 -0.5079  0.8144  0.4020
  169SAPE  H17R19119   2.567   4.641   8.493  3.8480  0.3081  0.4730
  169SAPE  H17S19120   2.545   4.811   8.481  0.6217  2.1130 -0.8304
  169SAPE  C21819121   2.719   4.727   8.361  0.1841 -0.6542 -0.3726
  169SAPE  H18R19122   2.783   4.716   8.451 -0.1848 -2.3692 -0.2733
  169SAPE  H18S19123   2.743   4.822   8.309  1.1562 -1.7297 -1.9765
  169SAPE  C21919124   2.759   4.622   8.262 -0.0443  0.1510  0.5400
  169SAPE  H19R19125   2.688   4.612   8.178  0.3672 -0.3019  0.2454
  169SAPE  H19S19126   2.746   4.526   8.317  3.5643 -0.7963 -0.0128
  169SAPE  C22019127   2.906   4.632   8.238 -0.2470  0.0855  0.4231
  169SAPE  H20R19128   2.977   4.603   8.319 -0.6022 -1.4620  0.2194
  169SAPE  H20S19129   2.934   4.734   8.204  3.8671  0.0589  3.0451
  169SAPE  H20T19130   2.924   4.561   8.155  1.7117 -0.4348  1.2465
  169SAPE   C3319131   1.720   4.442   7.191 -0.1006 -0.3244 -0.8669
  169SAPE   H3X19132   1.627   4.389   7.161 -1.2710  0.6682  0.8881
  169SAPE   H3Y19133   1.704   4.552   7.195 -0.0172 -0.3626  0.9169
  169SAPE   C3419134   1.748   4.407   7.340  0.2105  0.0157 -0.0501
  169SAPE   H4X19135   1.666   4.441   7.407 -2.8941 -2.3158 -2.4333
  169SAPE   H4Y19136   1.839   4.469   7.359  1.0063 -0.4735 -2.0116
  169SAPE   C3519137   1.771   4.267   7.385  0.1219 -0.1117 -0.9019
  169SAPE   H5X19138   1.833   4.222   7.304 -1.2648  1.6170 -3.0195
  169SAPE   H5Y19139   1.681   4.202   7.389  0.4005 -0.4894 -0.6270
  169SAPE   C3619140   1.841   4.245   7.522 -0.3682  0.3435  0.3223
  169SAPE   H6X19141   1.937   4.301   7.526 -0.1662 -0.0549  1.3211
  169SAPE   H6Y19142   1.870   4.139   7.532 -0.2297  0.5521  2.8247
  169SAPE   C3719143   1.761   4.285   7.643 -0.1518  0.3379  0.0394
  169SAPE   H7X19144   1.662   4.239   7.625  1.2190 -2.8872 -0.0659
  169SAPE   H7Y19145   1.748   4.395   7.646  0.2656  0.6285 -3.6546
  169SAPE   C3819146   1.825   4.237   7.776  0.0026  0.1242  0.6889
  169SAPE   H8X19147   1.929   4.272   7.793 -0.2087 -0.5733  4.0464
  169SAPE   H8Y19148   1.817   4.126   7.772  0.2761  0.1227 -0.1499
  169SAPE   C3919149   1.753   4.289   7.901  0.0125  0.3173 -0.0528
  169SAPE   H9X19150   1.646   4.315   7.882 -0.2232 -1.5074 -1.4829
  169SAPE   H9Y19151   1.797   4.389   7.924  0.6302 -0.4220  2.2249
  169SAPE  C31019152   1.765   4.191   8.017  0.2238 -0.4554 -0.0037
  169SAPE  H10X19153   1.744   4.091   7.974  0.3525 -0.7804  0.6849
  169SAPE  H10Y19154   1.684   4.221   8.086 -1.0304  0.8452 -1.9235
  169SAPE  C31119155   1.897   4.178   8.083  0.3437  0.3675  0.1633
  169SAPE  H11X19156   1.932   4.277   8.120 -2.1654  1.5551 -0.4577
  169SAPE  H11Y19157   1.976   4.138   8.015 -0.5218 -1.1450 -0.0003
  169SAPE  C31219158   1.904   4.077   8.201 -0.2925  0.6704 -0.0415
  169SAPE  H12X19159   2.006   4.061   8.241 -0.2498  0.0077 -0.3943
  169SAPE  H12Y19160   1.875   3.978   8.159 -0.7020  1.1820 -0.9982
  169SAPE  C31319161   1.808   4.107   8.312  0.2198 -0.1348 -0.0244
  169SAPE  H13X19162   1.713   4.059   8.279  1.3041  0.2060 -4.1620
  169SAPE  H13Y19163   1.804   4.214   8.342  2.8597  0.2587 -0.7904
  169SAPE  C31419164   1.849   4.037   8.436  0.1530  0.1592 -0.5454
  169SAPE  H14X19165   1.949   4.076   8.466  0.4967 -1.0662 -0.0152
  169SAPE  H14Y19166   1.857   3.927   8.425 -3.3372 -0.5514  2.0956
  169SAPE  C31519167   1.743   4.058   8.548  0.5178  0.0091 -0.4876
  169SAPE  H15X19168   1.638   4.051   8.511  0.8355 -0.4923 -1.3320
  169SAPE  H15Y19169   1.751   4.165   8.576 -1.5814  0.7639 -2.4269
  169SAPE  C31619170   1.769   3.958   8.668  0.6501  0.1963  0.2275
  169SAPE  H16X19171   1.879   3.945   8.679  0.6753 -1.5464 -1.5375
  169SAPE  H16Y19172   1.717   3.867   8.633 -0.9253  0.9567  0.5228
  169SAPE  C31719173   1.695   4.005   8.801 -0.0894  0.8381  0.0155
  169SAPE  H17X19174   1.587   4.005   8.775 -0.6204 -1.1205  1.9227
  169SAPE  H17Y19175   1.740   4.106   8.812  2.5076 -0.1891 -0.2365
  169SAPE  C31819176   1.710   3.929   8.932 -0.3220  0.3081 -0.0341
  169SAPE  H18X19177   1.658   3.983   9.014 -1.5327  0.0082 -0.5921
  169SAPE  H18Y19178   1.820   3.920   8.946 -0.4343  0.0116  0.6973
  169SAPE  H18Z19179   1.664   3.829   8.930 -1.3602  0.7285  1.4637
  170SAPE     N19180   2.829   0.458   6.051 -0.3741  0.2296 -0.3281
  170SAPE   HN119181   2.919   0.484   6.004  0.9115  2.5645  3.0327
  170SAPE   HN219182   2.819   0.355   6.057 -1.9963  0.4296  1.2093
  170SAPE   HN319183   2.746   0.490   5.997 -0.4136 -1.7543 -1.5408
  170SAPE   C1219184   2.842   0.516   6.193 -0.0118 -0.4016  0.4380
  170SAPE  H12A19185   2.749   0.489   6.247  0.6272 -0.3908  1.5711
  170SAPE  H12B19186   2.852   0.626   6.177 -2.5140 -0.1613  0.0403
  170SAPE   C1119187   2.949   0.447   6.273  0.5073  0.0979  0.2710
  170SAPE  H11A19188   2.910   0.348   6.305 -1.1654  0.4680 -0.5257
  170SAPE  H11B19189   2.964   0.511   6.362  0.8222 -2.2659  2.0075
  170SAPE     P19190   3.198   0.511   6.211  0.1508  0.2697 -0.2546
  170SAPE   O1319191   3.245   0.539   6.075 -0.4229  0.1735 -1.2867
  170SAPE   O1419192   3.175   0.630   6.292  0.0513  0.6744  0.1528
  170SAPE   O1219193   3.066   0.424   6.206  0.2513 -0.2358 -0.1812
  170SAPE   O1119194   3.308   0.424   6.269  0.4609 -0.0683  0.5830
  170SAPE    C119195   3.310   0.284   6.289 -0.0303 -0.6567 -0.3476
  170SAPE    HA19196   3.286   0.234   6.193  0.3214 -2.2928  0.3820
  170SAPE    HB19197   3.414   0.250   6.309  0.5069  0.7660 -0.6028
  170SAPE    C219198   3.208   0.240   6.399 -0.5662  0.1057 -0.4753
  170SAPE    HS19199   3.105   0.274   6.375  0.3702  3.8083  0.1487
  170SAPE   O2119200   3.249   0.304   6.525 -0.3730 -0.1672  0.2672
  170SAPE   C2119201   3.156   0.348   6.598 -0.1050  0.3778  0.9941
  170SAPE   O2219202   3.032   0.334   6.585 -0.7284  0.7792  0.2698
  170SAPE   C2219203   3.216   0.406   6.726 -0.6965  0.2964  0.1416
  170SAPE   H2R19204   3.288   0.333   6.767 -0.5154  0.6945  0.5417
  170SAPE   H2S19205   3.278   0.496   6.703  1.8023 -0.9647  1.5354
  170SAPE    C319206   3.210   0.087   6.425  0.0039  0.3181  0.7855
  170SAPE    HX19207   3.317   0.078   6.455  0.8906 -1.2250 -2.3680
  170SAPE    HY19208   3.189   0.027   6.334  2.1906 -1.3068  1.2578
  170SAPE   O3119209   3.136   0.042   6.545 -0.5558 -0.9355  0.0276
  170SAPE   C3119210   3.007   0.061   6.532  0.2764 -0.1191  0.0619
  170SAPE   O3219211   2.950   0.079   6.424  0.0606 -0.5236  0.3324
  170SAPE   C3219212   2.953   0.048   6.670  0.4020 -0.2399 -0.0411
  170SAPE   H2X19213   3.004   0.128   6.728 -0.0331 -2.0101  3.0314
  170SAPE   H2Y19214   2.976  -0.047   6.722 -0.4658  1.0725  2.9701
  170SAPE   C2319215   3.103   0.431   6.834  0.3973 -0.6361 -0.1678
  170SAPE   H3R19216   3.009   0.458   6.783 -0.5262  0.5005  2.0147
  170SAPE   H3S19217   3.137   0.526   6.881  0.6485  0.2302 -2.0040
  170SAPE   C2419218   3.098   0.327   6.943  0.6392  0.5678  0.0501
  170SAPE   H4R19219   3.192   0.334   7.003  0.8968 -3.0368  0.2522
  170SAPE   H4S19220   3.088   0.228   6.894 -1.2883  0.2228  1.0583
  170SAPE   C2519221   2.980   0.345   7.036  0.0434  0.1117  0.3996
  170SAPE   H5R19222   2.882   0.355   6.987  0.0931 -0.5504  0.1577
  170SAPE   C2619223   2.992   0.343   7.169  0.2124 -0.0306  0.2846
  170SAPE   H6R19224   2.894   0.337   7.220  0.0936  0.8655  0.1654
  170SAPE   C2719225   3.115   0.330   7.253  0.0505 -0.5837 -0.1252
  170SAPE   H7R19226   3.176   0.423   7.255  2.5724 -2.1405 -0.1717
  170SAPE   H7S19227   3.192   0.262   7.211  2.9345  2.2213  0.2398
  170SAPE   C2819228   3.096   0.270   7.391 -0.6660  0.4372  0.2123
  170SAPE   H8R19229   3.061   0.165   7.397 -1.9591  0.6282 -2.3779
  170SAPE   C2919230   3.111   0.327   7.509  0.1651 -0.4056  0.6461
  170SAPE   H9R19231   3.079   0.272   7.599 -3.7054  4.6585  2.8679
  170SAPE  C21019232   3.156   0.464   7.551  0.6209 -0.3825  0.3139
  170SAPE  H10R19233   3.220   0.506   7.471  0.6503  0.5144  0.7980
  170SAPE  H10S19234   3.217   0.456   7.643  0.6674  0.6820  0.3868
  170SAPE  C21119235   3.045   0.564   7.576 -0.3998  0.8608 -0.1837
  170SAPE  H11R19236   3.014   0.622   7.488 -1.9520  0.0372 -0.2206
  170SAPE  C21219237   2.978   0.586   7.692  0.4000 -0.2833 -0.2137
  170SAPE  H12R19238   2.904   0.666   7.699  0.6205 -0.0830 -0.1524
  170SAPE  C21319239   3.004   0.515   7.819  0.5269  0.4388 -0.4214
  170SAPE  H13R19240   3.011   0.406   7.798  0.7379 -0.0537  1.9167
  170SAPE  H13S19241   2.921   0.540   7.888  1.1667  3.4448 -0.5891
  170SAPE  C21419242   3.133   0.561   7.885  0.2159 -0.4137 -0.0849
  170SAPE  H14R19243   3.214   0.580   7.814  0.0500 -2.8652 -1.0217
  170SAPE  C21519244   3.152   0.558   8.014 -0.6410  0.2067 -0.7136
  170SAPE  H15R19245   3.256   0.585   8.039 -0.7532  0.5345 -0.6029
  170SAPE  C21619246   3.063   0.513   8.129 -0.0498 -0.4374  0.1832
  170SAPE  H16R19247   2.984   0.443   8.096 -2.3974  1.0989  2.1796
  170SAPE  H16S19248   3.011   0.595   8.183 -0.0370 -0.1414 -0.2464
  170SAPE  C21719249   3.159   0.432   8.223 -0.3170 -0.4011 -0.5790
  170SAPE  H17R19250   3.235   0.501   8.265 -0.3005 -0.7327 -0.0514
  170SAPE  H17S19251   3.217   0.355   8.166  1.8022 -0.2431  1.2175
  170SAPE  C21819252   3.084   0.362   8.339 -0.0339 -0.0632  0.5216
  170SAPE  H18R19253   3.007   0.296   8.292  0.4191 -0.5342  0.4212
  170SAPE  H18S19254   3.036   0.438   8.404 -0.6851 -1.2648  1.5053
  170SAPE  C21919255   3.182   0.289   8.432 -0.2508  0.2400  0.4949
  170SAPE  H19R19256   3.268   0.355   8.458  1.1996 -1.0512 -0.7926
  170SAPE  H19S19257   3.219   0.213   8.360 -1.3848 -0.8707  1.0520
  170SAPE  C22019258   3.115   0.222   8.556  0.3679  0.2687  0.0545
  170SAPE  H20R19259   3.032   0.155   8.523 -0.3635  0.6542  1.0563
  170SAPE  H20S19260   3.068   0.292   8.628 -0.5194 -0.1186 -0.1242
  170SAPE  H20T19261   3.194   0.161   8.605 -0.5502 -0.6885  0.4065
  170SAPE   C3319262   2.795   0.068   6.669 -0.2860 -0.4971  0.5728
  170SAPE   H3X19263   2.760  -0.002   6.591 -0.1503  1.1134 -0.9889
  170SAPE   H3Y19264   2.762   0.169   6.638 -1.3763 -0.3210  2.1692
  170SAPE   C3419265   2.729   0.032   6.805 -0.2702  0.3692  0.8134
  170SAPE   H4X19266   2.801   0.025   6.890  0.8413 -2.2034 -0.2104
  170SAPE   H4Y19267   2.702  -0.075   6.792 -0.2766  0.5277 -0.6465
  170SAPE   C3519268   2.622   0.137   6.837 -0.7599  0.3348 -0.0982
  170SAPE   H5X19269   2.544   0.154   6.759 -0.0228  0.2298 -0.8764
  170SAPE   H5Y19270   2.670   0.235   6.856 -0.3327 -0.0633  0.9157
  170SAPE   C3619271   2.545   0.119   6.972 -0.0807 -0.1880 -0.6684
  170SAPE   H6X19272   2.518   0.012   6.985  0.9433 -0.3173  0.5819
  170SAPE   H6Y19273   2.452   0.179   6.963  0.7393  1.7797  2.4826
  170SAPE   C3719274   2.631   0.168   7.091 -0.4583  0.4053  0.6220
  170SAPE   H7X19275   2.642   0.278   7.076 -1.7429  0.2716 -1.8525
  170SAPE   H7Y19276   2.733   0.124   7.091 -1.4263 -1.9621  0.4468
  170SAPE   C3819277   2.571   0.137   7.228 -0.0403 -0.1214  0.4314
  170SAPE   H8X19278   2.560   0.027   7.227 -1.2437 -0.0340 -1.5252
  170SAPE   H8Y19279   2.469   0.183   7.229  0.5704  1.2785  1.3172
  170SAPE   C3919280   2.652   0.186   7.343 -0.3820 -0.1080  0.3475
  170SAPE   H9X19281   2.646   0.296   7.346  0.0734 -0.0586 -0.3202
  170SAPE   H9Y19282   2.760   0.174   7.319  0.1690  1.2277  1.9759
  170SAPE  C31019283   2.608   0.118   7.473 -0.2412  0.5668  0.2998
  170SAPE  H10X19284   2.630   0.009   7.466 -1.8572  0.2992 -1.2234
  170SAPE  H10Y19285   2.498   0.129   7.485 -0.3968  0.0560 -0.5618
  170SAPE  C31119286   2.687   0.164   7.590 -0.3531  0.5751 -0.1132
  170SAPE  H11X19287   2.794   0.188   7.572 -0.5915  2.0575  0.2839
  170SAPE  H11Y19288   2.682   0.072   7.652  1.1093 -0.4029 -1.3754
  170SAPE  C31219289   2.637   0.291   7.654  0.1150  0.2410 -0.5591
  170SAPE  H12X19290   2.605   0.364   7.577 -1.8066  1.1540  1.0417
  170SAPE  H12Y19291   2.725   0.332   7.708  0.1351  0.1046 -0.4855
  170SAPE  C31319292   2.516   0.272   7.754 -0.4914  0.6041 -0.1159
  170SAPE  H13X19293   2.524   0.187   7.826 -2.9504 -0.7778 -1.3460
  170SAPE  H13Y19294   2.427   0.256   7.689 -1.0674  1.2476  0.4947
  170SAPE  C31419295   2.484   0.397   7.842  0.5700  0.7514 -0.2766
  170SAPE  H14X19296   2.451   0.471   7.765  3.1424  1.2111 -1.0248
  170SAPE  H14Y19297   2.568   0.430   7.906 -1.7083  1.9660  2.2704
  170SAPE  C31519298   2.370   0.364   7.937 -0.5576  0.5499  0.2410
  170SAPE  H15X19299   2.329   0.456   7.985  2.3542  0.5228  3.1746
  170SAPE  H15Y19300   2.417   0.314   8.025  0.6976  0.2820 -0.5717
  170SAPE  C31619301   2.260   0.276   7.888  0.2462 -0.0013  0.4752
  170SAPE  H16X19302   2.284   0.178   7.841 -0.0333  0.5445 -0.8540
  170SAPE  H16Y19303   2.215   0.341   7.810  1.8819 -0.3883 -0.8576
  170SAPE  C31719304   2.157   0.251   8.004  0.6734  0.8976 -0.5295
  170SAPE  H17X19305   2.147   0.340   8.070 -4.2735  1.4774 -1.6645
  170SAPE  H17Y19306   2.207   0.169   8.060 -0.2418 -0.3879 -1.5259
  170SAPE  C31819307   2.006   0.222   7.953  0.1742 -0.1136  0.0358
  170SAPE  H18X19308   2.025   0.160   7.862  4.7202  1.8321 -0.6087
  170SAPE  H18Y19309   1.964   0.321   7.925  1.8106  1.1055  1.6455
  170SAPE  H18Z19310   1.943   0.176   8.032 -1.7561  1.6560 -0.4180
  171SAPE     N19311   4.284   3.052   5.861  0.2282  0.1766 -0.2847
  171SAPE   HN119312   4.226   3.109   5.926  0.8303 -0.2343  0.6447
  171SAPE   HN219313   4.224   3.014   5.785 -1.8351  1.2975  0.7150
  171SAPE   HN319314   4.320   2.976   5.922 -0.8753  0.7143  1.1002
  171SAPE   C1219315   4.401   3.133   5.810  0.3721  0.1180  0.6976
  171SAPE  H12A19316   4.368   3.232   5.772  2.6389  0.6094 -0.1640
  171SAPE  H12B19317   4.442   3.079   5.722  0.3454 -2.2007  2.0361
  171SAPE   C1119318   4.513   3.156   5.921  0.1801  0.4667 -0.0605
  171SAPE  H11A19319   4.470   3.213   6.006 -1.1489 -0.3855 -0.1252
  171SAPE  H11B19320   4.600   3.202   5.869  0.8166 -0.8610 -0.1871
  171SAPE     P19321   4.647   3.020   6.103 -0.5220 -0.3897  0.3668
  171SAPE   O1319322   4.643   2.884   6.156 -0.1786 -0.2187  0.0572
  171SAPE   O1419323   4.788   3.058   6.072 -0.4474  0.2881 -0.4812
  171SAPE   O1219324   4.557   3.029   5.968  0.0783 -0.1737 -0.6894
  171SAPE   O1119325   4.582   3.122   6.201  0.3781  0.1609  0.2686
  171SAPE    C119326   4.445   3.147   6.239 -0.2793 -0.1167 -0.0954
  171SAPE    HA19327   4.420   3.251   6.206  2.2900  0.7173  0.3890
  171SAPE    HB19328   4.374   3.081   6.185  1.4969 -1.3453 -0.9990
  171SAPE    C219329   4.423   3.132   6.392 -0.4042 -0.1378 -0.4347
  171SAPE    HS19330   4.316   3.152   6.413 -0.6165 -2.1714  0.5925
  171SAPE   O2119331   4.514   3.224   6.468 -0.4213  0.1222 -0.0854
  171SAPE   C2119332   4.473   3.350   6.469 -0.2369  0.2888 -0.0315
  171SAPE   O2219333   4.384   3.396   6.399  0.6006 -0.0157  0.3482
  171SAPE   C2219334   4.560   3.448   6.548 -0.5790  0.2341 -0.2033
  171SAPE   H2R19335   4.629   3.490   6.471 -0.0722  0.1930  0.2213
  171SAPE   H2S19336   4.496   3.532   6.582 -2.6600 -1.6277  0.7197
  171SAPE    C319337   4.457   2.981   6.428  1.0654  0.2354  0.0576
  171SAPE    HX19338   4.555   2.950   6.388  1.7051  1.4642  0.6121
  171SAPE    HY19339   4.381   2.915   6.381  0.0956  0.2978  1.4674
  171SAPE   O3119340   4.440   2.960   6.567  0.0755 -0.1302 -0.2905
  171SAPE   C3119341   4.544   2.974   6.644  0.2775  0.3705 -0.8407
  171SAPE   O3219342   4.656   2.996   6.605  0.0595  0.2198  0.5841
  171SAPE   C3219343   4.498   2.946   6.796  0.3911 -0.2414 -0.3312
  171SAPE   H2X19344   4.486   2.836   6.797  4.6374 -0.8937 -0.4859
  171SAPE   H2Y19345   4.415   3.017   6.812  2.6774  2.6576 -0.3833
  171SAPE   C2319346   4.646   3.403   6.667  0.1760  0.5101 -0.4442
  171SAPE   H3R19347   4.704   3.490   6.704 -0.0917  2.3827 -3.9568
  171SAPE   H3S19348   4.723   3.325   6.646  0.5011  0.9871 -1.0630
  171SAPE   C2419349   4.559   3.345   6.784 -1.1960  0.3192  0.4602
  171SAPE   H4R19350   4.640   3.305   6.849  0.9189  0.3296 -1.9964
  171SAPE   H4S19351   4.504   3.254   6.752  0.7326 -1.6370  2.3533
  171SAPE   C2519352   4.463   3.442   6.848  0.6009 -0.6276  0.2875
  171SAPE   H5R19353   4.366   3.458   6.799  0.9039  0.5576  0.0375
  171SAPE   C2619354   4.484   3.502   6.965 -0.5614  0.5202 -0.1967
  171SAPE   H6R19355   4.422   3.592   6.977 -0.0936  1.0310 -1.4005
  171SAPE   C2719356   4.604   3.463   7.048  0.1040 -0.2071 -0.4580
  171SAPE   H7R19357   4.693   3.519   7.013 -0.0536  1.3013  1.3977
  171SAPE   H7S19358   4.627   3.354   7.042 -2.1030 -0.7546  0.1835
  171SAPE   C2819359   4.567   3.489   7.191 -0.5076 -0.7310 -0.3188
  171SAPE   H8R19360   4.489   3.563   7.216  1.6679  1.3299  0.7523
  171SAPE   C2919361   4.628   3.428   7.294  0.7630  0.6258  0.0187
  171SAPE   H9R19362   4.586   3.442   7.395 -1.0362 -0.1140 -0.6013
  171SAPE  C21019363   4.739   3.326   7.267 -0.5666  0.2785 -0.4183
  171SAPE  H10R19364   4.796   3.352   7.176 -1.7197  1.1910 -0.9118
  171SAPE  H10S19365   4.693   3.230   7.236  1.7910 -0.7714 -0.8831
  171SAPE  C21119366   4.826   3.297   7.383 -0.5675  0.4671  0.0232
  171SAPE  H11R19367   4.835   3.190   7.409 -2.1442  0.5166  0.8903
  171SAPE  C21219368   4.901   3.381   7.458  0.0609 -0.2869 -0.9730
  171SAPE  H12R19369   4.955   3.346   7.548 -0.3923 -0.1590 -0.6463
  171SAPE  C21319370   4.915   3.527   7.436 -0.4883  0.2750 -0.6898
  171SAPE  H13R19371   4.871   3.583   7.522  2.1934  0.7112  0.4986
  171SAPE  H13S19372   4.860   3.569   7.349 -1.0562 -2.0400 -1.4978
  171SAPE  C21419373   5.060   3.565   7.427 -0.0325  0.0484  0.2669
  171SAPE  H14R19374   5.094   3.591   7.326 -2.3453 -0.5363 -0.7233
  171SAPE  C21519375   5.145   3.584   7.533  0.6659 -0.6573  0.3522
  171SAPE  H15R19376   5.252   3.604   7.517 -0.0145  1.2153 -2.9438
  171SAPE  C21619377   5.108   3.577   7.678 -0.9566  0.0738  0.7685
  171SAPE  H16R19378   5.165   3.494   7.725  0.9611 -0.0965 -1.6507
  171SAPE  H16S19379   5.002   3.546   7.695 -0.6671  0.0424  2.7243
  171SAPE  C21719380   5.122   3.715   7.736  0.5187 -0.3250 -0.4039
  171SAPE  H17R19381   5.053   3.782   7.680 -1.2055 -0.6442  1.2665
  171SAPE  H17S19382   5.226   3.755   7.732 -0.6607  3.2463  0.3121
  171SAPE  C21819383   5.058   3.712   7.880  0.1275 -0.5986 -0.0092
  171SAPE  H18R19384   5.126   3.683   7.962  1.6381  2.2523 -0.1176
  171SAPE  H18S19385   4.975   3.639   7.884  2.1133 -2.9742  0.0556
  171SAPE  C21919386   4.996   3.854   7.910  0.9305 -0.0162  0.2254
  171SAPE  H19R19387   4.916   3.881   7.838  1.5801 -0.2462 -0.6048
  171SAPE  H19S19388   5.078   3.928   7.893  1.3272 -0.5266 -0.1263
  171SAPE  C22019389   4.945   3.874   8.055 -0.5429 -0.4305  0.4503
  171SAPE  H20R19390   5.021   3.928   8.116  2.1764 -2.6099 -0.8021
  171SAPE  H20S19391   4.931   3.774   8.101  2.5440 -1.6311 -0.9243
  171SAPE  H20T19392   4.858   3.943   8.047 -0.1508  0.2870  1.9788
  171SAPE   C3319393   4.610   2.983   6.893 -0.6748  0.6391 -0.5963
  171SAPE   H3X19394   4.625   3.093   6.894  0.4248  0.4946 -0.5142
  171SAPE   H3Y19395   4.703   2.932   6.861 -1.2433 -0.9899  0.2190
  171SAPE   C3419396   4.577   2.924   7.026  0.0170  1.0178 -0.5089
  171SAPE   H4X19397   4.654   2.950   7.101 -0.6219  2.3119 -0.2644
  171SAPE   H4Y19398   4.563   2.814   7.015 -0.2494  1.0190 -0.2201
  171SAPE   C3519399   4.445   2.974   7.094 -1.0265  0.5582  0.7746
  171SAPE   H5X19400   4.366   2.914   7.043  1.2309 -1.3309 -0.7408
  171SAPE   H5Y19401   4.434   3.083   7.081  4.0515  1.1848 -0.4917
  171SAPE   C3619402   4.434   2.933   7.241  0.0794 -0.3852 -0.1278
  171SAPE   H6X19403   4.476   2.833   7.266 -3.0423 -1.8793 -0.3323
  171SAPE   H6Y19404   4.327   2.924   7.269 -0.0524 -2.6638 -1.1090
  171SAPE   C3719405   4.509   3.034   7.327  0.2343 -0.2277  0.4090
  171SAPE   H7X19406   4.462   3.131   7.300  1.1858 -0.3674 -2.0122
  171SAPE   H7Y19407   4.617   3.038   7.300  0.5979 -0.5868  1.7349
  171SAPE   C3819408   4.496   3.016   7.473 -0.4687  0.2354  0.0169
  171SAPE   H8X19409   4.537   2.915   7.494  1.8060  1.1981  0.4858
  171SAPE   H8Y19410   4.389   3.013   7.504 -0.3360  1.2471  0.6246
  171SAPE   C3919411   4.576   3.130   7.545 -0.3030  0.8280  0.0515
  171SAPE   H9X19412   4.541   3.227   7.505 -1.5475  0.7206  0.8296
  171SAPE   H9Y19413   4.681   3.110   7.515 -0.9275 -1.6082 -0.7439
  171SAPE  C31019414   4.544   3.129   7.692  0.2190  0.5419 -0.0994
  171SAPE  H10X19415   4.549   3.028   7.738  1.0014  0.9716  0.7844
  171SAPE  H10Y19416   4.438   3.152   7.717  0.5712  1.4245  0.6366
  171SAPE  C31119417   4.619   3.237   7.776  0.5054  0.1218 -0.0610
  171SAPE  H11X19418   4.581   3.339   7.753  1.8742  0.7997  0.5119
  171SAPE  H11Y19419   4.724   3.234   7.738  0.8735  3.3245  0.4028
  171SAPE  C31219420   4.615   3.215   7.928 -0.1314 -0.0447  0.9271
  171SAPE  H12X19421   4.645   3.108   7.935  1.6153  0.3090 -0.5214
  171SAPE  H12Y19422   4.524   3.217   7.992 -0.3104 -0.4828  0.6923
  171SAPE  C31319423   4.729   3.304   7.995  0.1349  0.5703 -0.1949
  171SAPE  H13X19424   4.703   3.404   8.035 -1.8462  0.3100 -0.7359
  171SAPE  H13Y19425   4.812   3.320   7.923 -0.8049 -2.6666 -2.2158
  171SAPE  C31419426   4.785   3.218   8.113 -0.3336 -0.0005  0.6641
  171SAPE  H14X19427   4.847   3.131   8.083 -0.3886 -0.6932  2.3938
  171SAPE  H14Y19428   4.694   3.177   8.162 -2.2182 -0.5323 -2.9574
  171SAPE  C31519429   4.855   3.288   8.220  0.6228 -0.5692  0.2442
  171SAPE  H15X19430   4.814   3.389   8.242 -2.8585 -2.1531  1.7716
  171SAPE  H15Y19431   4.953   3.303   8.169  0.2352 -3.6592 -1.6354
  171SAPE  C31619432   4.877   3.210   8.348  0.3426 -0.0805 -0.5177
  171SAPE  H16X19433   4.978   3.251   8.374  0.3398 -1.0171  1.0930
  171SAPE  H16Y19434   4.882   3.101   8.328 -1.2976 -0.1409 -0.6691
  171SAPE  C31719435   4.775   3.252   8.454  0.4429 -0.3831  0.1199
  171SAPE  H17X19436   4.674   3.239   8.410  0.4283  1.2655 -0.4042
  171SAPE  H17Y19437   4.784   3.361   8.470  1.2925 -0.4543  0.1821
  171SAPE  C31819438   4.769   3.178   8.589 -0.6694 -0.0641 -0.0392
  171SAPE  H18X19439   4.731   3.075   8.572 -0.4599 -0.2323  0.5102
  171SAPE  H18Y19440   4.693   3.234   8.648  1.0755  0.9786  1.3002
  171SAPE  H18Z19441   4.856   3.176   8.657 -0.1530 -6.0159 -0.3686
  172SAPE     N19442   4.112   1.377   6.434  0.0041  0.3270 -0.3892
  172SAPE   HN119443   4.155   1.437   6.361 -0.9321  3.4084  1.4138
  172SAPE   HN219444   4.178   1.300   6.457 -2.9642 -1.8749  1.5647
  172SAPE   HN319445   4.023   1.326   6.417  0.2336  0.1968 -1.2845
  172SAPE   C1219446   4.087   1.457   6.562 -0.2301 -0.1067  0.0536
  172SAPE  H12A19447   4.190   1.497   6.576  0.2546 -1.0558 -0.6388
  172SAPE  H12B19448   4.050   1.390   6.642  0.9531 -0.0793  0.6357
  172SAPE   C1119449   3.982   1.568   6.540 -0.4808  0.4979 -0.0715
  172SAPE  H11A19450   4.005   1.646   6.616  0.7728  0.5992 -0.5445
  172SAPE  H11B19451   3.876   1.540   6.561 -0.2025 -0.0148  0.6822
  172SAPE     P19452   4.069   1.752   6.376  0.7002  0.2356 -0.4794
  172SAPE   O1319453   4.212   1.721   6.361 -0.1346  0.2083  0.0193
  172SAPE   O1419454   4.008   1.821   6.258 -0.2450 -0.0068  0.4413
  172SAPE   O1219455   3.988   1.628   6.409 -0.1101 -1.0517 -0.3859
  172SAPE   O1119456   4.052   1.837   6.505  0.2151  0.1557  0.2240
  172SAPE    C119457   3.929   1.908   6.515 -0.6364 -0.4044 -0.2906
  172SAPE    HA19458   3.928   1.975   6.427 -0.8473  1.2076  0.8882
  172SAPE    HB19459   3.839   1.847   6.497  0.1665 -1.6212 -0.3336
  172SAPE    C219460   3.919   1.978   6.658 -0.4269 -0.0052  0.8945
  172SAPE    HS19461   3.937   1.907   6.742  0.5479  0.5133  1.1433
  172SAPE   O2119462   3.797   2.034   6.671  0.7832 -0.2701  0.1211
  172SAPE   C2119463   3.715   1.982   6.766 -0.0012 -1.0159  0.4746
  172SAPE   O2219464   3.734   1.880   6.823  0.0752  0.1823 -0.2059
  172SAPE   C2219465   3.590   2.070   6.762  0.5383 -0.1699  0.1746
  172SAPE   H2R19466   3.555   2.057   6.658 -0.2792 -0.4867  0.4821
  172SAPE   H2S19467   3.513   2.039   6.836 -1.1167  0.2254 -1.3152
  172SAPE    C319468   4.017   2.096   6.677 -0.8909 -0.8825  0.2126
  172SAPE    HX19469   3.983   2.188   6.624 -1.4353 -1.0854  0.1973
  172SAPE    HY19470   4.102   2.051   6.621  0.3814  0.4931  0.9694
  172SAPE   O3119471   4.053   2.105   6.815  0.1172  0.1614  0.3154
  172SAPE   C3119472   4.179   2.098   6.853  0.1673  0.3513  0.8290
  172SAPE   O3219473   4.275   2.121   6.784 -0.0878  0.2397 -0.7046
  172SAPE   C3219474   4.184   2.056   6.998 -0.1186 -0.1665  0.1120
  172SAPE   H2X19475   4.289   2.020   7.009  0.7423  1.8264 -1.1268
  172SAPE   H2Y19476   4.106   1.977   7.011 -0.2421 -0.4698 -2.0694
  172SAPE   C2319477   3.615   2.219   6.798  0.0371  0.2161  0.4160
  172SAPE   H3R19478   3.521   2.279   6.796 -1.1819 -1.6419 -0.2510
  172SAPE   H3S19479   3.677   2.257   6.713 -0.7396  0.4982 -0.0314
  172SAPE   C2419480   3.671   2.242   6.943 -0.0228  0.1558  0.2698
  172SAPE   H4R19481   3.747   2.164   6.964 -0.1728 -0.3383 -0.9298
  172SAPE   H4S19482   3.594   2.215   7.018 -0.0862  0.0078  0.1514
  172SAPE   C2519483   3.731   2.378   6.972 -0.9402 -0.3629 -0.3309
  172SAPE   H5R19484   3.823   2.396   6.914 -0.4039 -2.9856 -0.4286
  172SAPE   C2619485   3.702   2.467   7.066  0.3224  0.3897  0.4125
  172SAPE   H6R19486   3.754   2.564   7.071  0.1483  0.9877 -4.4920
  172SAPE   C2719487   3.593   2.435   7.168 -0.5410 -0.0957 -0.0019
  172SAPE   H7R19488   3.639   2.367   7.243 -2.2281  1.2897  2.4178
  172SAPE   H7S19489   3.513   2.378   7.114 -2.1779  2.4440 -0.4212
  172SAPE   C2819490   3.538   2.556   7.235 -0.4166  0.0060 -0.4315
  172SAPE   H8R19491   3.531   2.643   7.168  4.4928  0.0411 -1.2779
  172SAPE   C2919492   3.508   2.572   7.365 -0.3019 -0.3483 -0.5310
  172SAPE   H9R19493   3.465   2.668   7.398  5.4975  2.5204  0.0328
  172SAPE  C21019494   3.530   2.467   7.476 -0.6010  0.3045 -0.0623
  172SAPE  H10R19495   3.620   2.505   7.530 -0.4617 -1.1085  0.7549
  172SAPE  H10S19496   3.563   2.377   7.421  2.7689  3.2830 -3.4882
  172SAPE  C21119497   3.411   2.436   7.565 -0.3107  0.4286 -0.4596
  172SAPE  H11R19498   3.317   2.481   7.532 -0.4487 -0.6290 -1.5790
  172SAPE  C21219499   3.409   2.372   7.682 -0.1291 -0.1225  0.7336
  172SAPE  H12R19500   3.318   2.367   7.743  0.3099 -0.3063  1.3834
  172SAPE  C21319501   3.536   2.318   7.748 -0.1278 -0.2222  0.1972
  172SAPE  H13R19502   3.619   2.392   7.740 -1.0933  1.2679  2.7664
  172SAPE  H13S19503   3.583   2.228   7.704  1.6855  0.0028  1.5153
  172SAPE  C21419504   3.502   2.291   7.891 -0.1171  0.5790  0.1769
  172SAPE  H14R19505   3.423   2.215   7.907  1.2296 -1.7586 -3.1289
  172SAPE  C21519506   3.565   2.350   8.003 -0.2125  0.0172  0.9813
  172SAPE  H15R19507   3.521   2.333   8.102 -2.4213 -2.0453 -0.2466
  172SAPE  C21619508   3.681   2.452   7.997 -0.0226  0.1635 -0.2555
  172SAPE  H16R19509   3.666   2.529   7.919  1.5507  0.7307 -0.0302
  172SAPE  H16S19510   3.773   2.392   7.981 -0.5942 -0.8845  0.2644
  172SAPE  C21719511   3.703   2.539   8.120 -0.5184  0.4743  0.2738
  172SAPE  H17R19512   3.705   2.479   8.214 -0.1882 -1.0805 -0.6954
  172SAPE  H17S19513   3.619   2.611   8.126 -1.5569 -0.7722  1.1317
  172SAPE  C21819514   3.827   2.620   8.100  0.5190 -0.0012 -0.0934
  172SAPE  H18R19515   3.810   2.678   8.007 -0.8086 -0.0286  0.1067
  172SAPE  H18S19516   3.916   2.558   8.076 -0.4712 -0.9192 -1.5043
  172SAPE  C21919517   3.863   2.711   8.222 -0.2839 -0.3354 -0.1056
  172SAPE  H19R19518   3.923   2.648   8.291 -2.3253 -0.6146  1.5217
  172SAPE  H19S19519   3.767   2.728   8.275 -0.1179 -2.4663  0.9787
  172SAPE  C22019520   3.932   2.843   8.176 -0.1007 -0.6054 -0.0076
  172SAPE  H20R19521   3.902   2.873   8.073  1.8639 -0.7992 -0.6819
  172SAPE  H20S19522   4.041   2.831   8.161 -0.0540 -1.1850  0.7392
  172SAPE  H20T19523   3.907   2.939   8.227 -0.0242  0.0015 -1.0941
  172SAPE   C3319524   4.158   2.168   7.098 -0.2731  0.6282 -0.1638
  172SAPE   H3X19525   4.224   2.254   7.074  3.7717 -1.6434  1.8501
  172SAPE   H3Y19526   4.183   2.128   7.199 -0.6637  1.1314  0.1395
  172SAPE   C3419527   4.019   2.226   7.104  0.4162  0.9058  0.5338
  172SAPE   H4X19528   3.971   2.209   7.006 -2.9749 -0.0808  2.1888
  172SAPE   H4Y19529   4.022   2.334   7.131  0.7360  0.7078  1.3215
  172SAPE   C3519530   3.930   2.171   7.215  0.1656  0.1584  0.0433
  172SAPE   H5X19531   3.942   2.061   7.221  2.7937  0.3989  0.3425
  172SAPE   H5Y19532   3.822   2.190   7.198  0.5241  1.8884 -0.4852
  172SAPE   C3619533   3.960   2.250   7.345  0.0980  0.5940  0.0901
  172SAPE   H6X19534   3.971   2.355   7.308 -0.6210  0.9567  0.8786
  172SAPE   H6Y19535   4.057   2.209   7.379 -0.2293  0.7475  1.2433
  172SAPE   C3719536   3.851   2.242   7.451  0.0790  0.1768 -0.1032
  172SAPE   H7X19537   3.831   2.134   7.468  0.6781  0.2446  1.1727
  172SAPE   H7Y19538   3.757   2.278   7.404 -0.3561 -1.4534 -0.5464
  172SAPE   C3819539   3.882   2.307   7.582 -0.3520 -0.4507 -0.8084
  172SAPE   H8X19540   3.796   2.289   7.649  1.1551  0.7837  1.5671
  172SAPE   H8Y19541   3.901   2.416   7.579  3.0822 -0.7702  2.2419
  172SAPE   C3919542   4.005   2.267   7.665  0.2142  0.1991 -0.3146
  172SAPE   H9X19543   4.094   2.310   7.614  0.9095 -0.8559 -0.0304
  172SAPE   H9Y19544   4.026   2.157   7.662  1.7477  0.4783 -0.6801
  172SAPE  C31019545   4.003   2.326   7.809  0.1845 -0.3631 -0.0626
  172SAPE  H10X19546   3.931   2.268   7.870  0.4125 -0.5047  0.0725
  172SAPE  H10Y19547   3.963   2.429   7.796  1.6381  0.1755 -0.5184
  172SAPE  C31119548   4.144   2.327   7.867 -0.9476  0.1648  0.1856
  172SAPE  H11X19549   4.215   2.370   7.793  0.1378 -1.0683  0.4754
  172SAPE  H11Y19550   4.173   2.220   7.881 -0.6773 -0.0801 -1.9104
  172SAPE  C31219551   4.163   2.405   7.995 -0.1452 -0.1423  0.0224
  172SAPE  H12X19552   4.086   2.362   8.063 -0.7916  0.8173 -0.0831
  172SAPE  H12Y19553   4.138   2.508   7.963  0.9231 -0.3984 -1.7507
  172SAPE  C31319554   4.315   2.421   8.030  0.0287  0.2742  0.2956
  172SAPE  H13X19555   4.365   2.492   7.960  0.8208  1.3298  1.8790
  172SAPE  H13Y19556   4.365   2.323   8.015 -0.6810 -0.2672  1.3645
  172SAPE  C31419557   4.349   2.459   8.178  0.2790  0.6332  0.2683
  172SAPE  H14X19558   4.339   2.570   8.185  0.4524  0.7333 -0.9460
  172SAPE  H14Y19559   4.451   2.427   8.207  0.6003 -1.3335 -2.6574
  172SAPE  C31519560   4.254   2.384   8.268 -0.1659 -0.4661  0.9095
  172SAPE  H15X19561   4.145   2.403   8.253 -0.6424 -1.5102  2.7346
  172SAPE  H15Y19562   4.271   2.438   8.363  2.5004  1.3421 -0.4595
  172SAPE  C31619563   4.295   2.233   8.292 -0.0622 -0.9148 -0.3784
  172SAPE  H16X19564   4.396   2.223   8.337  0.6005 -2.2632 -2.0361
  172SAPE  H16Y19565   4.278   2.185   8.193 -3.4707 -0.0781 -0.3114
  172SAPE  C31719566   4.194   2.173   8.393 -0.2992 -0.0516 -0.4422
  172SAPE  H17X19567   4.089   2.170   8.358 -0.8492 -0.8172  1.1846
  172SAPE  H17Y19568   4.192   2.237   8.484  0.0177 -0.1440 -0.3668
  172SAPE  C31819569   4.248   2.039   8.444  0.3272  0.2347  0.1092
  172SAPE  H18X19570   4.282   1.982   8.355 -1.8931  0.8766 -1.2097
  172SAPE  H18Y19571   4.160   1.989   8.491  1.7563 -2.8156 -0.1918
  172SAPE  H18Z19572   4.337   2.053   8.510 -1.1349  1.6683  1.8788
  173SOPE     N19573   3.553   6.694  10.986 -0.8911 -0.4057 -0.2801
  173SOPE   HN119574   3.486   6.621  10.952  0.5099 -2.2417  0.6944
  173SOPE   HN219575   3.599   6.674  11.077 -0.1115 -1.6237 -0.9182
  173SOPE   HN319576   3.497   6.782  10.987 -2.5557 -1.4121  0.0452
  173SOPE   C1219577   3.651   6.700  10.878 -0.4683  0.2574  0.3804
  173SOPE  H12A19578   3.700   6.800  10.880 -0.6604  0.4110 -1.1776
  173SOPE  H12B19579   3.591   6.689  10.785 -1.5974  1.6306  0.9074
  173SOPE   C1119580   3.754   6.588  10.892  0.0637 -0.6195 -0.6550
  173SOPE  H11A19581   3.837   6.612  10.822  0.2630 -0.7582 -0.4696
  173SOPE  H11B19582   3.702   6.493  10.870 -1.3286  0.2858 -1.4486
  173SOPE     P19583   3.898   6.472  11.085 -0.2767 -0.2974 -0.0402
  173SOPE   O1319584   3.838   6.386  11.191 -0.4861 -0.3343 -0.3638
  173SOPE   O1419585   4.029   6.537  11.114  0.5284  0.0599  0.0347
  173SOPE   O1219586   3.803   6.581  11.027 -0.1673 -0.0707 -0.2409
  173SOPE   O1119587   3.917   6.371  10.964  0.0105 -0.3479  0.2876
  173SOPE    C119588   4.034   6.294  10.950 -0.0169  0.7172  0.6179
  173SOPE    HA19589   3.993   6.194  10.925 -1.0361  1.7480 -2.2979
  173SOPE    HB19590   4.094   6.266  11.039 -0.1294  0.3223  0.5701
  173SOPE    C219591   4.132   6.354  10.853 -0.4519  0.0232 -0.0284
  173SOPE    HS19592   4.193   6.436  10.896  0.9960 -0.2834 -1.3688
  173SOPE   O2119593   4.066   6.418  10.744  0.8028  0.4197  0.2257
  173SOPE   C2119594   3.968   6.348  10.675 -0.6461  0.0142  0.0555
  173SOPE   O2219595   3.961   6.225  10.685  0.6867 -0.1488 -0.3308
  173SOPE   C2219596   3.889   6.435  10.589  0.1250  0.3188  0.3738
  173SOPE   H2R19597   3.868   6.532  10.638  1.6468  0.3669  0.9702
  173SOPE   H2S19598   3.785   6.395  10.595 -1.1606  3.5743  3.2600
  173SOPE    C319599   4.243   6.254  10.799 -0.2607 -0.0895 -0.4323
  173SOPE    HX19600   4.195   6.155  10.786  0.1679 -0.2344 -0.9532
  173SOPE    HY19601   4.325   6.244  10.873 -0.8282 -2.1082 -0.0053
  173SOPE   O3119602   4.294   6.294  10.668 -0.2700 -0.1146  0.2758
  173SOPE   C3119603   4.398   6.377  10.666 -0.0805 -0.0976  0.3226
  173SOPE   O3219604   4.465   6.401  10.766 -0.0282 -0.0067  0.4170
  173SOPE   C3219605   4.419   6.429  10.521  0.6022 -0.0186  0.1860
  173SOPE   H2X19606   4.527   6.437  10.496  0.2990 -0.1962 -1.2527
  173SOPE   H2Y19607   4.364   6.524  10.509 -1.2883 -1.2409 -1.5000
  173SOPE   C2319608   3.937   6.435  10.443 -0.1917 -0.4052  0.4239
  173SOPE   H3R19609   3.933   6.330  10.408  3.0834 -0.4375 -0.1572
  173SOPE   H3S19610   4.043   6.466  10.448 -0.5500  0.7449  1.4599
  173SOPE   C2419611   3.872   6.547  10.353  0.0886  0.5152 -0.0274
  173SOPE   H4R19612   3.782   6.598  10.394 -0.5931  0.1700 -1.0545
  173SOPE   H4S19613   3.956   6.616  10.333  2.7434 -2.7694 -1.2231
  173SOPE   C2519614   3.833   6.491  10.207  0.3210 -0.0080 -0.1047
  173SOPE   H5R19615   3.756   6.412  10.217 -0.4272  0.5108 -1.4919
  173SOPE   H5S19616   3.786   6.577  10.155  0.3490 -0.2540 -0.5470
  173SOPE   C2619617   3.952   6.446  10.133 -0.3599 -0.3841 -0.0167
  173SOPE   H6R19618   4.042   6.507  10.158 -1.0161  0.0742  1.3083
  173SOPE   H6S19619   3.971   6.342  10.167  2.0259 -0.8081 -2.3382
  173SOPE   C2719620   3.942   6.449   9.977  0.4694  0.1224  0.2121
  173SOPE   H7R19621   4.046   6.431   9.940 -0.0927 -1.2779 -0.7749
  173SOPE   H7S19622   3.872   6.368   9.948  1.8943 -1.1046  0.0362
  173SOPE   C2819623   3.881   6.572   9.902  0.2399 -0.2736  0.0293
  173SOPE   H8R19624   3.869   6.543   9.795  0.2699 -0.0030 -0.0485
  173SOPE   H8S19625   3.778   6.590   9.940  0.1515 -0.5782 -0.0601
  173SOPE   C2919626   3.963   6.694   9.923  0.6229  0.7184 -0.5503
  173SOPE   H9119627   4.014   6.694  10.021  1.5478 -0.2261 -1.0190
  173SOPE  C21019628   3.969   6.799   9.847  0.9143 -0.3117 -0.1306
  173SOPE  H10119629   4.040   6.877   9.880  0.4379  0.1652 -0.2258
  173SOPE  C21119630   3.911   6.816   9.704  0.0920  0.3539  0.8383
  173SOPE  H11R19631   3.802   6.818   9.724 -0.5754 -2.2378 -1.8147
  173SOPE  H11S19632   3.932   6.726   9.642 -1.5223  1.1330 -0.9307
  173SOPE  C21219633   3.959   6.945   9.629 -0.0667 -0.3265 -0.0528
  173SOPE  H12R19634   4.066   6.962   9.654  0.3242 -1.9547 -0.5412
  173SOPE  H12S19635   3.911   7.034   9.676 -0.1832 -0.3722 -0.0852
  173SOPE  C21319636   3.921   6.950   9.479  0.0182  0.9214  0.8257
  173SOPE  H13R19637   3.949   7.045   9.429 -0.0226  0.1776 -0.6666
  173SOPE  H13S19638   3.811   6.938   9.481  0.0043  0.9118  3.2330
  173SOPE  C21419639   3.987   6.826   9.405  0.0950 -0.3580 -0.0214
  173SOPE  H14R19640   3.944   6.732   9.444  0.9752 -0.7570  0.0102
  173SOPE  H14S19641   4.098   6.828   9.414  0.0613 -0.0147  0.3789
  173SOPE  C21519642   3.961   6.830   9.257  0.2826  0.8853  0.1693
  173SOPE  H15R19643   3.852   6.818   9.238  0.5736 -1.2673 -0.4426
  173SOPE  H15S19644   4.017   6.745   9.212 -0.0571  1.1515 -0.7842
  173SOPE  C21619645   4.017   6.954   9.191  0.0359 -0.2570  0.0183
  173SOPE  H16R19646   4.120   6.969   9.229  0.0267 -0.7266  0.2338
  173SOPE  H16S19647   3.949   7.040   9.212 -0.2564  0.1657 -2.4084
  173SOPE  C21719648   4.021   6.948   9.043 -1.1103 -0.3237 -0.1232
  173SOPE  H17R19649   3.920   6.948   8.998 -0.4413 -1.4798 -1.7168
  173SOPE  H17S19650   4.068   6.851   9.015  1.6292  0.7750  0.2884
  173SOPE  C21819651   4.108   7.059   8.981 -0.7867  0.1120  0.3730
  173SOPE  H18R19652   4.209   7.013   8.989 -0.6863  0.1838 -0.4626
  173SOPE  H18S19653   4.107   7.149   9.046 -0.2523 -0.6224  1.4393
  173SOPE  H18T19654   4.075   7.066   8.875 -0.6813  1.2097  0.4038
  173SOPE   C3319655   4.350   6.338  10.415  0.6340 -0.1153 -0.2992
  173SOPE   H3X19656   4.241   6.329  10.434  0.9215 -0.9228  1.0380
  173SOPE   H3Y19657   4.393   6.236  10.414  3.3714  0.9193  1.3186
  173SOPE   C3419658   4.368   6.391  10.276 -0.6996 -0.2643  0.5930
  173SOPE   H4X19659   4.300   6.353  10.197 -0.5026  0.1077  0.2444
  173SOPE   H4Y19660   4.472   6.371  10.243 -0.6864  1.7735 -0.8196
  173SOPE   C3519661   4.347   6.549  10.264 -0.2092  0.3496  0.5893
  173SOPE   H5X19662   4.431   6.599  10.317 -0.5119  0.7523  0.6931
  173SOPE   H5Y19663   4.247   6.560  10.311 -1.9884 -2.6061 -2.1294
  173SOPE   C3619664   4.340   6.606  10.125  0.7959  0.5516  0.5078
  173SOPE   H6X19665   4.251   6.571  10.069  0.6510  0.0725  1.0324
  173SOPE   H6Y19666   4.435   6.578  10.075  0.4162 -1.6809  0.9418
  173SOPE   C3719667   4.324   6.757  10.125 -0.4020  0.4718 -0.5260
  173SOPE   H7X19668   4.401   6.811  10.185 -0.5162  0.1835 -0.1170
  173SOPE   H7Y19669   4.225   6.776  10.173  0.3050  0.3733  1.0345
  173SOPE   C3819670   4.294   6.813   9.983  0.0215 -0.2379 -0.1172
  173SOPE   H8X19671   4.242   6.910   9.998  0.0653 -0.3799  1.0245
  173SOPE   H8Y19672   4.225   6.749   9.925  1.7106 -1.8211 -0.4859
  173SOPE   C3919673   4.418   6.843   9.903  0.0564 -0.4788 -0.1548
  173SOPE   H9X19674   4.482   6.752   9.904 -1.7375 -1.8804 -2.0115
  173SOPE   H9Y19675   4.482   6.921   9.949 -1.8251 -0.2579  2.3015
  173SOPE  C31019676   4.396   6.888   9.756  0.3422  0.1177  0.6864
  173SOPE  H10X19677   4.350   6.988   9.770 -1.9869 -1.2407  4.2353
  173SOPE  H10Y19678   4.329   6.809   9.716  0.8084  1.4882 -3.1729
  173SOPE  C31119679   4.529   6.900   9.681  0.1933 -0.2393 -0.5157
  173SOPE  H11X19680   4.592   6.808   9.680 -0.4585 -0.8033  2.3364
  173SOPE  H11Y19681   4.585   6.986   9.722  1.8701 -0.2783 -2.5686
  173SOPE  C31219682   4.503   6.923   9.530 -0.2539 -0.3869  0.7960
  173SOPE  H12X19683   4.426   6.850   9.497  0.2826  0.9437 -4.2458
  173SOPE  H12Y19684   4.596   6.894   9.477 -0.6926  0.1329 -0.2735
  173SOPE  C31319685   4.453   7.067   9.495  0.2776 -0.3659 -0.3902
  173SOPE  H13X19686   4.522   7.131   9.555  1.2508 -3.1437  1.7052
  173SOPE  H13Y19687   4.348   7.071   9.533  0.8641  1.4755  1.2246
  173SOPE  C31419688   4.451   7.102   9.347  0.1932  0.4604  0.2979
  173SOPE  H14X19689   4.402   7.199   9.324 -3.8168 -1.1321  1.2413
  173SOPE  H14Y19690   4.400   7.025   9.284 -0.1478 -0.2585  1.4171
  173SOPE  C31519691   4.588   7.115   9.286 -0.6028 -0.0300  0.6324
  173SOPE  H15X19692   4.637   7.016   9.274 -0.7880  0.0529 -1.0049
  173SOPE  H15Y19693   4.652   7.186   9.343  0.7248  1.7888 -2.7585
  173SOPE  C31619694   4.570   7.187   9.145 -0.5560  0.3087 -0.0868
  173SOPE  H16X19695   4.529   7.287   9.170  0.4244  0.6893  0.0414
  173SOPE  H16Y19696   4.500   7.128   9.082  1.8347 -0.6723 -1.9457
  173SOPE  C31719697   4.706   7.196   9.078  0.8532  0.5265 -0.1596
  173SOPE  H17X19698   4.754   7.097   9.067  0.3058  0.4190 -1.8484
  173SOPE  H17Y19699   4.776   7.262   9.133  2.1311 -1.0428  0.1592
  173SOPE  C31819700   4.709   7.255   8.936 -0.0547  0.2310  0.0682
  173SOPE  H18X19701   4.649   7.186   8.873 -2.0580  0.6175  1.4652
  173SOPE  H18Y19702   4.810   7.257   8.889 -0.9198 -3.4661 -2.3772
  173SOPE  H18Z19703   4.660   7.354   8.939 -2.8616 -1.0693  0.0944
  174SOPE     N19704   3.727   5.512  11.227  0.1648  0.2627 -0.0275
  174SOPE   HN119705   3.760   5.608  11.251  3.0798 -0.5535 -0.3476
  174SOPE   HN219706   3.696   5.475  11.319  0.3411  0.3068  0.0510
  174SOPE   HN319707   3.815   5.459  11.208  0.3729  0.6848 -0.2653
  174SOPE   C1219708   3.615   5.500  11.121 -0.2846 -0.4289 -0.1897
  174SOPE  H12A19709   3.525   5.556  11.156 -0.3108 -0.7296  0.2313
  174SOPE  H12B19710   3.586   5.393  11.123  2.2736 -1.1800  1.4925
  174SOPE   C1119711   3.678   5.537  10.982 -0.1700  0.4173 -0.2122
  174SOPE  H11A19712   3.602   5.529  10.901 -0.1292 -0.4782 -0.1758
  174SOPE  H11B19713   3.758   5.465  10.954  0.6269  0.3745  1.9779
  174SOPE     P19714   3.665   5.793  10.980  0.0230  0.1353  0.4347
  174SOPE   O1319715   3.765   5.901  10.978  0.0761 -0.4238  0.2019
  174SOPE   O1419716   3.570   5.787  11.090 -0.0976 -0.1434  0.4336
  174SOPE   O1219717   3.741   5.662  10.983  0.6675  0.0091 -0.5356
  174SOPE   O1119718   3.588   5.803  10.839  0.8848  0.5664  0.2446
  174SOPE    C119719   3.651   5.748  10.721  0.2296  0.5338 -0.4411
  174SOPE    HA19720   3.597   5.652  10.705 -0.4352  0.7356  0.4923
  174SOPE    HB19721   3.759   5.731  10.740  0.0323  0.7917  1.0881
  174SOPE    C219722   3.627   5.827  10.592  0.3010 -0.6662  0.2436
  174SOPE    HS19723   3.605   5.751  10.514  0.0578 -0.1061 -0.2398
  174SOPE   O2119724   3.744   5.903  10.564 -0.5767  0.1951  0.5198
  174SOPE   C2119725   3.792   5.889  10.443 -0.0910 -0.7940  0.2108
  174SOPE   O2219726   3.729   5.833  10.351  0.4780  0.3524 -0.0360
  174SOPE   C2219727   3.916   5.976  10.432  0.8420 -0.3571 -0.0382
  174SOPE   H2R19728   3.994   5.949  10.506 -0.8126  0.9867  2.3572
  174SOPE   H2S19729   3.884   6.076  10.470 -1.6329 -0.4067 -1.7805
  174SOPE    C319730   3.508   5.921  10.603  0.3948  0.0975  0.1185
  174SOPE    HX19731   3.523   5.999  10.680 -1.3894  1.5231 -0.9008
  174SOPE    HY19732   3.419   5.862  10.636  0.5501  0.8639  2.0344
  174SOPE   O3119733   3.472   5.973  10.479  0.5917  0.1217 -0.2554
  174SOPE   C3119734   3.504   6.098  10.456 -0.5409 -0.3931  0.3590
  174SOPE   O3219735   3.581   6.166  10.522 -0.1437  0.2025 -0.2194
  174SOPE   C3219736   3.459   6.140  10.315  0.5538  0.0258  0.9848
  174SOPE   H2X19737   3.349   6.154  10.317  0.3079 -1.6030  0.1885
  174SOPE   H2Y19738   3.479   6.052  10.250 -1.0997 -0.1619  0.7069
  174SOPE   C2319739   3.965   5.986  10.286  0.3901  0.1356  0.0200
  174SOPE   H3R19740   3.896   6.065  10.248  0.1764 -0.3793 -0.6982
  174SOPE   H3S19741   3.943   5.892  10.231 -1.5757 -0.1332  1.1613
  174SOPE   C2419742   4.110   6.020  10.275  0.1247 -0.4198 -1.2169
  174SOPE   H4R19743   4.139   6.108  10.336  0.0970  0.3883 -2.3497
  174SOPE   H4S19744   4.168   5.932  10.311  0.1790  0.9760  2.6645
  174SOPE   C2519745   4.160   6.076  10.138  0.1617  0.0599  0.3979
  174SOPE   H5R19746   4.106   6.167  10.106 -1.6787 -1.3543 -0.7607
  174SOPE   H5S19747   4.263   6.117  10.144 -0.3976  1.6910 -0.5588
  174SOPE   C2619748   4.154   5.967  10.027 -0.4518  0.2974  0.2826
  174SOPE   H6R19749   4.204   5.875  10.065 -0.5511 -0.3182 -0.9978
  174SOPE   H6S19750   4.048   5.945  10.001 -0.3285  1.6754 -1.5920
  174SOPE   C2719751   4.246   6.008   9.902 -0.5336  1.2258 -0.0207
  174SOPE   H7R19752   4.352   5.999   9.936 -0.5350  0.5820 -0.1570
  174SOPE   H7S19753   4.227   5.932   9.823  1.3671  0.5267  0.1266
  174SOPE   C2819754   4.219   6.146   9.836 -0.5146 -0.1001 -0.0407
  174SOPE   H8R19755   4.238   6.214   9.922 -0.6877 -0.8672  0.6195
  174SOPE   H8S19756   4.294   6.166   9.757  1.8989 -2.9762  1.3263
  174SOPE   C2919757   4.078   6.166   9.789 -0.3579 -0.2927  0.0740
  174SOPE   H9119758   3.999   6.145   9.861 -1.7931 -1.1279 -1.6705
  174SOPE  C21019759   4.034   6.211   9.669 -0.2357  0.7940  0.3542
  174SOPE  H10119760   3.927   6.235   9.668 -0.1058  1.3940 -0.9316
  174SOPE  C21119761   4.115   6.262   9.554  0.2839 -0.4950 -0.6983
  174SOPE  H11R19762   4.055   6.291   9.465  2.3705  1.8933 -1.4315
  174SOPE  H11S19763   4.186   6.187   9.514  0.1113  0.1403 -2.2860
  174SOPE  C21219764   4.207   6.381   9.589 -0.4981 -0.3031  0.2995
  174SOPE  H12R19765   4.284   6.361   9.666  1.3516  0.5191 -1.2581
  174SOPE  H12S19766   4.143   6.463   9.628  1.2353  0.1287  2.3930
  174SOPE  C21319767   4.286   6.440   9.474 -0.5323 -0.1743  0.5880
  174SOPE  H13R19768   4.364   6.376   9.426  0.2660  1.8567 -0.9276
  174SOPE  H13S19769   4.346   6.522   9.519 -1.1168  1.2412 -1.1349
  174SOPE  C21419770   4.196   6.511   9.370 -0.6161  0.2677  0.7396
  174SOPE  H14R19771   4.120   6.563   9.433 -1.2188  1.0982 -0.6436
  174SOPE  H14S19772   4.143   6.434   9.310  2.4023 -0.6668 -0.9627
  174SOPE  C21519773   4.270   6.601   9.270 -0.2038 -0.8617  0.0426
  174SOPE  H15R19774   4.328   6.682   9.318 -0.2789 -2.1781  2.4828
  174SOPE  H15S19775   4.194   6.656   9.211  1.0504 -0.3385 -1.1578
  174SOPE  C21619776   4.354   6.520   9.171 -0.5075  0.2135  0.0887
  174SOPE  H16R19777   4.302   6.434   9.125 -1.8501  0.7584  0.5433
  174SOPE  H16S19778   4.426   6.472   9.241 -1.6843 -0.2802  0.9925
  174SOPE  C21719779   4.433   6.605   9.068 -0.2230 -0.3187  0.5487
  174SOPE  H17R19780   4.494   6.540   9.001 -0.4422  1.0445 -1.0381
  174SOPE  H17S19781   4.503   6.662   9.132  1.3875  1.8467 -2.8093
  174SOPE  C21819782   4.359   6.703   8.978  0.1693  0.6293 -0.6976
  174SOPE  H18R19783   4.322   6.642   8.893 -2.0360 -0.8203  1.1671
  174SOPE  H18S19784   4.426   6.774   8.926  0.6846  0.0381 -0.8566
  174SOPE  H18T19785   4.271   6.749   9.028  0.1192  1.2042 -1.3104
  174SOPE   C3319786   3.534   6.266  10.277 -0.1401 -0.1871  0.4599
  174SOPE   H3X19787   3.641   6.239  10.276  0.5111  2.0900  1.7598
  174SOPE   H3Y19788   3.517   6.340  10.359 -0.8768  1.1848 -0.8671
  174SOPE   C3419789   3.501   6.313  10.137 -0.2823  0.1052 -0.2144
  174SOPE   H4X19790   3.551   6.412  10.130  2.4186 -1.0599  1.3240
  174SOPE   H4Y19791   3.392   6.336  10.129  0.1003  2.5868  0.7747
  174SOPE   C3519792   3.561   6.229  10.025 -0.2374 -0.3828 -0.4705
  174SOPE   H5X19793   3.500   6.136  10.029 -3.5444  1.4108 -3.2785
  174SOPE   H5Y19794   3.665   6.203  10.053 -0.6839 -1.2134  0.4803
  174SOPE   C3619795   3.556   6.296   9.885 -0.0732 -0.2376  0.5793
  174SOPE   H6X19796   3.605   6.395   9.895 -3.7964  1.9105 -0.4200
  174SOPE   H6Y19797   3.450   6.317   9.860  0.3879  1.9010  0.1341
  174SOPE   C3719798   3.610   6.195   9.778  0.5550  0.0163  0.6310
  174SOPE   H7X19799   3.539   6.110   9.771  0.3908  0.2506 -0.7511
  174SOPE   H7Y19800   3.712   6.156   9.803  0.8990 -0.1472 -0.9438
  174SOPE   C3819801   3.620   6.265   9.640 -0.3008 -0.3549  0.6190
  174SOPE   H8X19802   3.689   6.352   9.640 -1.5527  0.6923 -1.2254
  174SOPE   H8Y19803   3.516   6.303   9.627  0.0891  1.5356  2.4005
  174SOPE   C3919804   3.651   6.161   9.528  0.9918 -0.4723 -0.1937
  174SOPE   H9X19805   3.574   6.082   9.531  1.2109 -0.6597  1.8683
  174SOPE   H9Y19806   3.752   6.118   9.542  1.6965  0.5204 -1.9577
  174SOPE  C31019807   3.653   6.227   9.393  0.3470  0.4587 -0.1320
  174SOPE  H10X19808   3.730   6.307   9.395 -0.7512  1.5570  2.3773
  174SOPE  H10Y19809   3.554   6.265   9.359 -0.6753 -2.9802 -1.4463
  174SOPE  C31119810   3.688   6.127   9.277  0.9056 -0.3049  0.2626
  174SOPE  H11X19811   3.594   6.072   9.253  1.5861 -1.0857 -0.6747
  174SOPE  H11Y19812   3.777   6.066   9.303  1.1778  0.0856  0.2477
  174SOPE  C31219813   3.730   6.197   9.140  0.1489  0.1937 -0.5676
  174SOPE  H12X19814   3.659   6.279   9.117 -0.5739 -0.4410 -0.6644
  174SOPE  H12Y19815   3.734   6.121   9.058 -1.1556 -0.5347  0.0113
  174SOPE  C31319816   3.874   6.262   9.152  0.1284  0.6233 -0.4001
  174SOPE  H13X19817   3.938   6.184   9.199 -0.4262 -0.0060 -0.6637
  174SOPE  H13Y19818   3.875   6.351   9.218 -0.1336 -0.7159  1.5130
  174SOPE  C31419819   3.942   6.303   9.019  0.4998  0.7747 -0.3717
  174SOPE  H14X19820   3.946   6.226   8.938 -1.1131  0.7265 -0.4450
  174SOPE  H14Y19821   4.043   6.343   9.039  0.4675 -0.2271  2.1467
  174SOPE  C31519822   3.873   6.436   8.976  0.6454 -0.2100 -0.8900
  174SOPE  H15X19823   3.891   6.505   9.061  0.2693  0.5887 -1.4460
  174SOPE  H15Y19824   3.763   6.428   8.982  0.6399  0.7353  0.7213
  174SOPE  C31619825   3.916   6.495   8.842 -0.2029 -0.6877 -0.1928
  174SOPE  H16X19826   3.853   6.451   8.761 -0.8009  0.4360 -0.3642
  174SOPE  H16Y19827   4.023   6.480   8.817 -0.4795 -1.9952 -0.7051
  174SOPE  C31719828   3.885   6.645   8.833 -0.2469  0.2034 -0.0545
  174SOPE  H17X19829   3.957   6.714   8.882 -0.1117  1.6247 -2.1473
  174SOPE  H17Y19830   3.788   6.664   8.885  1.0162  0.9479  2.1926
  174SOPE  C31819831   3.895   6.675   8.684 -0.5184  0.2516 -0.6157
  174SOPE  H18X19832   4.001   6.674   8.650 -0.3744 -0.6169 -0.1610
  174SOPE  H18Y19833   3.854   6.776   8.660 -2.5987 -0.7586 -1.5356
  174SOPE  H18Z19834   3.831   6.609   8.621 -0.6819  1.7756 -2.1344
  175SOPE     N19835   0.153   1.363  10.790  0.0442 -0.2314  0.0789
  175SOPE   HN119836   0.227   1.332  10.857  0.5671  1.5907  0.4069
  175SOPE   HN219837   0.058   1.376  10.831  0.6111  1.7952  0.8940
  175SOPE   HN319838   0.157   1.316  10.698 -2.5588  1.2120 -0.8856
  175SOPE   C1219839   0.188   1.507  10.759 -0.1083  1.1031  0.3329
  175SOPE  H12A19840   0.298   1.512  10.747  0.4618 -0.2776  3.7394
  175SOPE  H12B19841   0.164   1.562  10.853 -0.9907  0.9879  0.1809
  175SOPE   C1119842   0.128   1.563  10.633  0.7331 -0.2667  0.6709
  175SOPE  H11A19843   0.159   1.495  10.550  2.5922  1.6140 -0.2695
  175SOPE  H11B19844   0.166   1.663  10.605  0.2337 -0.2931 -0.1481
  175SOPE     P19845  -0.122   1.455  10.579  0.1413  0.3847 -0.5267
  175SOPE   O1319846  -0.258   1.485  10.625  0.3197  0.0630 -0.1827
  175SOPE   O1419847  -0.070   1.316  10.590 -0.6334  0.2398  0.5104
  175SOPE   O1219848  -0.018   1.555  10.644  0.3945 -0.5137  0.4237
  175SOPE   O1119849  -0.120   1.498  10.432  0.2344 -0.3424  0.1171
  175SOPE    C119850  -0.158   1.409  10.324  0.1472  0.5552 -0.0696
  175SOPE    HA19851  -0.222   1.461  10.250 -0.6975  0.5717  0.6548
  175SOPE    HB19852  -0.238   1.337  10.352  1.6288 -0.7763  0.9219
  175SOPE    C219853  -0.044   1.327  10.256  0.4728 -0.1012  0.7104
  175SOPE    HS19854  -0.008   1.252  10.330 -1.8981 -3.6033 -1.3741
  175SOPE   O2119855   0.051   1.415  10.193 -0.1664 -0.1204  0.1326
  175SOPE   C2119856   0.171   1.425  10.255  0.5790  0.1035  0.5572
  175SOPE   O2219857   0.197   1.363  10.355 -1.0421  0.3430 -0.3476
  175SOPE   C2219858   0.253   1.531  10.196  0.7002 -0.3157 -0.7176
  175SOPE   H2R19859   0.355   1.509  10.234  1.1816  0.7121 -1.3626
  175SOPE   H2S19860   0.231   1.634  10.230 -1.4029 -0.7674 -0.6176
  175SOPE    C319861  -0.101   1.234  10.141 -0.3387 -0.9207 -0.2119
  175SOPE    HX19862  -0.137   1.292  10.054  3.4427 -0.2147 -1.5047
  175SOPE    HY19863  -0.186   1.170  10.172 -1.8889  0.8852 -0.6096
  175SOPE   O3119864   0.001   1.140  10.107  0.2989  0.6797 -0.0494
  175SOPE   C3119865   0.053   1.162   9.980 -0.0423  0.7494  0.3512
  175SOPE   O3219866   0.008   1.242   9.895  1.0097  0.5112  0.1864
  175SOPE   C3219867   0.166   1.057   9.958  0.4181 -0.3229  0.2486
  175SOPE   H2X19868   0.131   0.953   9.974  1.8829 -0.6209  1.7670
  175SOPE   H2Y19869   0.245   1.096  10.024  0.6082 -0.5771  0.1753
  175SOPE   C2319870   0.262   1.522  10.041 -0.3729 -0.3614  0.8541
  175SOPE   H3R19871   0.297   1.620  10.003  0.8325 -0.9454  0.3807
  175SOPE   H3S19872   0.170   1.503   9.982 -0.9008 -1.4358  1.9698
  175SOPE   C2419873   0.371   1.424   9.989  0.1720 -0.3998 -0.1804
  175SOPE   H4R19874   0.469   1.467  10.018 -0.5239  2.6617 -1.9455
  175SOPE   H4S19875   0.350   1.321  10.024 -1.2379 -0.5064 -1.2573
  175SOPE   C2519876   0.390   1.422   9.832  0.2722  0.4002  0.1030
  175SOPE   H5R19877   0.448   1.330   9.809  1.5209  1.0384  0.6527
  175SOPE   H5S19878   0.288   1.412   9.789 -0.0928 -0.5259  1.1259
  175SOPE   C2619879   0.470   1.536   9.778 -0.3185 -0.1617 -0.3273
  175SOPE   H6R19880   0.433   1.637   9.806  1.0811  0.1244  0.6103
  175SOPE   H6S19881   0.566   1.524   9.832 -0.6635 -1.3180  0.0549
  175SOPE   C2719882   0.489   1.511   9.631 -0.0195  0.1670  0.5986
  175SOPE   H7R19883   0.566   1.587   9.602 -0.8752 -0.4512 -4.1481
  175SOPE   H7S19884   0.534   1.411   9.613  2.2392  0.9154  1.6756
  175SOPE   C2819885   0.362   1.532   9.543 -0.3205  0.3215  0.2646
  175SOPE   H8R19886   0.291   1.450   9.565 -1.2467  1.1169  0.2654
  175SOPE   H8S19887   0.298   1.617   9.573  0.4863 -0.0657  3.4119
  175SOPE   C2919888   0.394   1.535   9.394  0.3690 -0.4937  0.6950
  175SOPE   H9119889   0.439   1.631   9.362 -1.2550 -0.6143 -2.2919
  175SOPE  C21019890   0.390   1.450   9.290  0.0520 -0.0933  0.1499
  175SOPE  H10119891   0.416   1.490   9.191 -1.0464 -1.0289 -0.5372
  175SOPE  C21119892   0.351   1.309   9.302  0.5652  0.3310  0.4411
  175SOPE  H11R19893   0.392   1.268   9.397 -0.2188  0.2817  0.7654
  175SOPE  H11S19894   0.373   1.248   9.211  0.9882  0.7759  0.2457
  175SOPE  C21219895   0.200   1.299   9.306  0.0149 -0.1313 -0.5394
  175SOPE  H12R19896   0.135   1.376   9.259 -1.2286 -1.1780 -0.6018
  175SOPE  H12S19897   0.170   1.310   9.412 -2.9316 -1.3850 -1.1132
  175SOPE  C21319898   0.133   1.172   9.248 -0.0572 -0.5079 -0.1575
  175SOPE  H13R19899   0.045   1.145   9.310  1.4541 -0.3975  2.1467
  175SOPE  H13S19900   0.196   1.080   9.247  0.5629 -0.1348 -2.4870
  175SOPE  C21419901   0.085   1.180   9.094 -0.7078  0.4469 -0.3315
  175SOPE  H14R19902   0.164   1.208   9.022 -1.8370 -1.0489 -2.2518
  175SOPE  H14S19903   0.012   1.264   9.090 -2.1717 -0.8151 -1.5427
  175SOPE  C21519904   0.031   1.049   9.043 -0.3925  0.1350 -0.7889
  175SOPE  H15R19905  -0.058   1.040   9.109  0.9692  2.4767  1.5430
  175SOPE  H15S19906   0.109   0.971   9.052  1.7587  2.1084 -1.3199
  175SOPE  C21619907  -0.009   1.060   8.902  0.1188 -0.5501 -0.7640
  175SOPE  H16R19908   0.079   1.079   8.837  1.5786 -1.6967  0.7825
  175SOPE  H16S19909  -0.074   1.150   8.910  2.3068  0.9632  1.2957
  175SOPE  C21719910  -0.088   0.942   8.849  0.5868  0.0739 -0.0156
  175SOPE  H17R19911  -0.180   0.928   8.909 -1.6354  3.6983 -2.2528
  175SOPE  H17S19912  -0.022   0.853   8.855  1.4869  0.7804  0.9775
  175SOPE  C21819913  -0.124   0.977   8.708 -0.0184 -0.1439  0.5766
  175SOPE  H18R19914  -0.161   0.889   8.652  1.9051 -1.6046  1.4967
  175SOPE  H18S19915  -0.030   0.999   8.653 -0.1682 -1.3431 -0.1840
  175SOPE  H18T19916  -0.186   1.069   8.707  1.7511  1.0888  0.1825
  175SOPE   C3319917   0.223   1.074   9.816 -0.3913  0.3921 -0.1384
  175SOPE   H3X19918   0.228   1.178   9.777 -0.2589  0.2056 -0.6224
  175SOPE   H3Y19919   0.162   1.009   9.749  1.8089  0.4318 -2.2974
  175SOPE   C3419920   0.363   1.018   9.805  0.4749 -0.8363  0.2176
  175SOPE   H4X19921   0.359   0.907   9.816  1.0949 -1.0222 -1.2474
  175SOPE   H4Y19922   0.431   1.066   9.878  0.1257  2.1929 -1.2864
  175SOPE   C3519923   0.421   1.023   9.663  0.4981  0.0895 -0.5141
  175SOPE   H5X19924   0.417   1.124   9.616 -1.5542 -0.3157 -1.2826
  175SOPE   H5Y19925   0.381   0.938   9.605  1.2162 -1.0139  0.5383
  175SOPE   C3619926   0.573   1.004   9.680  1.0380 -0.3478  0.3371
  175SOPE   H6X19927   0.592   0.904   9.724  0.1035 -0.2463  1.0069
  175SOPE   H6Y19928   0.619   1.084   9.742  0.6782  1.7108 -1.9090
  175SOPE   C3719929   0.646   1.012   9.541  0.5453  0.1436 -0.2279
  175SOPE   H7X19930   0.751   0.975   9.545  1.1120  1.6193 -0.6478
  175SOPE   H7Y19931   0.642   1.118   9.507 -0.9121  0.1646 -0.0295
  175SOPE   C3819932   0.591   0.939   9.421 -0.0561 -0.7845 -0.6739
  175SOPE   H8X19933   0.482   0.959   9.416 -0.3042 -1.8744 -0.0362
  175SOPE   H8Y19934   0.609   0.829   9.432 -0.7983 -0.6966  2.2508
  175SOPE   C3919935   0.654   0.982   9.288 -0.4387 -0.1214 -0.5306
  175SOPE   H9X19936   0.759   0.950   9.274 -0.6171 -1.7543  1.3792
  175SOPE   H9Y19937   0.645   1.093   9.279  0.6107  0.4709  3.5632
  175SOPE  C31019938   0.560   0.936   9.168 -0.4162 -0.6549 -0.2773
  175SOPE  H10X19939   0.454   0.959   9.190 -0.3202 -1.0278  0.5921
  175SOPE  H10Y19940   0.577   0.827   9.153  1.7947 -0.2048 -1.4891
  175SOPE  C31119941   0.608   1.000   9.036  0.1481 -0.0175  0.1698
  175SOPE  H11X19942   0.696   0.947   8.993 -0.7137  0.4525 -2.3724
  175SOPE  H11Y19943   0.629   1.108   9.053  0.6264  0.3218 -2.2384
  175SOPE  C31219944   0.499   1.014   8.925  0.2918  0.8976 -0.1739
  175SOPE  H12X19945   0.544   1.073   8.842  1.3987 -0.6577 -0.7275
  175SOPE  H12Y19946   0.405   1.066   8.953 -0.5913 -0.1623 -1.0444
  175SOPE  C31319947   0.450   0.876   8.875  0.8982 -0.4420 -0.1973
  175SOPE  H13X19948   0.372   0.840   8.945  0.7658  0.0916 -0.0686
  175SOPE  H13Y19949   0.537   0.806   8.876  0.8704 -0.5297  2.1194
  175SOPE  C31419950   0.381   0.878   8.732 -0.2253  0.4387 -0.3759
  175SOPE  H14X19951   0.445   0.934   8.660 -2.4281  1.2384 -1.8126
  175SOPE  H14Y19952   0.285   0.933   8.739  0.3123  1.7385 -2.4401
  175SOPE  C31519953   0.365   0.743   8.663  0.3389 -0.0057  0.3317
  175SOPE  H15X19954   0.289   0.676   8.707  0.6872 -0.5267  0.1502
  175SOPE  H15Y19955   0.459   0.684   8.662  0.8395  0.7884  0.1139
  175SOPE  C31619956   0.336   0.772   8.508 -0.3178 -0.1328 -0.4944
  175SOPE  H16X19957   0.269   0.856   8.481 -0.1552 -0.5445 -2.3733
  175SOPE  H16Y19958   0.300   0.675   8.466  0.6619 -0.3894 -0.7724
  175SOPE  C31719959   0.467   0.800   8.425  0.3235  0.2216 -0.3714
  175SOPE  H17X19960   0.542   0.719   8.436  2.5250  2.3583  1.2492
  175SOPE  H17Y19961   0.515   0.888   8.474  1.5889 -1.4351  1.5506
  175SOPE  C31819962   0.437   0.827   8.279  0.3263 -0.7426 -0.0705
  175SOPE  H18X19963   0.387   0.739   8.234  0.8073 -0.8714 -0.3612
  175SOPE  H18Y19964   0.526   0.849   8.215  0.5305  0.2549  0.5225
  175SOPE  H18Z19965   0.367   0.912   8.266  1.6166  0.7413  1.9911
  176SOPE     N19966   5.978   5.611  10.940  0.1639  0.5099  0.2734
  176SOPE   HN119967   6.036   5.573  10.863 -1.7255 -2.4567  0.1681
  176SOPE   HN219968   5.945   5.527  10.992  0.1199 -0.2706 -0.9784
  176SOPE   HN319969   5.891   5.659  10.910 -0.7980 -0.1216  1.8892
  176SOPE   C1219970   6.057   5.702  11.026 -0.0139 -0.8157  0.1330
  176SOPE  H12A19971   6.128   5.642  11.086  0.5763 -0.8902 -0.6282
  176SOPE  H12B19972   5.990   5.764  11.089  1.2360 -0.5353  1.2285
  176SOPE   C1119973   6.131   5.802  10.933  0.2390  0.4339 -0.6760
  176SOPE  H11A19974   6.204   5.733  10.886 -2.1324 -2.4421 -0.4267
  176SOPE  H11B19975   6.186   5.883  10.985 -0.9002 -0.1080  1.5370
  176SOPE     P19976   5.996   6.006  10.843  0.3852 -0.2828  0.0435
  176SOPE   O1319977   5.965   6.035  10.987  0.4917  0.8445  0.1462
  176SOPE   O1419978   5.887   6.041  10.747  0.4250  0.7890 -0.6420
  176SOPE   O1219979   6.035   5.850  10.833 -0.4848  0.5580  0.2291
  176SOPE   O1119980   6.129   6.070  10.804  0.1515  0.0642  0.7530
  176SOPE    C119981   6.217   6.024  10.701  0.0591 -0.2658 -0.5738
  176SOPE    HA19982   6.187   5.923  10.665  0.2883 -1.2625  1.8323
  176SOPE    HB19983   6.323   6.014  10.731  1.0925  0.9324 -3.4702
  176SOPE    C219984   6.203   6.117  10.574 -0.0553 -0.3203 -0.6904
  176SOPE    HS19985   6.218   6.218  10.615 -2.4397 -0.0887 -0.2418
  176SOPE   O2119986   6.069   6.103  10.520  0.2281  0.3021  0.6649
  176SOPE   C2119987   5.994   6.211  10.496 -0.3105 -0.2918 -0.3774
  176SOPE   O2219988   6.021   6.322  10.548  0.2021  0.7440  0.1774
  176SOPE   C2219989   5.872   6.179  10.409 -0.6401  0.4716 -0.0276
  176SOPE   H2R19990   5.817   6.275  10.415 -0.1817  0.7866 -0.7422
  176SOPE   H2S19991   5.834   6.092  10.467  3.0668 -0.1692  1.7195
  176SOPE    C319992   6.303   6.091  10.454 -0.2885  0.2522 -0.0376
  176SOPE    HX19993   6.274   5.988  10.425  1.8127  0.0826 -1.7793
  176SOPE    HY19994   6.407   6.085  10.492  0.1316  1.4506 -0.9192
  176SOPE   O3119995   6.294   6.177  10.341  0.2339 -0.0130 -0.2395
  176SOPE   C3119996   6.329   6.306  10.372  0.1101  0.1889 -0.2138
  176SOPE   O3219997   6.394   6.340  10.470  0.0955  0.0815  0.3547
  176SOPE   C3219998   6.288   6.404  10.259  0.2278 -1.1246 -0.3768
  176SOPE   H2X19999   6.323   6.504  10.292 -0.6001 -0.1357 -2.3242
  176SOPE   H2Y20000   6.177   6.405  10.256  0.2484 -1.2109 -1.5800
  176SOPE   C2320001   5.912   6.154  10.260 -0.4935 -0.4522 -0.2677
  176SOPE   H3R20002   5.968   6.243  10.225  1.9360 -0.4824  3.0590
  176SOPE   H3S20003   5.812   6.157  10.211 -1.6149 -2.6719  1.7045
  176SOPE   C2420004   5.997   6.023  10.222  0.0406 -0.1827 -0.6785
  176SOPE   H4R20005   6.094   6.026  10.276 -0.3315 -0.5117  0.0243
  176SOPE   H4S20006   5.929   5.942  10.254  0.2781 -0.1754 -0.1476
  176SOPE   C2520007   6.016   6.013  10.076 -0.5901  0.3402 -0.2918
  176SOPE   H5R20008   5.918   5.998  10.026 -1.8816  1.7548  1.7154
  176SOPE   H5S20009   6.063   6.108  10.042  0.5470  0.3764  1.2887
  176SOPE   C2620010   6.114   5.901  10.049 -0.2294 -0.0260 -0.1738
  176SOPE   H6R20011   6.218   5.942  10.050 -1.0124  2.0872  1.2953
  176SOPE   H6S20012   6.111   5.832  10.136  2.0497  1.6599  1.3701
  176SOPE   C2720013   6.098   5.822   9.918  0.0696  0.0313 -1.1653
  176SOPE   H7R20014   6.164   5.734   9.934  0.1699  0.4367  1.0551
  176SOPE   H7S20015   5.997   5.780   9.903  0.2213 -0.7423 -0.1716
  176SOPE   C2820016   6.151   5.884   9.792 -0.3177 -0.2356  0.3335
  176SOPE   H8R20017   6.250   5.930   9.814 -0.1810  0.5949 -1.8169
  176SOPE   H8S20018   6.161   5.803   9.716  1.5454  2.1743 -2.2006
  176SOPE   C2920019   6.071   5.996   9.734  0.3297 -0.1254  0.5824
  176SOPE   H9120020   6.020   6.041   9.821  2.1260  2.9983  0.1816
  176SOPE  C21020021   6.062   6.053   9.608  0.3709  0.0372 -0.3899
  176SOPE  H10120022   5.992   6.137   9.601  0.3831  0.1718  0.7852
  176SOPE  C21120023   6.134   6.015   9.481  0.4996  0.6286 -0.2673
  176SOPE  H11R20024   6.197   5.926   9.503 -1.1758 -0.8034 -1.0320
  176SOPE  H11S20025   6.210   6.094   9.459  3.2248 -1.7628 -0.1252
  176SOPE  C21220026   6.042   6.008   9.363  0.4428  0.3914 -0.5374
  176SOPE  H12R20027   6.001   6.109   9.341 -0.7927 -0.2094 -1.0640
  176SOPE  H12S20028   5.962   5.938   9.392  0.1616  0.0356 -2.0610
  176SOPE  C21320029   6.117   5.946   9.239  0.1293  0.1684  0.7319
  176SOPE  H13R20030   6.173   5.859   9.279 -1.6162 -0.8541  1.0875
  176SOPE  H13S20031   6.183   6.027   9.202 -0.6724  0.1198 -0.9243
  176SOPE  C21420032   6.028   5.891   9.131  0.2321  0.7042 -0.0303
  176SOPE  H14R20033   5.973   5.805   9.175  1.3340  0.4838  0.9850
  176SOPE  H14S20034   6.090   5.847   9.050  2.4931  1.1298  1.3492
  176SOPE  C21520035   5.932   5.995   9.067 -0.3443  0.6487  0.0967
  176SOPE  H15R20036   6.004   6.071   9.032 -0.6783 -0.4331 -3.2476
  176SOPE  H15S20037   5.866   6.041   9.144 -0.0907 -1.4626  1.6617
  176SOPE  C21620038   5.853   5.954   8.948 -0.0674  0.1858  0.7130
  176SOPE  H16R20039   5.772   5.887   8.983  1.4313 -0.8469  2.4203
  176SOPE  H16S20040   5.918   5.885   8.891 -0.0202  0.0503  0.9270
  176SOPE  C21720041   5.798   6.079   8.883  0.1868 -0.7735  0.2334
  176SOPE  H17R20042   5.887   6.138   8.853 -1.6796  0.5932 -3.1242
  176SOPE  H17S20043   5.748   6.139   8.962  1.3186 -0.7771  0.9692
  176SOPE  C21820044   5.715   6.059   8.758 -0.2380 -0.4761 -0.1349
  176SOPE  H18R20045   5.684   6.157   8.715 -1.0978 -0.7237 -0.0927
  176SOPE  H18S20046   5.623   6.005   8.788 -0.1620 -0.6525 -0.2151
  176SOPE  H18T20047   5.776   6.001   8.686  1.1236  0.3957  0.2763
  176SOPE   C3320048   6.335   6.357  10.124  0.0094 -0.0993  0.3332
  176SOPE   H3X20049   6.310   6.250  10.108  1.3190 -0.4288  0.3166
  176SOPE   H3Y20050   6.445   6.358  10.109  0.2157 -0.5800  1.6506
  176SOPE   C3420051   6.272   6.446  10.015 -0.9661 -0.0555 -0.4254
  176SOPE   H4X20052   6.294   6.554  10.029  0.7690 -0.1694 -1.8969
  176SOPE   H4Y20053   6.161   6.436  10.011 -0.8397 -2.3174  0.1450
  176SOPE   C3520054   6.324   6.403   9.873 -0.1072 -0.2766  0.7743
  176SOPE   H5X20055   6.294   6.297   9.856  0.5798 -0.3324 -0.1322
  176SOPE   H5Y20056   6.434   6.411   9.859 -0.0354 -0.8699  0.9498
  176SOPE   C3620057   6.249   6.470   9.752 -0.1416 -0.8841 -0.5405
  176SOPE   H6X20058   6.260   6.580   9.747 -0.9921 -0.8281 -1.5079
  176SOPE   H6Y20059   6.142   6.453   9.779 -0.3262  2.4578  1.3344
  176SOPE   C3720060   6.278   6.398   9.621  0.8243 -0.2799 -0.2688
  176SOPE   H7X20061   6.246   6.291   9.624  0.2100 -0.1578 -1.7999
  176SOPE   H7Y20062   6.387   6.395   9.599  0.7624 -2.4448 -0.5691
  176SOPE   C3820063   6.196   6.469   9.505  0.3864  0.8201 -0.8231
  176SOPE   H8X20064   6.236   6.571   9.489 -0.0663  0.5220 -4.8629
  176SOPE   H8Y20065   6.090   6.471   9.537  0.4012  2.2346 -0.8091
  176SOPE   C3920066   6.218   6.402   9.367 -0.5633 -0.1024  0.1962
  176SOPE   H9X20067   6.162   6.307   9.356  1.7349 -1.2895 -2.5617
  176SOPE   H9Y20068   6.326   6.375   9.363 -0.9550 -1.6564 -0.8193
  176SOPE  C31020069   6.166   6.489   9.255 -0.6748 -0.3314 -0.4032
  176SOPE  H10X20070   6.228   6.580   9.245 -1.4996  0.1396 -1.4000
  176SOPE  H10Y20071   6.062   6.523   9.274  0.0803  4.1354 -2.8654
  176SOPE  C31120072   6.160   6.427   9.117 -0.0819  0.1042  0.5370
  176SOPE  H11X20073   6.120   6.513   9.060 -1.6356 -1.7788 -1.3871
  176SOPE  H11Y20074   6.076   6.356   9.132  0.0202 -0.1110  0.0984
  176SOPE  C31220075   6.293   6.372   9.064 -0.5076 -0.2872 -0.0306
  176SOPE  H12X20076   6.313   6.280   9.123 -0.0782  0.6877  1.4182
  176SOPE  H12Y20077   6.376   6.438   9.097 -1.4062  1.4083 -1.0202
  176SOPE  C31320078   6.302   6.345   8.909 -0.0948 -0.4104 -0.4916
  176SOPE  H13X20079   6.412   6.337   8.895  0.7571  3.2650  2.4384
  176SOPE  H13Y20080   6.277   6.431   8.843  1.5506 -0.6656 -1.5088
  176SOPE  C31420081   6.230   6.219   8.861 -0.0243  0.0081 -0.1496
  176SOPE  H14X20082   6.143   6.250   8.799 -0.3906 -0.0001  0.3546
  176SOPE  H14Y20083   6.184   6.161   8.944  0.8986  0.3826  0.6366
  176SOPE  C31520084   6.309   6.128   8.767 -0.4299  0.4284 -0.1596
  176SOPE  H15X20085   6.408   6.092   8.802 -0.7894  0.3278  0.7947
  176SOPE  H15Y20086   6.333   6.181   8.673  1.1414  0.8356  0.4388
  176SOPE  C31620087   6.232   5.999   8.740  0.1392 -0.1452 -0.0310
  176SOPE  H16X20088   6.137   6.039   8.699  1.6968  1.7995 -1.9744
  176SOPE  H16Y20089   6.215   5.939   8.832  1.4348  0.2846  0.5044
  176SOPE  C31720090   6.306   5.917   8.631 -0.2338  0.5696 -0.4056
  176SOPE  H17X20091   6.406   5.907   8.679  0.4393  0.5020 -1.7819
  176SOPE  H17Y20092   6.324   5.974   8.537  0.6882  1.0192  0.0298
  176SOPE  C31820093   6.243   5.781   8.610 -0.6002  0.8832 -0.2041
  176SOPE  H18X20094   6.269   5.720   8.700  1.9845 -1.6263 -2.4769
  176SOPE  H18Y20095   6.290   5.726   8.526 -0.2326 -0.3868  0.7940
  176SOPE  H18Z20096   6.134   5.776   8.590 -0.4782  0.9712 -0.8873
  177SOPE     N20097   4.872   5.536  10.815 -0.1174  0.1788 -0.3776
  177SOPE   HN120098   4.910   5.632  10.826  1.6563 -0.7044  2.0260
  177SOPE   HN220099   4.917   5.495  10.731  1.8993  1.0419  0.2204
  177SOPE   HN320100   4.768   5.542  10.813 -0.1876 -0.9583 -1.1093
  177SOPE   C1220101   4.933   5.460  10.929 -0.2417  0.3600  0.0109
  177SOPE  H12A20102   4.866   5.375  10.953  2.0894 -1.7093 -0.4129
  177SOPE  H12B20103   4.938   5.518  11.024  0.2491 -1.9024  1.4311
  177SOPE   C1120104   5.069   5.407  10.897  0.6673  0.3664 -0.4100
  177SOPE  H11A20105   5.127   5.493  10.858 -1.9335  0.9393 -3.4588
  177SOPE  H11B20106   5.065   5.335  10.813 -3.8290 -1.3247  0.9862
  177SOPE     P20107   5.089   5.198  11.056  0.3051  0.4246  0.3845
  177SOPE   O1320108   4.946   5.201  11.107 -0.2020 -0.0097 -0.1366
  177SOPE   O1420109   5.192   5.141  11.145  0.3838  0.2968  0.4385
  177SOPE   O1220110   5.129   5.343  11.014 -0.1689 -0.6947  0.4159
  177SOPE   O1120111   5.080   5.121  10.914 -0.0187 -0.0239  0.2137
  177SOPE    C120112   5.188   5.101  10.836 -0.1898 -0.1664 -0.4402
  177SOPE    HA20113   5.257   5.023  10.874  1.6510  1.2643 -0.6281
  177SOPE    HB20114   5.244   5.197  10.829 -0.5026 -0.0112 -0.8330
  177SOPE    C220115   5.151   5.073  10.683  0.1353 -0.9342 -0.1399
  177SOPE    HS20116   5.060   5.135  10.668  0.4882 -0.6205 -1.0660
  177SOPE   O2120117   5.125   4.930  10.671  0.1679 -0.5647  0.0527
  177SOPE   C2120118   5.040   4.902  10.570  0.5169  0.1412 -0.2481
  177SOPE   O2220119   4.982   4.989  10.504 -0.0938  0.4281  0.0057
  177SOPE   C2220120   5.029   4.749  10.548 -0.0876 -0.3446 -0.4916
  177SOPE   H2R20121   4.932   4.705  10.579 -0.1899 -1.9604 -2.8318
  177SOPE   H2S20122   5.104   4.708  10.619 -1.6089 -0.4008  1.1538
  177SOPE    C320123   5.271   5.113  10.590 -0.1508  0.0423 -0.6720
  177SOPE    HX20124   5.361   5.057  10.624 -1.5024 -2.8321 -1.5094
  177SOPE    HY20125   5.302   5.218  10.609  0.6171 -0.4685  1.1136
  177SOPE   O3120126   5.250   5.087  10.456  0.3580 -0.4268  0.3066
  177SOPE   C3120127   5.169   5.170  10.392 -0.0875  0.3621 -0.0155
  177SOPE   O3220128   5.124   5.276  10.437  0.6389  0.5421  0.0802
  177SOPE   C3220129   5.146   5.124  10.246  0.2354 -0.9379  0.5271
  177SOPE   H2X20130   5.159   5.015  10.228  0.8677 -0.4911 -2.0836
  177SOPE   H2Y20131   5.230   5.167  10.188 -1.1522  1.6796  0.2893
  177SOPE   C2320132   5.042   4.720  10.396 -0.6571 -0.1773 -0.2013
  177SOPE   H3R20133   4.966   4.768  10.331 -0.2004 -0.3561 -0.8669
  177SOPE   H3S20134   5.021   4.612  10.404  0.6863 -0.5352 -1.2455
  177SOPE   C2420135   5.186   4.730  10.342  0.5816 -0.3637  0.5599
  177SOPE   H4R20136   5.202   4.840  10.343  0.5179 -0.3549  0.6150
  177SOPE   H4S20137   5.255   4.692  10.420  0.6964  0.5322  0.9077
  177SOPE   C2520138   5.212   4.677  10.202 -0.2732 -0.3907 -0.3319
  177SOPE   H5R20139   5.322   4.672  10.191 -0.2195  2.0509 -1.6183
  177SOPE   H5S20140   5.178   4.571  10.199  0.0760 -0.4955 -2.3190
  177SOPE   C2620141   5.144   4.747  10.078  0.4202  0.4701 -0.2146
  177SOPE   H6R20142   5.036   4.724  10.092  0.3807 -0.8604 -2.3878
  177SOPE   H6S20143   5.162   4.857  10.087  1.6414  0.4003 -1.5815
  177SOPE   C2720144   5.175   4.690   9.944 -0.3507 -0.5817  0.0808
  177SOPE   H7R20145   5.285   4.696   9.932 -0.2895 -1.4655  0.1377
  177SOPE   H7S20146   5.158   4.581   9.937  1.4748 -0.8321 -1.2093
  177SOPE   C2820147   5.109   4.762   9.827  0.6114  0.1590  0.1430
  177SOPE   H8R20148   5.119   4.680   9.752  0.7431 -1.1087  1.5020
  177SOPE   H8S20149   5.004   4.785   9.856  0.9124 -0.7967  2.2157
  177SOPE   C2920150   5.180   4.892   9.797  0.9373  0.0389  0.4552
  177SOPE   H9120151   5.199   4.952   9.887 -2.2167  1.6324  0.2058
  177SOPE  C21020152   5.224   4.926   9.676  0.8426 -0.1049 -0.0933
  177SOPE  H10120153   5.256   5.031   9.664 -1.8739  0.8867  0.6855
  177SOPE  C21120154   5.204   4.843   9.554  0.1240 -0.0340 -0.1930
  177SOPE  H11R20155   5.104   4.796   9.561 -1.0911  2.6075  3.1454
  177SOPE  H11S20156   5.272   4.756   9.539  1.7412  1.3624 -1.3645
  177SOPE  C21220157   5.215   4.927   9.426 -0.0908  0.5665 -0.8191
  177SOPE  H12R20158   5.318   4.969   9.418 -0.6861  2.9191  2.1104
  177SOPE  H12S20159   5.151   5.017   9.437  0.3759  0.8192 -0.0183
  177SOPE  C21320160   5.179   4.851   9.306 -0.0372  0.0834 -0.4449
  177SOPE  H13R20161   5.074   4.817   9.317 -0.4301  1.3024 -0.3549
  177SOPE  H13S20162   5.233   4.755   9.291 -0.0174  0.0023  0.1255
  177SOPE  C21420163   5.184   4.940   9.182 -0.1145  0.2191 -0.5396
  177SOPE  H14R20164   5.292   4.959   9.167  0.1487  0.4921  1.4528
  177SOPE  H14S20165   5.136   5.036   9.209 -1.9490 -0.9876  0.7731
  177SOPE  C21520166   5.114   4.869   9.066  0.1470 -0.3771  0.3704
  177SOPE  H15R20167   5.008   4.838   9.081  0.4961 -1.7123  0.1953
  177SOPE  H15S20168   5.166   4.771   9.065  0.4252 -0.2290  0.1562
  177SOPE  C21620169   5.133   4.938   8.931 -0.3113  0.7049 -0.2410
  177SOPE  H16R20170   5.113   5.047   8.938  0.6440  0.9491 -1.0480
  177SOPE  H16S20171   5.072   4.885   8.855 -0.6097  1.0461 -0.2422
  177SOPE  C21720172   5.274   4.924   8.874 -0.0165  0.3090  0.9349
  177SOPE  H17R20173   5.328   4.844   8.929  0.4738 -0.0366 -0.0155
  177SOPE  H17S20174   5.310   5.027   8.893 -0.1361  1.0347 -2.2114
  177SOPE  C21820175   5.284   4.907   8.723  0.5695  0.1611  0.8706
  177SOPE  H18R20176   5.221   4.824   8.685  0.3733  1.3209 -1.5746
  177SOPE  H18S20177   5.392   4.899   8.698  0.5176  1.9135 -0.0358
  177SOPE  H18T20178   5.231   4.995   8.681 -1.2463 -1.6475 -0.8467
  177SOPE   C3320179   5.002   5.172  10.195 -0.1189  0.9438 -0.1789
  177SOPE   H3X20180   4.991   5.282  10.202 -3.0751  0.8148 -1.3293
  177SOPE   H3Y20181   4.920   5.128  10.255  0.5436  2.7179  2.1688
  177SOPE   C3420182   4.980   5.145  10.043  0.1360 -0.2242  0.1493
  177SOPE   H4X20183   4.974   5.037  10.015 -0.3829 -0.1778  0.0708
  177SOPE   H4Y20184   5.065   5.182   9.983  2.1052 -0.8386  2.4097
  177SOPE   C3520185   4.846   5.212   9.999 -0.5746  0.1712 -0.1664
  177SOPE   H5X20186   4.876   5.317   9.979 -3.3246  0.9507 -0.6317
  177SOPE   H5Y20187   4.795   5.199  10.097 -1.7480 -0.3964 -0.8360
  177SOPE   C3620188   4.780   5.151   9.872  0.2721 -0.2369  0.7870
  177SOPE   H6X20189   4.672   5.178   9.872  0.0300 -1.1812  0.4329
  177SOPE   H6Y20190   4.773   5.040   9.877  0.3669 -0.2907 -0.0781
  177SOPE   C3720191   4.843   5.197   9.740 -0.1137  0.3372  0.0533
  177SOPE   H7X20192   4.945   5.153   9.732 -1.2867 -2.8030  0.8596
  177SOPE   H7Y20193   4.842   5.308   9.734 -0.8492  0.3983  0.9883
  177SOPE   C3820194   4.763   5.146   9.617 -1.0099 -0.4857  0.1293
  177SOPE   H8X20195   4.655   5.171   9.622 -0.7517  0.4519  1.6289
  177SOPE   H8Y20196   4.767   5.035   9.623 -1.7711 -0.4892  0.7855
  177SOPE   C3920197   4.825   5.194   9.486  0.5265 -0.4471  0.1536
  177SOPE   H9X20198   4.928   5.156   9.468  0.1967 -1.9420  1.2067
  177SOPE   H9Y20199   4.820   5.305   9.482  1.2135 -0.4322 -0.6688
  177SOPE  C31020200   4.722   5.146   9.379  0.2402  0.0874 -0.9239
  177SOPE  H10X20201   4.627   5.198   9.404  0.9514  1.2779 -0.6036
  177SOPE  H10Y20202   4.701   5.039   9.397  0.5466 -0.2200 -2.2309
  177SOPE  C31120203   4.762   5.183   9.234  0.6782 -0.3237 -0.5474
  177SOPE  H11X20204   4.860   5.137   9.209 -1.3936 -4.4648 -2.0197
  177SOPE  H11Y20205   4.784   5.291   9.239  1.0312 -0.4321  0.4289
  177SOPE  C31220206   4.656   5.148   9.132 -0.2298 -0.5898  0.3715
  177SOPE  H12X20207   4.559   5.184   9.172  1.1471  0.3161  3.1426
  177SOPE  H12Y20208   4.653   5.037   9.120  0.3794 -0.6395  0.6438
  177SOPE  C31320209   4.675   5.228   9.009  0.3246 -0.0083  0.8522
  177SOPE  H13X20210   4.769   5.193   8.961 -0.4438 -0.2451 -0.5600
  177SOPE  H13Y20211   4.700   5.335   9.026 -2.0524  0.6366  0.6526
  177SOPE  C31420212   4.563   5.215   8.906  0.0883 -0.1385  0.1724
  177SOPE  H14X20213   4.571   5.298   8.832  1.2931 -1.4206 -1.2076
  177SOPE  H14Y20214   4.463   5.236   8.951 -0.3335  0.7417 -1.1042
  177SOPE  C31520215   4.549   5.083   8.836 -0.1543  0.2768  0.0432
  177SOPE  H15X20216   4.526   5.013   8.919 -1.7284  0.0713 -0.5241
  177SOPE  H15Y20217   4.650   5.074   8.790 -0.6815 -0.5721 -1.0095
  177SOPE  C31620218   4.450   5.072   8.716  0.1062 -0.0594 -0.0715
  177SOPE  H16X20219   4.472   5.147   8.638 -1.2509 -0.4176 -0.8438
  177SOPE  H16Y20220   4.353   5.080   8.770  1.1017 -0.0652  1.8049
  177SOPE  C31720221   4.453   4.929   8.650 -0.4199 -0.0660  0.4675
  177SOPE  H17X20222   4.456   4.857   8.735  1.1556 -0.0621  0.4291
  177SOPE  H17Y20223   4.537   4.942   8.579 -2.5449  4.1507 -1.6261
  177SOPE  C31820224   4.327   4.897   8.567 -0.3783 -0.1221  0.2169
  177SOPE  H18X20225   4.359   4.836   8.480 -0.3679  0.0654  0.0887
  177SOPE  H18Y20226   4.274   4.989   8.534  1.3859  2.0534  2.9668
  177SOPE  H18Z20227   4.248   4.844   8.625 -1.7411 -0.3843 -1.7688
  178SOPE     N20228   2.907   1.518  11.115 -0.0535  0.5275  0.2295
  178SOPE   HN120229   2.935   1.481  11.208  0.0333 -0.9168 -0.3524
  178SOPE   HN220230   2.861   1.609  11.137  0.7131  0.3826  2.8019
  178SOPE   HN320231   2.848   1.445  11.072  2.2629 -0.8679 -0.7504
  178SOPE   C1220232   3.038   1.534  11.038  0.0758  0.1003  0.2317
  178SOPE  H12A20233   3.009   1.547  10.932  1.3476 -0.2302 -0.1831
  178SOPE  H12B20234   3.101   1.444  11.056 -1.0857 -0.7506  0.0960
  178SOPE   C1120235   3.115   1.661  11.068  0.0002 -0.7151  0.1616
  178SOPE  H11A20236   3.198   1.685  10.998 -1.4403  1.3652 -0.9187
  178SOPE  H11B20237   3.160   1.649  11.169 -0.5486 -3.6229  0.1274
  178SOPE     P20238   3.005   1.883  10.979 -0.5084 -0.3730 -0.5939
  178SOPE   O1320239   3.111   1.976  11.011 -0.1332 -1.0676 -0.4946
  178SOPE   O1420240   2.870   1.934  11.003  0.1150 -0.8804  0.3579
  178SOPE   O1220241   3.026   1.763  11.082  0.1526 -0.2951 -0.1222
  178SOPE   O1120242   3.016   1.829  10.835 -0.1047  0.5198 -0.0165
  178SOPE    C120243   3.131   1.795  10.756  0.4493  0.1377 -0.1840
  178SOPE    HA20244   3.129   1.687  10.729  1.3440 -0.2061  1.0466
  178SOPE    HB20245   3.226   1.828  10.804 -0.1622  0.8182  0.5780
  178SOPE    C220246   3.124   1.886  10.631  0.1338 -0.2523  0.0166
  178SOPE    HS20247   3.113   1.992  10.660 -1.4334 -0.7179  1.3035
  178SOPE   O2120248   3.005   1.847  10.559  0.0709 -0.1023  0.5651
  178SOPE   C2120249   2.948   1.939  10.481 -0.0296 -0.0373  0.2498
  178SOPE   O2220250   2.994   2.049  10.454  0.1774  0.0767  0.0941
  178SOPE   C2220251   2.806   1.904  10.448  0.1089 -0.0988  0.0035
  178SOPE   H2R20252   2.739   1.919  10.535  1.1708  1.9386  0.5205
  178SOPE   H2S20253   2.804   1.795  10.425 -1.3194 -0.5770  2.1333
  178SOPE    C320254   3.256   1.863  10.551 -0.3233 -0.0289  0.6499
  178SOPE    HX20255   3.271   1.753  10.537 -0.0733 -0.0386  0.9784
  178SOPE    HY20256   3.348   1.899  10.603  0.9119  1.3121 -2.2488
  178SOPE   O3120257   3.246   1.913  10.417  0.3105  0.0513 -0.5036
  178SOPE   C3120258   3.273   2.042  10.408  0.3505 -0.6255 -0.6924
  178SOPE   O3220259   3.322   2.106  10.504 -0.0192  0.4857  0.0399
  178SOPE   C3220260   3.245   2.110  10.275 -0.5898  0.0437 -0.6684
  178SOPE   H2X20261   3.343   2.155  10.246  0.5112 -0.6049  1.8150
  178SOPE   H2Y20262   3.179   2.192  10.312  0.0275 -0.3191  1.3372
  178SOPE   C2320263   2.758   1.981  10.326 -0.1616  0.2698  0.2182
  178SOPE   H3R20264   2.841   2.013  10.259 -1.7351  0.1982 -1.8653
  178SOPE   H3S20265   2.707   2.072  10.364  1.0457  0.0243  2.5714
  178SOPE   C2420266   2.670   1.902  10.233 -0.4437  0.0892 -0.0605
  178SOPE   H4R20267   2.718   1.808  10.198 -1.5238 -0.5214  0.0722
  178SOPE   H4S20268   2.572   1.881  10.281 -1.3413  1.5573 -1.1567
  178SOPE   C2520269   2.637   1.971  10.103 -0.0024 -0.9053 -0.7378
  178SOPE   H5R20270   2.593   2.072  10.114 -1.0305 -1.4830  0.8600
  178SOPE   H5S20271   2.736   1.988  10.057  0.2919 -1.3942 -0.2925
  178SOPE   C2620272   2.552   1.897   9.989 -0.1103  0.0508  0.4657
  178SOPE   H6R20273   2.598   1.796   9.983 -0.4364 -0.0163 -3.6811
  178SOPE   H6S20274   2.452   1.889  10.038  0.2511 -0.2016  1.1755
  178SOPE   C2720275   2.572   1.957   9.850 -0.0282  0.1847 -0.7919
  178SOPE   H7R20276   2.529   2.059   9.857  0.3234  0.2963 -0.2399
  178SOPE   H7S20277   2.681   1.970   9.830  0.2103  0.9451  0.8266
  178SOPE   C2820278   2.486   1.893   9.739  0.1518 -0.9323 -0.1185
  178SOPE   H8R20279   2.512   1.787   9.720 -0.3069 -1.0219 -0.2682
  178SOPE   H8S20280   2.381   1.877   9.772 -1.0579  0.3113 -2.9747
  178SOPE   C2920281   2.514   1.978   9.620  0.5665  0.1987 -0.0063
  178SOPE   H9120282   2.537   2.085   9.632  0.0679  0.2699  0.3312
  178SOPE  C21020283   2.509   1.942   9.492 -0.6458  1.2696 -1.0228
  178SOPE  H10120284   2.502   2.024   9.419  0.1251  0.0281 -2.5301
  178SOPE  C21120285   2.478   1.805   9.442 -0.2190 -0.6805 -0.2616
  178SOPE  H11R20286   2.451   1.736   9.525  1.5907 -0.7227  0.3288
  178SOPE  H11S20287   2.577   1.761   9.419  1.2781  1.9675  0.6323
  178SOPE  C21220288   2.383   1.797   9.321  0.4589  0.0573  0.5277
  178SOPE  H12R20289   2.288   1.841   9.358 -0.0717 -1.9731  1.7299
  178SOPE  H12S20290   2.360   1.690   9.303 -4.3099  1.0656 -0.6447
  178SOPE  C21320291   2.430   1.872   9.198  0.0003  0.1108 -0.1562
  178SOPE  H13R20292   2.534   1.837   9.179 -0.1365  0.2763 -1.2702
  178SOPE  H13S20293   2.417   1.981   9.217 -0.8283 -0.0254  0.0945
  178SOPE  C21420294   2.350   1.831   9.078 -0.8539  0.3971 -0.1023
  178SOPE  H14R20295   2.247   1.799   9.105 -1.0636 -0.2329 -1.5361
  178SOPE  H14S20296   2.395   1.741   9.031  1.0246  2.6050 -2.9660
  178SOPE  C21520297   2.348   1.943   8.976 -0.4519  0.1355 -0.6902
  178SOPE  H15R20298   2.454   1.972   8.959 -0.7475  1.6506 -0.0952
  178SOPE  H15S20299   2.299   2.035   9.014  1.3447  0.8050  0.1406
  178SOPE  C21620300   2.290   1.900   8.840 -0.2324  0.5181 -0.1928
  178SOPE  H16R20301   2.328   1.803   8.803 -0.0849  0.7351 -0.6090
  178SOPE  H16S20302   2.324   1.976   8.767 -1.1399 -0.1019 -1.2934
  178SOPE  C21720303   2.135   1.889   8.832  0.2458  0.6064 -0.0090
  178SOPE  H17R20304   2.098   1.985   8.874  2.2380  0.4673  2.3185
  178SOPE  H17S20305   2.105   1.813   8.907  1.2808  1.8646  1.7829
  178SOPE  C21820306   2.080   1.858   8.695  0.4294  0.5417  0.2104
  178SOPE  H18R20307   2.139   1.766   8.671  0.3745 -1.1937  5.5024
  178SOPE  H18S20308   2.103   1.938   8.621  0.1594  0.1735 -0.2836
  178SOPE  H18T20309   1.972   1.833   8.703  0.6720 -1.1401 -1.0572
  178SOPE   C3320310   3.164   2.026  10.180  0.6347 -0.5233  0.4550
  178SOPE   H3X20311   3.064   2.004  10.222  0.5817  1.7190  1.6455
  178SOPE   H3Y20312   3.221   1.933  10.155 -1.5817 -1.7024 -0.4643
  178SOPE   C3420313   3.135   2.101  10.050  0.1962 -1.0531  0.0537
  178SOPE   H4X20314   3.232   2.128  10.003 -0.3146  2.9471  0.9208
  178SOPE   H4Y20315   3.077   2.195  10.067  1.2475 -0.5287  0.8594
  178SOPE   C3520316   3.079   2.006   9.939 -0.0348 -1.1082  0.2048
  178SOPE   H5X20317   2.972   1.986   9.959 -0.7887  0.1673 -2.2148
  178SOPE   H5Y20318   3.138   1.916   9.910  1.0339  0.2187 -1.9920
  178SOPE   C3620319   3.063   2.081   9.806 -0.1466  0.3581  0.7375
  178SOPE   H6X20320   3.158   2.133   9.780 -0.7501  0.5860 -1.2078
  178SOPE   H6Y20321   2.990   2.164   9.820  0.9598  1.4477  0.2801
  178SOPE   C3720322   3.018   1.997   9.691 -0.1876  0.2541  0.0459
  178SOPE   H7X20323   2.920   1.948   9.709 -0.5003  0.7997 -0.1589
  178SOPE   H7Y20324   3.095   1.921   9.666 -1.1116 -0.6022 -0.2563
  178SOPE   C3820325   2.982   2.089   9.571 -0.0493 -0.1250  0.4004
  178SOPE   H8X20326   3.078   2.125   9.527 -0.5478  1.0995  0.2729
  178SOPE   H8Y20327   2.918   2.172   9.609 -2.2986 -0.6664 -1.9742
  178SOPE   C3920328   2.891   2.024   9.465  0.5739 -0.1506  0.3894
  178SOPE   H9X20329   2.800   1.977   9.508 -0.2678 -1.3195 -2.4510
  178SOPE   H9Y20330   2.952   1.944   9.418  1.3469  1.3013 -1.1632
  178SOPE  C31020331   2.855   2.128   9.359 -0.5884 -0.2650 -0.5436
  178SOPE  H10X20332   2.952   2.178   9.338 -0.7286  0.4804  0.5509
  178SOPE  H10Y20333   2.792   2.201   9.413  0.2523  0.5637 -0.6709
  178SOPE  C31120334   2.796   2.080   9.226  0.1627 -0.4157 -0.1666
  178SOPE  H11X20335   2.716   2.006   9.247  1.6411 -1.7595  1.0961
  178SOPE  H11Y20336   2.888   2.044   9.176 -0.5775 -1.6370 -0.7069
  178SOPE  C31220337   2.735   2.197   9.150 -0.3756 -0.6737  0.2465
  178SOPE  H12X20338   2.708   2.161   9.049  0.2623 -0.3883 -0.0315
  178SOPE  H12Y20339   2.806   2.280   9.128 -2.8071  1.6467  0.6339
  178SOPE  C31320340   2.599   2.252   9.209  0.1339 -0.3914 -0.0116
  178SOPE  H13X20341   2.566   2.178   9.285  3.8837 -1.0094  1.2483
  178SOPE  H13Y20342   2.522   2.264   9.130 -0.1282 -0.0051  0.3001
  178SOPE  C31420343   2.620   2.391   9.269  0.3600 -0.2379  0.9239
  178SOPE  H14X20344   2.720   2.396   9.317  0.5015 -1.4115  0.7888
  178SOPE  H14Y20345   2.544   2.415   9.347 -1.2628  0.4915 -0.8151
  178SOPE  C31520346   2.619   2.498   9.158  0.2656 -0.0670  0.0578
  178SOPE  H15X20347   2.536   2.463   9.093  0.7197 -1.1382  0.0292
  178SOPE  H15Y20348   2.711   2.501   9.096  0.3035  0.5863  0.1360
  178SOPE  C31620349   2.595   2.631   9.221  0.3867 -0.6096  0.1620
  178SOPE  H16X20350   2.628   2.699   9.140 -2.2857 -0.2528 -0.7359
  178SOPE  H16Y20351   2.660   2.647   9.309  0.0260  1.9239  0.0408
  178SOPE  C31720352   2.451   2.678   9.240  0.3059  0.8279 -0.1068
  178SOPE  H17X20353   2.378   2.632   9.171  1.4685 -0.2969 -0.6244
  178SOPE  H17Y20354   2.434   2.786   9.222 -3.2359  0.4985  0.5495
  178SOPE  C31820355   2.398   2.651   9.387 -0.6162 -0.4380  0.8361
  178SOPE  H18X20356   2.466   2.701   9.459  1.7448  0.8223 -2.0947
  178SOPE  H18Y20357   2.385   2.542   9.403 -0.3756 -0.6163 -0.1396
  178SOPE  H18Z20358   2.297   2.695   9.404 -2.0306 -2.0409 -2.5021
  179SOPE     N20359   1.461   3.518   6.278  0.0741  0.1526 -0.1181
  179SOPE   HN120360   1.484   3.594   6.210  0.6715  0.2589  0.1897
  179SOPE   HN220361   1.431   3.427   6.240  1.3038 -0.6413  0.7466
  179SOPE   HN320362   1.383   3.554   6.336  0.6065  0.1492  0.6175
  179SOPE   C1220363   1.582   3.491   6.365 -0.0930  0.1398  0.0844
  179SOPE  H12A20364   1.653   3.574   6.344 -0.7457 -0.1928 -4.2003
  179SOPE  H12B20365   1.616   3.389   6.335 -1.8303 -0.3869 -0.2021
  179SOPE   C1120366   1.535   3.496   6.517 -0.1795 -0.0482 -0.0043
  179SOPE  H11A20367   1.500   3.598   6.542 -1.5609 -0.9155  1.8614
  179SOPE  H11B20368   1.613   3.479   6.595 -0.7878 -1.4805  0.3284
  179SOPE     P20369   1.461   3.258   6.578 -0.2306 -0.2118  0.1949
  179SOPE   O1320370   1.505   3.180   6.457 -0.1182 -0.4982  0.6383
  179SOPE   O1420371   1.359   3.214   6.672 -0.3577  0.0404 -0.0316
  179SOPE   O1220372   1.428   3.403   6.531  0.0223  0.1696 -0.5503
  179SOPE   O1120373   1.596   3.274   6.665 -0.1636 -0.2204  0.8608
  179SOPE    C120374   1.734   3.230   6.635 -0.2618  0.1275 -0.9312
  179SOPE    HA20375   1.804   3.307   6.675  0.1024 -0.8782  0.4217
  179SOPE    HB20376   1.749   3.210   6.527 -0.3649 -0.0501 -0.9127
  179SOPE    C220377   1.759   3.099   6.712 -0.1268 -0.6502  0.3650
  179SOPE    HS20378   1.683   3.022   6.689 -0.0425 -1.0625  1.4168
  179SOPE   O2120379   1.762   3.124   6.849  0.1154  0.4467  0.2322
  179SOPE   C2120380   1.738   3.011   6.928 -0.5574 -0.2175  0.1804
  179SOPE   O2220381   1.716   2.900   6.887 -0.1456  0.7041  0.2782
  179SOPE   C2220382   1.775   3.049   7.069 -0.0137 -0.5229  0.9225
  179SOPE   H2R20383   1.727   3.147   7.092  1.2763  0.5015 -0.5488
  179SOPE   H2S20384   1.886   3.056   7.074 -0.0308  0.0399  0.6441
  179SOPE    C320385   1.897   3.042   6.660  0.3498  0.1203  0.2420
  179SOPE    HX20386   1.970   3.126   6.662  1.4014 -0.7781  1.3833
  179SOPE    HY20387   1.881   3.007   6.555 -2.3542 -0.7789  0.8801
  179SOPE   O3120388   1.966   2.947   6.744 -0.5398  0.3355 -0.6844
  179SOPE   C3120389   2.087   2.902   6.701 -0.4033  0.0502  0.2193
  179SOPE   O3220390   2.131   2.933   6.589 -0.1585  0.0842  0.0732
  179SOPE   C3220391   2.155   2.814   6.814  0.3953 -0.3278 -0.2046
  179SOPE   H2X20392   2.265   2.828   6.800  1.0580 -2.0777  2.5516
  179SOPE   H2Y20393   2.133   2.706   6.804  0.9864 -0.5766  0.9877
  179SOPE   C2320394   1.729   2.940   7.168  0.1976  0.7349 -0.0303
  179SOPE   H3R20395   1.766   2.982   7.264 -0.3609 -1.9698  1.4720
  179SOPE   H3S20396   1.784   2.845   7.153 -0.4654  0.0705  1.4931
  179SOPE   C2420397   1.569   2.914   7.176 -0.0167 -0.2436  0.5556
  179SOPE   H4R20398   1.520   3.005   7.135  1.5916  0.3778 -0.0853
  179SOPE   H4S20399   1.539   2.827   7.113  0.3358 -2.9676  3.8466
  179SOPE   C2520400   1.529   2.887   7.315  0.9308  0.5527  0.1458
  179SOPE   H5R20401   1.442   2.818   7.316  0.7640  0.7173  2.2454
  179SOPE   H5S20402   1.606   2.833   7.375  0.0287  0.9326  1.6774
  179SOPE   C2620403   1.476   3.006   7.399  0.3784 -0.4799  0.0850
  179SOPE   H6R20404   1.560   3.079   7.410  0.3002 -0.5995  1.8194
  179SOPE   H6S20405   1.394   3.065   7.353  2.7449  2.8828 -0.1673
  179SOPE   C2720406   1.428   2.962   7.535  0.4006 -0.3715 -0.7252
  179SOPE   H7R20407   1.383   3.051   7.584  1.4598 -0.9834  1.5125
  179SOPE   H7S20408   1.345   2.888   7.531 -0.5891  0.3973  2.5018
  179SOPE   C2820409   1.536   2.918   7.630 -0.3116 -0.3607  0.1409
  179SOPE   H8R20410   1.488   2.896   7.728 -0.9254 -1.9566 -0.4970
  179SOPE   H8S20411   1.576   2.820   7.598  0.5201  0.4604 -1.4595
  179SOPE   C2920412   1.652   3.014   7.651 -0.4544  0.2236  0.4573
  179SOPE   H9120413   1.729   3.005   7.573 -0.1799  1.6776  0.5367
  179SOPE  C21020414   1.673   3.105   7.748  0.0163  0.0444  0.6789
  179SOPE  H10120415   1.758   3.175   7.743  0.1342 -0.1894 -2.2937
  179SOPE  C21120416   1.585   3.134   7.867  0.4812 -0.0010  0.0242
  179SOPE  H11R20417   1.491   3.075   7.876  0.3554  0.4398  2.1015
  179SOPE  H11S20418   1.561   3.242   7.862 -1.2821 -0.1019  3.2858
  179SOPE  C21220419   1.668   3.109   7.996  0.2149 -0.9047 -0.5503
  179SOPE  H12R20420   1.758   3.173   8.006  0.2414 -0.5521 -2.5378
  179SOPE  H12S20421   1.710   3.006   7.997  1.0137 -0.5750  0.5544
  179SOPE  C21320422   1.578   3.128   8.118  0.0671 -0.3005 -0.5003
  179SOPE  H13R20423   1.487   3.064   8.109 -0.1671  0.0483 -0.6197
  179SOPE  H13S20424   1.540   3.232   8.113  2.0107  0.3864 -3.8153
  179SOPE  C21420425   1.640   3.116   8.254 -0.5088  0.0417 -0.1461
  179SOPE  H14R20426   1.741   3.161   8.260  0.8413 -3.0060  2.5475
  179SOPE  H14S20427   1.660   3.009   8.276 -1.2098  0.3178  2.0691
  179SOPE  C21520428   1.543   3.171   8.365 -0.0395 -0.2502  0.7911
  179SOPE  H15R20429   1.444   3.121   8.362 -0.6377  0.9355  0.1165
  179SOPE  H15S20430   1.520   3.278   8.348  0.3984 -0.4848 -1.7568
  179SOPE  C21620431   1.603   3.151   8.507 -0.4226 -0.7373  0.3880
  179SOPE  H16R20432   1.532   3.181   8.586  1.2585  1.6842  1.0989
  179SOPE  H16S20433   1.693   3.217   8.505 -0.3450 -0.8319 -1.9494
  179SOPE  C21720434   1.641   3.006   8.531  0.6219  0.4553 -0.3776
  179SOPE  H17R20435   1.735   2.987   8.475  1.0563  2.1025 -0.2692
  179SOPE  H17S20436   1.563   2.935   8.496  3.7642 -2.6580 -1.6639
  179SOPE  C21820437   1.661   2.959   8.676 -0.4677 -0.7586 -0.2190
  179SOPE  H18R20438   1.566   2.955   8.733  0.6081 -1.8825  1.6065
  179SOPE  H18S20439   1.732   3.026   8.728  1.7070 -1.9581 -1.4556
  179SOPE  H18T20440   1.700   2.855   8.684 -1.5469 -1.2335 -0.8287
  179SOPE   C3320441   2.109   2.846   6.964 -0.3127  0.7504  0.1144
  179SOPE   H3X20442   1.999   2.826   6.961 -1.1945  4.4990  1.0046
  179SOPE   H3Y20443   2.124   2.956   6.979  0.0260  0.5484  1.4303
  179SOPE   C3420444   2.183   2.760   7.071 -0.2606  0.6091 -0.6735
  179SOPE   H4X20445   2.292   2.751   7.054 -0.6309 -1.8613 -2.3680
  179SOPE   H4Y20446   2.145   2.656   7.060  1.3820 -0.4501  2.6030
  179SOPE   C3520447   2.155   2.814   7.210 -0.1243 -0.5218 -0.0154
  179SOPE   H5X20448   2.054   2.781   7.242 -0.8357  2.2131  0.8307
  179SOPE   H5Y20449   2.159   2.924   7.196 -3.6574 -0.4490 -1.5393
  179SOPE   C3620450   2.245   2.742   7.316 -0.1708  0.0923  0.0051
  179SOPE   H6X20451   2.348   2.773   7.290  0.1882  0.7854  2.0333
  179SOPE   H6Y20452   2.250   2.631   7.318  0.5219  0.1261  0.6185
  179SOPE   C3720453   2.199   2.792   7.464  0.0790 -0.6465  0.8225
  179SOPE   H7X20454   2.089   2.791   7.457  0.0142  2.2125  0.4331
  179SOPE   H7Y20455   2.222   2.900   7.478 -0.1089 -0.6266  0.9908
  179SOPE   C3820456   2.245   2.705   7.584 -0.2729  0.0939  0.4554
  179SOPE   H8X20457   2.354   2.685   7.574 -0.2665 -0.0359  0.7545
  179SOPE   H8Y20458   2.200   2.605   7.569  1.0034 -0.6718  1.5502
  179SOPE   C3920459   2.221   2.761   7.722 -0.4611  0.1904  0.3705
  179SOPE   H9X20460   2.115   2.792   7.734 -0.1662  0.5697  2.2875
  179SOPE   H9Y20461   2.288   2.848   7.733  2.6966 -2.0510  0.3313
  179SOPE  C31020462   2.269   2.670   7.839  1.2029  0.3352 -0.2641
  179SOPE  H10X20463   2.377   2.645   7.833  1.5087  1.8815 -1.6281
  179SOPE  H10Y20464   2.213   2.575   7.830  3.0017 -0.6162 -1.9596
  179SOPE  C31120465   2.245   2.725   7.984  0.1995  0.3193 -0.2003
  179SOPE  H11X20466   2.137   2.747   7.989 -0.2088 -1.4280 -0.7460
  179SOPE  H11Y20467   2.308   2.814   8.007 -1.5544  1.4317  0.4673
  179SOPE  C31220468   2.293   2.614   8.080  0.4776 -0.4605  0.2375
  179SOPE  H12X20469   2.395   2.581   8.051  0.0244  0.5002 -2.7754
  179SOPE  H12Y20470   2.223   2.528   8.074  0.5729 -0.5303  0.1275
  179SOPE  C31320471   2.290   2.678   8.222  0.0003 -0.1261  0.5890
  179SOPE  H13X20472   2.188   2.721   8.229 -0.5027 -1.2977  0.5604
  179SOPE  H13Y20473   2.354   2.768   8.237 -0.2033  0.0753  0.2597
  179SOPE  C31420474   2.327   2.573   8.328 -0.0730  0.2629 -0.2645
  179SOPE  H14X20475   2.433   2.542   8.318 -0.7633 -3.1035  1.4009
  179SOPE  H14Y20476   2.250   2.496   8.309 -2.4606  1.1238  4.3460
  179SOPE  C31520477   2.306   2.612   8.474  0.0983  0.3542  1.0402
  179SOPE  H15X20478   2.208   2.664   8.482  0.3056  1.2662 -1.5447
  179SOPE  H15Y20479   2.374   2.694   8.505 -0.5022  0.9792  0.7210
  179SOPE  C31620480   2.303   2.488   8.573  0.1524  0.7586  0.8283
  179SOPE  H16X20481   2.206   2.437   8.553  1.5177 -1.4866 -0.5255
  179SOPE  H16Y20482   2.298   2.528   8.676 -1.9631  4.2845 -0.4814
  179SOPE  C31720483   2.413   2.386   8.552 -0.0272 -0.3040 -0.1706
  179SOPE  H17X20484   2.514   2.428   8.570  0.0091  0.3502 -1.7746
  179SOPE  H17Y20485   2.406   2.348   8.448 -0.4304 -1.0650  0.1232
  179SOPE  C31820486   2.411   2.263   8.645 -0.6806  0.2217  0.1612
  179SOPE  H18X20487   2.492   2.190   8.625 -0.7419  0.4382 -0.9527
  179SOPE  H18Y20488   2.314   2.209   8.641 -0.4910 -0.4215  2.6875
  179SOPE  H18Z20489   2.424   2.294   8.751  0.6648 -1.4289  0.5232
  180SOPE     N20490   0.500   3.955   6.352  0.6540  0.3465  0.1366
  180SOPE   HN120491   0.568   3.979   6.277  0.6222  0.1845  0.0563
  180SOPE   HN220492   0.434   4.036   6.361 -1.5770 -1.3284 -0.1249
  180SOPE   HN320493   0.553   3.943   6.440 -1.0033 -1.6832  0.9495
  180SOPE   C1220494   0.406   3.839   6.304  0.4705 -0.0455 -0.0344
  180SOPE  H12A20495   0.375   3.867   6.201  0.7578  1.1066  0.1758
  180SOPE  H12B20496   0.318   3.840   6.372 -1.0366  1.1431 -1.9073
  180SOPE   C1120497   0.493   3.715   6.303 -0.1444  0.1954 -0.2925
  180SOPE  H11A20498   0.592   3.726   6.254  1.2427  0.1817  2.3024
  180SOPE  H11B20499   0.433   3.636   6.253  1.5244 -0.8779 -0.6847
  180SOPE     P20500   0.427   3.595   6.541 -0.0843 -0.0592 -0.4454
  180SOPE   O1320501   0.519   3.518   6.635  0.5619 -0.0778 -0.1510
  180SOPE   O1420502   0.337   3.510   6.461  0.3210  0.3050  0.9517
  180SOPE   O1220503   0.533   3.672   6.436  0.5038 -0.1680  0.1861
  180SOPE   O1120504   0.356   3.721   6.606 -0.2261  0.2217  0.1797
  180SOPE    C120505   0.432   3.813   6.680  0.1202 -0.0140 -0.4657
  180SOPE    HA20506   0.398   3.914   6.649 -3.3585 -0.6597  0.7764
  180SOPE    HB20507   0.543   3.815   6.675  0.6140  0.4481  4.7743
  180SOPE    C220508   0.416   3.795   6.835  0.0912  0.3623  0.3868
  180SOPE    HS20509   0.512   3.803   6.890 -0.5607  1.6404  1.4029
  180SOPE   O2120510   0.341   3.681   6.882  0.1692 -0.2683  0.2333
  180SOPE   C2120511   0.421   3.578   6.909 -0.0997 -0.0307 -0.0026
  180SOPE   O2220512   0.542   3.580   6.927  0.0062 -0.2247  0.0597
  180SOPE   C2220513   0.339   3.451   6.913 -0.0228 -0.0222  0.0622
  180SOPE   H2R20514   0.410   3.366   6.916  0.0346  0.0642  2.4503
  180SOPE   H2S20515   0.273   3.454   6.824 -1.1495  2.9798  0.8802
  180SOPE    C320516   0.340   3.917   6.894  0.5729 -0.2043  0.3253
  180SOPE    HX20517   0.232   3.901   6.874  0.3061 -0.7010  1.9672
  180SOPE    HY20518   0.378   4.009   6.846  1.2832  0.1197  1.4651
  180SOPE   O3120519   0.358   3.910   7.036 -0.0981 -0.2379 -0.3692
  180SOPE   C3120520   0.442   3.991   7.090 -0.2119  0.3839  0.6957
  180SOPE   O3220521   0.518   4.054   7.024  0.2717  0.0488 -0.3461
  180SOPE   C3220522   0.446   3.980   7.242  0.0206 -0.0641  0.3788
  180SOPE   H2X20523   0.542   4.021   7.281  1.5377 -1.0942 -1.9983
  180SOPE   H2Y20524   0.442   3.877   7.283  0.8794 -0.8501 -1.3879
  180SOPE   C2320525   0.246   3.437   7.036  0.5224 -0.4833  0.2106
  180SOPE   H3R20526   0.183   3.345   7.044 -1.3052  0.1908 -3.8667
  180SOPE   H3S20527   0.170   3.516   7.018  2.6893  1.3409 -1.2979
  180SOPE   C2420528   0.330   3.458   7.163 -0.8255  0.3547 -0.6902
  180SOPE   H4R20529   0.426   3.402   7.160 -1.4802 -0.9239  0.7887
  180SOPE   H4S20530   0.360   3.565   7.164 -4.0158  1.3659 -1.2785
  180SOPE   C2520531   0.259   3.438   7.295 -0.5676  0.1527 -0.5290
  180SOPE   H5R20532   0.157   3.482   7.290  0.4899  2.9875  0.6776
  180SOPE   H5S20533   0.255   3.330   7.323 -1.8565  0.8046  2.1469
  180SOPE   C2620534   0.330   3.501   7.414  0.0160  0.0030 -0.4401
  180SOPE   H6R20535   0.435   3.465   7.410 -0.1876 -0.7455  0.6223
  180SOPE   H6S20536   0.325   3.612   7.414  0.8808  0.0490 -0.2868
  180SOPE   C2720537   0.254   3.466   7.544  0.1674 -0.2789  0.2071
  180SOPE   H7R20538   0.164   3.530   7.549  0.4047  0.0994 -0.2679
  180SOPE   H7S20539   0.209   3.366   7.529  0.7675 -0.5954  0.4602
  180SOPE   C2820540   0.347   3.480   7.664 -0.6085 -0.6758 -0.3919
  180SOPE   H8R20541   0.443   3.434   7.632 -0.0476 -0.9397  1.5402
  180SOPE   H8S20542   0.383   3.585   7.671 -0.5510 -0.6318 -1.2639
  180SOPE   C2920543   0.280   3.429   7.785 -0.1109 -0.0727 -0.0406
  180SOPE   H9120544   0.171   3.423   7.768 -0.0734 -0.4770 -0.1392
  180SOPE  C21020545   0.337   3.384   7.897 -0.4504 -0.4526 -0.7612
  180SOPE  H10120546   0.265   3.343   7.970  1.2322  2.7496  3.0400
  180SOPE  C21120547   0.486   3.374   7.927  0.2114 -0.2534  0.5021
  180SOPE  H11R20548   0.539   3.439   7.855  0.0207  1.4866  1.8542
  180SOPE  H11S20549   0.510   3.269   7.899 -0.0935 -0.1855 -0.0291
  180SOPE  C21220550   0.540   3.416   8.071  0.0148 -0.4796  0.3375
  180SOPE  H12R20551   0.494   3.511   8.105 -0.6712 -1.2671  1.6670
  180SOPE  H12S20552   0.649   3.431   8.051 -0.3559 -0.2137 -1.6920
  180SOPE  C21320553   0.534   3.301   8.170  0.6824  0.2745  0.6042
  180SOPE  H13R20554   0.596   3.217   8.133 -3.5581 -2.9311 -0.0756
  180SOPE  H13S20555   0.429   3.267   8.186  0.3389 -0.5461 -2.7505
  180SOPE  C21420556   0.596   3.347   8.305 -1.1214  0.4041 -0.0008
  180SOPE  H14R20557   0.572   3.454   8.322  1.4703  0.9965  0.2980
  180SOPE  H14S20558   0.706   3.348   8.299 -1.1668 -0.6763 -1.4366
  180SOPE  C21520559   0.551   3.268   8.422  0.7146 -0.1244  0.2590
  180SOPE  H15R20560   0.442   3.248   8.419  0.5084  1.0601 -0.7721
  180SOPE  H15S20561   0.575   3.324   8.516  2.6645  0.3574 -0.4786
  180SOPE  C21620562   0.624   3.130   8.436 -0.3870 -0.2237 -0.0273
  180SOPE  H16R20563   0.734   3.146   8.444 -0.7247  2.1616  0.5739
  180SOPE  H16S20564   0.595   3.075   8.344 -3.6730 -1.2372  1.4663
  180SOPE  C21720565   0.578   3.053   8.570  0.3124 -0.1913  1.0733
  180SOPE  H17R20566   0.471   3.027   8.571 -0.0882  0.9852 -1.5632
  180SOPE  H17S20567   0.604   3.110   8.662 -0.4398  0.6381  0.7878
  180SOPE  C21820568   0.663   2.928   8.583 -0.2431 -0.3418  0.0780
  180SOPE  H18R20569   0.640   2.878   8.487 -2.2903  1.5277 -0.4940
  180SOPE  H18S20570   0.639   2.871   8.675  0.3227 -1.0053 -0.1801
  180SOPE  H18T20571   0.771   2.954   8.592 -0.6822  1.2606  1.1912
  180SOPE   C3320572   0.332   4.065   7.301 -0.5008 -0.2901 -0.6224
  180SOPE   H3X20573   0.232   4.018   7.285  0.5560 -2.9098  0.0456
  180SOPE   H3Y20574   0.336   4.170   7.265  0.7140 -0.3154 -0.5754
  180SOPE   C3420575   0.357   4.083   7.451 -0.2022  0.5914 -0.9059
  180SOPE   H4X20576   0.290   4.163   7.489  0.6568  0.3158  1.3705
  180SOPE   H4Y20577   0.463   4.114   7.468 -0.2734  0.0466  0.7126
  180SOPE   C3520578   0.327   3.962   7.541  1.1262  0.0837  0.0292
  180SOPE   H5X20579   0.395   3.878   7.514 -0.1972 -0.8586 -0.5075
  180SOPE   H5Y20580   0.218   3.941   7.533  1.0778  0.0493  0.7054
  180SOPE   C3620581   0.357   3.995   7.685  0.1940 -0.3135 -0.3297
  180SOPE   H6X20582   0.311   4.093   7.712 -0.5493 -0.4142 -1.1579
  180SOPE   H6Y20583   0.466   4.011   7.693 -0.2634  3.8003 -0.2091
  180SOPE   C3720584   0.314   3.886   7.784 -0.0213 -0.0639 -0.0103
  180SOPE   H7X20585   0.391   3.809   7.803  0.7150  0.3401 -1.2404
  180SOPE   H7Y20586   0.227   3.831   7.743 -0.9046  0.8002  0.6514
  180SOPE   C3820587   0.274   3.944   7.924 -0.5897  0.0514  0.3041
  180SOPE   H8X20588   0.228   3.858   7.978 -1.6530 -0.2004 -0.9719
  180SOPE   H8Y20589   0.218   4.040   7.926  1.2285  1.1688 -0.0461
  180SOPE   C3920590   0.409   3.963   7.997  0.0792 -0.0742 -0.4998
  180SOPE   H9X20591   0.477   4.029   7.939  2.6160 -1.1755  1.1077
  180SOPE   H9Y20592   0.460   3.869   8.023 -1.2186 -0.3564  1.2006
  180SOPE  C31020593   0.377   4.039   8.125  0.0505  0.1814 -0.6140
  180SOPE  H10X20594   0.304   3.980   8.184  1.5152 -0.7046  0.3749
  180SOPE  H10Y20595   0.313   4.126   8.099  0.2465 -0.2442 -2.6264
  180SOPE  C31120596   0.496   4.089   8.202 -0.4555  0.8421 -0.2352
  180SOPE  H11X20597   0.549   4.155   8.130 -2.0418 -0.4283 -2.6821
  180SOPE  H11Y20598   0.563   4.009   8.239 -1.3314  1.4516  2.9278
  180SOPE  C31220599   0.448   4.176   8.320  0.2610 -0.0552  0.3097
  180SOPE  H12X20600   0.382   4.107   8.378 -1.1288  0.8318 -0.1459
  180SOPE  H12Y20601   0.374   4.253   8.289 -1.1788 -1.0202  1.1880
  180SOPE  C31320602   0.550   4.227   8.421  0.4345  0.3003  0.3716
  180SOPE  H13X20603   0.616   4.294   8.363  0.3926 -1.5419 -1.9733
  180SOPE  H13Y20604   0.608   4.137   8.449 -2.0895 -1.6682 -0.2917
  180SOPE  C31420605   0.487   4.310   8.534  0.3267  0.0954 -0.5300
  180SOPE  H14X20606   0.549   4.315   8.626 -0.0167 -1.0581 -0.2111
  180SOPE  H14Y20607   0.392   4.261   8.565  1.5358 -1.8083  0.3890
  180SOPE  C31520608   0.459   4.454   8.492  0.5790 -0.0366  0.2739
  180SOPE  H15X20609   0.404   4.458   8.395  0.2387  1.7165  0.5047
  180SOPE  H15Y20610   0.556   4.503   8.468  0.2145  0.1625 -0.8626
  180SOPE  C31620611   0.390   4.541   8.597 -0.0361 -0.0613 -0.3322
  180SOPE  H16X20612   0.466   4.579   8.669 -1.5233  1.6809  0.3724
  180SOPE  H16Y20613   0.309   4.482   8.644  0.2577 -1.0248 -0.9885
  180SOPE  C31720614   0.310   4.656   8.546 -0.7938 -0.3506  0.4248
  180SOPE  H17X20615   0.250   4.616   8.462  2.0550 -2.2331 -0.8870
  180SOPE  H17Y20616   0.378   4.733   8.504 -0.5746 -0.7219  0.1005
  180SOPE  C31820617   0.221   4.733   8.645 -0.4681  0.0156 -0.1688
  180SOPE  H18X20618   0.279   4.751   8.737 -0.4448 -3.1712  0.5759
  180SOPE  H18Y20619   0.145   4.664   8.689  0.6567 -1.6088 -0.6630
  180SOPE  H18Z20620   0.190   4.833   8.608  2.2317  0.9520 -0.1026
  181SOPE     N20621   0.238   0.265   5.904  1.0356 -0.5432  0.0381
  181SOPE   HN120622   0.188   0.347   5.945  0.8474 -0.0886 -1.0788
  181SOPE   HN220623   0.196   0.247   5.811 -0.3022 -1.1029  0.7036
  181SOPE   HN320624   0.218   0.176   5.955  2.9276 -0.8675  0.2810
  181SOPE   C1220625   0.383   0.268   5.886 -0.1187 -0.2518 -0.5792
  181SOPE  H12A20626   0.402   0.329   5.795  1.1475 -1.0307 -0.8516
  181SOPE  H12B20627   0.415   0.164   5.865 -2.4965 -0.7571 -2.0797
  181SOPE   C1120628   0.456   0.343   5.999 -0.1595 -0.1984 -0.0803
  181SOPE  H11A20629   0.555   0.377   5.962  0.6060  0.6698  2.4924
  181SOPE  H11B20630   0.471   0.274   6.085  0.2311  1.1681  0.9823
  181SOPE     P20631   0.409   0.529   6.175  0.3966 -0.1276  0.1852
  181SOPE   O1320632   0.280   0.512   6.248 -0.6626  0.1554  0.0280
  181SOPE   O1420633   0.464   0.661   6.151  0.5853  0.1981  0.1793
  181SOPE   O1220634   0.384   0.465   6.037  0.2643 -0.9817  0.3310
  181SOPE   O1120635   0.512   0.439   6.249 -0.3336 -0.5505 -0.5333
  181SOPE    C120636   0.654   0.456   6.246  0.6519 -0.1882  0.5466
  181SOPE    HA20637   0.688   0.537   6.178  0.2028 -0.9532 -0.6291
  181SOPE    HB20638   0.712   0.368   6.212  1.5988  0.7427 -0.3040
  181SOPE    C220639   0.716   0.499   6.380  0.6144  0.3852 -0.3614
  181SOPE    HS20640   0.825   0.512   6.367  1.3538 -1.7754  2.5661
  181SOPE   O2120641   0.682   0.399   6.476 -0.2212 -0.5616  0.1262
  181SOPE   C2120642   0.792   0.359   6.543  0.9636  0.1800 -0.0845
  181SOPE   O2220643   0.903   0.410   6.537 -0.1296 -0.0918  0.4360
  181SOPE   C2220644   0.759   0.239   6.630  0.3802 -0.0076 -0.4781
  181SOPE   H2R20645   0.738   0.153   6.563 -2.0402  0.9448 -1.0520
  181SOPE   H2S20646   0.661   0.253   6.680  1.3157 -0.3934  1.5467
  181SOPE    C320647   0.657   0.635   6.423  0.0370 -0.5265 -0.7981
  181SOPE    HX20648   0.547   0.631   6.442 -0.0663  0.9205 -0.9915
  181SOPE    HY20649   0.677   0.707   6.341  1.8435 -1.3131 -1.0844
  181SOPE   O3120650   0.720   0.676   6.548  0.8920 -0.2100 -0.4419
  181SOPE   C3120651   0.833   0.740   6.536 -0.4457 -0.9461  1.3142
  181SOPE   O3220652   0.889   0.781   6.436 -0.1351  0.2663  0.3952
  181SOPE   C3220653   0.889   0.776   6.668  0.0969 -0.1202 -0.2771
  181SOPE   H2X20654   0.819   0.846   6.720  1.3103  0.7049  0.2922
  181SOPE   H2Y20655   0.983   0.833   6.655 -0.1674  0.3569 -0.1606
  181SOPE   C2320656   0.869   0.204   6.729 -0.2400  0.7024 -0.2086
  181SOPE   H3R20657   0.879   0.280   6.809 -0.9303  1.4504 -0.8203
  181SOPE   H3S20658   0.962   0.190   6.670 -0.0374  0.7521  0.0947
  181SOPE   C2420659   0.840   0.062   6.796  0.0400  0.7388  0.0853
  181SOPE   H4R20660   0.732   0.069   6.823 -0.5356  0.8874 -2.0865
  181SOPE   H4S20661   0.859  -0.012   6.716  1.7181 -1.3615  2.2881
  181SOPE   C2520662   0.932   0.055   6.917  0.1020 -0.3876 -0.6998
  181SOPE   H5R20663   0.912  -0.046   6.958 -1.0757  0.1842  0.1696
  181SOPE   H5S20664   1.042   0.057   6.901  0.3018 -0.4947  0.5506
  181SOPE   C2620665   0.886   0.151   7.028  0.5997  0.4157 -0.6755
  181SOPE   H6R20666   0.932   0.245   6.991  1.2988 -0.2430 -1.5161
  181SOPE   H6S20667   0.776   0.163   7.027  0.4560 -0.8493 -0.8962
  181SOPE   C2720668   0.944   0.116   7.168  0.4355 -0.5306 -0.1539
  181SOPE   H7R20669   1.046   0.076   7.148  0.6303 -0.5690  0.8480
  181SOPE   H7S20670   0.952   0.208   7.230 -0.4280  1.1739 -2.4482
  181SOPE   C2820671   0.872  -0.004   7.241 -0.1913  0.7878  0.7714
  181SOPE   H8R20672   0.770   0.029   7.271 -0.8524  0.2843 -0.8237
  181SOPE   H8S20673   0.868  -0.093   7.174 -0.1486  1.8107 -0.6265
  181SOPE   C2920674   0.963  -0.040   7.355  0.2360  0.2082 -0.7775
  181SOPE   H9120675   1.070  -0.061   7.336  0.1089 -2.0351  0.5772
  181SOPE  C21020676   0.917  -0.073   7.479  0.5854  1.0534 -0.4785
  181SOPE  H10120677   0.986  -0.077   7.565 -0.0840  0.1304  0.0343
  181SOPE  C21120678   0.768  -0.076   7.518 -0.1175  0.5745 -0.2459
  181SOPE  H11R20679   0.744  -0.172   7.568  0.7166  0.3637 -0.2276
  181SOPE  H11S20680   0.700  -0.077   7.431  2.8221 -0.4800 -2.7319
  181SOPE  C21220681   0.744   0.049   7.612  0.2022  0.8549  0.2677
  181SOPE  H12R20682   0.635   0.052   7.637  0.3462 -0.0603  1.0465
  181SOPE  H12S20683   0.765   0.141   7.553  0.6984 -1.3446 -3.2907
  181SOPE  C21320684   0.827   0.044   7.735  0.5432 -0.8686 -0.3599
  181SOPE  H13R20685   0.936   0.063   7.720  1.3104 -2.2747  2.5720
  181SOPE  H13S20686   0.810  -0.054   7.784  0.9588 -0.7918 -0.0578
  181SOPE  C21420687   0.773   0.158   7.831 -0.4746 -0.1219 -0.3589
  181SOPE  H14R20688   0.662   0.164   7.825 -0.6468 -1.8850  0.3735
  181SOPE  H14S20689   0.817   0.250   7.787  0.1488 -0.0658  0.3665
  181SOPE  C21520690   0.829   0.147   7.975  0.0533  0.9870  0.1362
  181SOPE  H15R20691   0.939   0.140   7.967  0.1977  2.4290  0.5879
  181SOPE  H15S20692   0.793   0.059   8.033  0.6946  1.0490  0.6430
  181SOPE  C21620693   0.811   0.278   8.053 -0.0656 -0.0135  0.0690
  181SOPE  H16R20694   0.711   0.295   8.097  0.0242 -0.7676  0.5966
  181SOPE  H16S20695   0.844   0.362   7.989  3.3909 -0.8065  0.5721
  181SOPE  C21720696   0.909   0.285   8.168 -0.1336 -0.6139 -0.6803
  181SOPE  H17R20697   1.010   0.300   8.124  1.1770 -0.7299  2.0759
  181SOPE  H17S20698   0.930   0.193   8.228 -0.9183  0.5730  1.5504
  181SOPE  C21820699   0.890   0.405   8.258  0.2815 -0.1527  0.3370
  181SOPE  H18R20700   0.865   0.500   8.206  0.9917  0.6345  1.4097
  181SOPE  H18S20701   0.986   0.435   8.304 -1.1796  4.1958  1.0281
  181SOPE  H18T20702   0.812   0.382   8.334  0.2790  0.0011  0.3802
  181SOPE   C3320703   0.911   0.654   6.763  0.9291 -0.3424  0.2429
  181SOPE   H3X20704   1.006   0.606   6.732  1.1831  1.7255 -2.4647
  181SOPE   H3Y20705   0.832   0.576   6.753  2.5365 -1.8197 -1.7781
  181SOPE   C3420706   0.924   0.692   6.911  0.0760 -0.2876  0.4525
  181SOPE   H4X20707   0.832   0.743   6.948 -0.1566  0.2637 -0.8452
  181SOPE   H4Y20708   1.002   0.769   6.928 -0.9048  0.4723  1.7957
  181SOPE   C3520709   0.967   0.576   7.002  0.4505  0.3452  0.2117
  181SOPE   H5X20710   1.049   0.517   6.956 -0.7177 -1.3181  0.1389
  181SOPE   H5Y20711   0.882   0.504   7.008  0.2783  0.4000 -1.1916
  181SOPE   C3620712   0.992   0.621   7.143  0.2261 -0.1712 -0.0381
  181SOPE   H6X20713   0.904   0.681   7.174  0.5270 -0.7960  2.1436
  181SOPE   H6Y20714   1.082   0.685   7.136  0.5766 -0.7646 -1.2991
  181SOPE   C3720715   1.020   0.503   7.230  0.1469 -0.3141 -0.2779
  181SOPE   H7X20716   1.102   0.437   7.194 -0.2790 -0.6284 -0.6762
  181SOPE   H7Y20717   0.928   0.441   7.228 -1.1429  1.4105  1.5858
  181SOPE   C3820718   1.056   0.538   7.378 -0.2131  0.2313  0.3587
  181SOPE   H8X20719   0.970   0.589   7.425 -1.1829 -1.2727  0.2693
  181SOPE   H8Y20720   1.146   0.603   7.374 -0.5389  0.6457 -2.2151
  181SOPE   C3920721   1.087   0.421   7.473 -0.3012 -0.2021 -0.4790
  181SOPE   H9X20722   1.189   0.385   7.446  0.6119  2.0863 -0.3203
  181SOPE   H9Y20723   1.023   0.332   7.457 -0.2835 -0.5358  1.0778
  181SOPE  C31020724   1.097   0.455   7.625  0.4478 -0.4959  0.1191
  181SOPE  H10X20725   0.995   0.481   7.662 -0.6037 -2.4716 -1.2218
  181SOPE  H10Y20726   1.162   0.546   7.630  0.4147 -0.3127 -1.8724
  181SOPE  C31120727   1.150   0.350   7.717 -0.5813  0.3080 -0.2220
  181SOPE  H11X20728   1.259   0.333   7.705  0.2875  3.8186  1.2719
  181SOPE  H11Y20729   1.093   0.258   7.693 -1.1222  0.7372 -0.6326
  181SOPE  C31220730   1.134   0.381   7.868 -0.0082 -0.5937  0.0957
  181SOPE  H12X20731   1.204   0.314   7.921  1.2590  0.7616  0.2084
  181SOPE  H12Y20732   1.032   0.372   7.912 -0.7772  3.0144 -0.6241
  181SOPE  C31320733   1.179   0.520   7.907  0.2775 -0.1791  0.2998
  181SOPE  H13X20734   1.127   0.591   7.840  0.1682 -2.5203 -2.2265
  181SOPE  H13Y20735   1.287   0.527   7.883  0.0354  1.2168 -0.4888
  181SOPE  C31420736   1.156   0.548   8.063 -0.1650  0.4474  0.3450
  181SOPE  H14X20737   1.178   0.457   8.122  1.3895  0.0818 -0.7417
  181SOPE  H14Y20738   1.048   0.568   8.074 -0.0830  0.0813  2.2244
  181SOPE  C31520739   1.236   0.673   8.113  0.4105  0.4628  0.1232
  181SOPE  H15X20740   1.204   0.765   8.059  0.8433  0.0563 -0.8505
  181SOPE  H15Y20741   1.342   0.651   8.087 -0.0032 -0.9465 -0.4781
  181SOPE  C31620742   1.217   0.691   8.266  0.1269  0.0547  0.0619
  181SOPE  H16X20743   1.110   0.699   8.295 -0.0203  0.3753 -0.5430
  181SOPE  H16Y20744   1.272   0.782   8.298  0.7376 -0.7694  1.4196
  181SOPE  C31720745   1.296   0.600   8.350  0.4699 -0.0181  0.0501
  181SOPE  H17X20746   1.404   0.624   8.336  0.3425  2.7559  2.6481
  181SOPE  H17Y20747   1.278   0.495   8.320  0.3056  0.2952 -0.9688
  181SOPE  C31820748   1.271   0.604   8.498  0.1558 -0.1497  0.0157
  181SOPE  H18X20749   1.361   0.559   8.544  0.3269  1.7028  1.6258
  181SOPE  H18Y20750   1.180   0.546   8.526 -0.5279  0.1102 -1.5590
  181SOPE  H18Z20751   1.262   0.711   8.525 -0.7566 -0.2198  0.0439
  182SOPE     N20752   0.524   2.410   6.461  0.6564 -0.4224 -0.3201
  182SOPE   HN120753   0.458   2.387   6.384  1.5557 -1.3089 -0.8472
  182SOPE   HN220754   0.622   2.377   6.448  1.2182  0.0478  2.2455
  182SOPE   HN320755   0.491   2.380   6.555  0.1339  1.3297  0.0923
  182SOPE   C1220756   0.526   2.563   6.479 -0.4227  0.1696 -0.0182
  182SOPE  H12A20757   0.592   2.582   6.567  0.0585  0.0913 -0.3557
  182SOPE  H12B20758   0.425   2.607   6.492 -0.4047  0.2226 -0.0573
  182SOPE   C1120759   0.588   2.639   6.358  0.9522 -0.4027 -0.3010
  182SOPE  H11A20760   0.591   2.750   6.371  1.0027  0.1342 -3.7674
  182SOPE  H11B20761   0.519   2.633   6.271  0.7083 -1.8429 -0.0239
  182SOPE     P20762   0.846   2.660   6.361  0.0648  0.4281 -0.1342
  182SOPE   O1320763   0.866   2.775   6.273 -0.4084 -0.1249  0.1706
  182SOPE   O1420764   0.955   2.566   6.350 -0.0745 -0.5437  0.1535
  182SOPE   O1220765   0.714   2.584   6.321  0.4237  0.2008 -0.4839
  182SOPE   O1120766   0.821   2.709   6.501  0.1723 -0.4134 -0.6970
  182SOPE    C120767   0.921   2.745   6.598 -0.3874  0.0596 -0.0022
  182SOPE    HA20768   0.934   2.856   6.599 -0.4857  0.1370  3.1209
  182SOPE    HB20769   1.019   2.705   6.566 -0.2181  0.9399 -0.6396
  182SOPE    C220770   0.880   2.713   6.744 -0.3284  0.3497 -0.4876
  182SOPE    HS20771   0.960   2.730   6.818  0.8502 -1.6251 -1.2338
  182SOPE   O2120772   0.844   2.567   6.750 -0.5540 -1.0054 -0.1177
  182SOPE   C2120773   0.946   2.487   6.753  0.3908  0.4686  0.2077
  182SOPE   O2220774   1.060   2.518   6.731 -0.6042 -0.2871 -0.2577
  182SOPE   C2220775   0.898   2.345   6.784  0.9212  0.1069  0.1762
  182SOPE   H2R20776   0.990   2.283   6.780  0.1830 -1.0468  0.5203
  182SOPE   H2S20777   0.819   2.303   6.717  0.0247  1.3419  0.4230
  182SOPE    C320778   0.750   2.793   6.785  0.0303 -0.5265 -0.4392
  182SOPE    HX20779   0.659   2.798   6.721 -1.0165  0.9371  1.0697
  182SOPE    HY20780   0.783   2.898   6.798 -0.5776 -0.3827  0.0187
  182SOPE   O3120781   0.714   2.765   6.921  0.2671 -0.0161  0.1788
  182SOPE   C3120782   0.632   2.672   6.938 -0.0190 -0.0613 -0.0048
  182SOPE   O3220783   0.574   2.598   6.860 -0.2213 -0.1268  0.1906
  182SOPE   C3220784   0.613   2.665   7.091  0.1137 -0.5945 -0.6799
  182SOPE   H2X20785   0.602   2.769   7.129 -1.7418 -0.5139 -1.3287
  182SOPE   H2Y20786   0.699   2.623   7.147 -0.7261 -2.0054 -0.3873
  182SOPE   C2320787   0.839   2.337   6.934 -0.1359 -0.1652  0.1661
  182SOPE   H3R20788   0.831   2.228   6.955  1.0674  0.0185  1.8613
  182SOPE   H3S20789   0.744   2.394   6.933  0.5873  1.0852 -0.2705
  182SOPE   C2420790   0.936   2.396   7.031 -0.0777 -0.7409  0.2058
  182SOPE   H4R20791   1.042   2.366   7.016  0.6928  2.4619 -1.7126
  182SOPE   H4S20792   0.927   2.506   7.017  3.1876 -0.5776 -1.5939
  182SOPE   C2520793   0.904   2.356   7.173 -0.5182 -0.3063 -0.2343
  182SOPE   H5R20794   0.800   2.389   7.194 -0.3776 -0.6476  1.1411
  182SOPE   H5S20795   0.908   2.245   7.175  0.0398 -0.2860  1.3210
  182SOPE   C2620796   0.999   2.397   7.278  0.1845  0.5475 -0.6005
  182SOPE   H6R20797   1.096   2.344   7.262 -0.7991 -1.5690  0.0293
  182SOPE   H6S20798   1.017   2.506   7.280  1.3276  0.3760 -0.6818
  182SOPE   C2720799   0.939   2.367   7.424 -0.1638  0.0350  0.3913
  182SOPE   H7R20800   0.846   2.424   7.443 -1.2354 -1.4724 -0.1378
  182SOPE   H7S20801   0.898   2.263   7.419 -1.0018  0.3220  0.9970
  182SOPE   C2820802   1.047   2.378   7.530  0.1944 -0.1194  0.1803
  182SOPE   H8R20803   1.116   2.463   7.513 -2.2764  1.8899 -0.3602
  182SOPE   H8S20804   0.994   2.410   7.622 -1.4830 -0.6212 -0.5735
  182SOPE   C2920805   1.096   2.235   7.540  0.6921 -0.5237  0.0850
  182SOPE   H9120806   1.089   2.173   7.449 -1.8871  0.2556 -0.3317
  182SOPE  C21020807   1.137   2.172   7.650  0.4981 -0.0541 -0.5272
  182SOPE  H10120808   1.160   2.065   7.656  4.6648  0.6870 -0.7326
  182SOPE  C21120809   1.168   2.225   7.790  0.1940  0.5820  0.3929
  182SOPE  H11R20810   1.092   2.200   7.866  1.0273  1.3366  1.4984
  182SOPE  H11S20811   1.162   2.335   7.778 -4.5568  0.4029 -0.8442
  182SOPE  C21220812   1.302   2.173   7.837  0.2645 -0.5097  0.7116
  182SOPE  H12R20813   1.381   2.205   7.766 -0.4158 -0.2511  0.0577
  182SOPE  H12S20814   1.299   2.062   7.831 -1.4280 -0.5075  1.0287
  182SOPE  C21320815   1.349   2.225   7.975 -0.5040 -0.1084  0.2314
  182SOPE  H13R20816   1.369   2.333   7.960  1.8049 -0.5746 -0.5601
  182SOPE  H13S20817   1.454   2.192   7.990  0.6580  2.7652 -0.8993
  182SOPE  C21420818   1.262   2.193   8.090 -0.4196  0.2912  0.0799
  182SOPE  H14R20819   1.257   2.086   8.116  4.2197 -0.7402 -2.1857
  182SOPE  H14S20820   1.159   2.229   8.068 -0.2696  0.5899 -0.1418
  182SOPE  C21520821   1.319   2.259   8.224  0.2349 -0.4961  0.3876
  182SOPE  H15R20822   1.313   2.367   8.196  0.2470 -0.7617 -0.6741
  182SOPE  H15S20823   1.427   2.236   8.230  0.2766 -1.2825 -2.2112
  182SOPE  C21620824   1.249   2.215   8.352 -0.1856  0.4676  0.3618
  182SOPE  H16R20825   1.241   2.105   8.361 -0.7401  0.5804  1.4903
  182SOPE  H16S20826   1.143   2.250   8.353 -0.1857  0.5613  2.8974
  182SOPE  C21720827   1.314   2.267   8.482 -0.1843  0.6832 -0.0620
  182SOPE  H17R20828   1.423   2.252   8.468 -0.7771 -2.5748 -2.5385
  182SOPE  H17S20829   1.297   2.209   8.575 -0.4862  0.4388 -0.2642
  182SOPE  C21820830   1.274   2.407   8.506 -0.1753 -0.6971 -0.6100
  182SOPE  H18R20831   1.165   2.416   8.530  0.2925  3.1637  0.8805
  182SOPE  H18S20832   1.293   2.470   8.416 -2.7137  1.9762  0.5421
  182SOPE  H18T20833   1.339   2.443   8.588  0.2571 -3.0586  0.1466
  182SOPE   C3320834   0.495   2.571   7.138  0.7316  0.2336 -0.0291
  182SOPE   H3X20835   0.512   2.469   7.096 -0.0052  1.2008 -2.9362
  182SOPE   H3Y20836   0.396   2.606   7.103 -0.0875 -0.4355  1.5436
  182SOPE   C3420837   0.491   2.563   7.297 -0.2220 -0.3854 -0.1987
  182SOPE   H4X20838   0.433   2.652   7.328 -0.5376 -0.0173 -1.7685
  182SOPE   H4Y20839   0.597   2.567   7.328  0.3301  0.0511 -2.0112
  182SOPE   C3520840   0.441   2.427   7.348  0.7835  0.1762  0.1274
  182SOPE   H5X20841   0.499   2.350   7.293  1.5683  1.6983 -1.3061
  182SOPE   H5Y20842   0.334   2.418   7.319  0.4345  0.6712  1.2213
  182SOPE   C3620843   0.444   2.410   7.505  0.6127  0.5925 -0.1243
  182SOPE   H6X20844   0.358   2.346   7.532 -0.6936  2.3423  0.0374
  182SOPE   H6Y20845   0.416   2.512   7.542  3.2997  1.3138  0.1293
  182SOPE   C3720846   0.574   2.363   7.571 -0.2059  0.1357  0.2601
  182SOPE   H7X20847   0.649   2.441   7.547 -1.3379  1.0966 -0.2192
  182SOPE   H7Y20848   0.601   2.263   7.531 -2.4395 -0.7997  0.9259
  182SOPE   C3820849   0.567   2.352   7.726  0.0168  0.0822  0.2163
  182SOPE   H8X20850   0.657   2.294   7.755 -0.0860  0.2408  0.8570
  182SOPE   H8Y20851   0.475   2.297   7.755 -1.4497  1.1391 -2.1140
  182SOPE   C3920852   0.565   2.491   7.785  1.0498 -0.6367 -0.1102
  182SOPE   H9X20853   0.477   2.547   7.747  0.6617  1.5028  3.5074
  182SOPE   H9Y20854   0.651   2.551   7.748  3.1739 -2.1200  2.1113
  182SOPE  C31020855   0.557   2.503   7.940 -0.3573 -0.2195  0.4624
  182SOPE  H10X20856   0.557   2.611   7.967 -0.9850 -0.1100  0.0364
  182SOPE  H10Y20857   0.647   2.450   7.977 -0.4486 -0.9702 -0.3556
  182SOPE  C31120858   0.426   2.449   8.001  0.0986  1.0905 -0.4672
  182SOPE  H11X20859   0.401   2.354   7.948 -1.2800 -0.4722  2.7249
  182SOPE  H11Y20860   0.355   2.534   7.986 -0.2698  1.6800  3.4698
  182SOPE  C31220861   0.434   2.431   8.150 -0.0174 -0.1682  0.3080
  182SOPE  H12X20862   0.537   2.393   8.167  0.1886  0.4785  0.5532
  182SOPE  H12Y20863   0.363   2.356   8.190 -1.5836  0.4865 -1.1432
  182SOPE  C31320864   0.421   2.560   8.230 -0.2131  0.5473 -0.1808
  182SOPE  H13X20865   0.331   2.623   8.212 -0.3952  0.6767  1.0679
  182SOPE  H13Y20866   0.509   2.626   8.210  0.5151  0.1213  1.4558
  182SOPE  C31420867   0.427   2.538   8.384 -0.4908  0.2448  0.0448
  182SOPE  H14X20868   0.528   2.497   8.408 -0.5827  0.3697  0.6846
  182SOPE  H14Y20869   0.358   2.456   8.413 -0.9400  0.2224 -1.0673
  182SOPE  C31520870   0.400   2.667   8.464  0.6195 -0.1968  0.4202
  182SOPE  H15X20871   0.294   2.693   8.448  0.7947 -0.2653 -1.0026
  182SOPE  H15Y20872   0.457   2.755   8.427  1.0161  0.1551  1.7910
  182SOPE  C31620873   0.417   2.653   8.619 -0.1089 -0.1146  0.3835
  182SOPE  H16X20874   0.522   2.650   8.654 -0.7596 -0.2939  2.4462
  182SOPE  H16Y20875   0.364   2.557   8.636  1.9186 -1.1761  1.0237
  182SOPE  C31720876   0.340   2.754   8.698  0.0265  0.2324  1.0682
  182SOPE  H17X20877   0.246   2.783   8.647  0.3789 -0.7895 -0.2207
  182SOPE  H17Y20878   0.404   2.844   8.713 -2.4685  1.9742  1.8503
  182SOPE  C31820879   0.302   2.693   8.827 -0.4527  0.1467  0.1500
  182SOPE  H18X20880   0.257   2.761   8.902 -2.9811 -0.5373 -0.6510
  182SOPE  H18Y20881   0.388   2.640   8.874 -0.2263 -0.1222 -0.5559
  182SOPE  H18Z20882   0.226   2.615   8.804  0.7120 -1.2002  0.6809
  183SOPE     N20883   3.134   5.688   6.372  0.2964 -0.4983 -0.2151
  183SOPE   HN120884   3.071   5.674   6.455 -1.6858  0.6009 -1.4618
  183SOPE   HN220885   3.230   5.676   6.410  0.3307  1.8516  0.5714
  183SOPE   HN320886   3.119   5.783   6.335  2.8910  0.7078  1.5448
  183SOPE   C1220887   3.104   5.593   6.259  0.4752 -0.5728 -0.1543
  183SOPE  H12A20888   3.143   5.495   6.293 -1.0898 -1.1171  0.1523
  183SOPE  H12B20889   3.163   5.621   6.169  0.3640 -3.6781 -1.3022
  183SOPE   C1120890   2.956   5.577   6.233 -0.2396 -0.7742  0.4173
  183SOPE  H11A20891   2.962   5.487   6.168  0.3036 -1.2268  1.0682
  183SOPE  H11B20892   2.930   5.667   6.173 -0.1222 -0.6358  0.5725
  183SOPE     P20893   2.771   5.455   6.385  0.0344  0.0126  0.1241
  183SOPE   O1320894   2.795   5.338   6.304 -0.3574 -0.4052 -0.0244
  183SOPE   O1420895   2.642   5.519   6.378  0.0189  0.5094 -1.1426
  183SOPE   O1220896   2.881   5.563   6.353 -0.1217 -0.3038 -0.1469
  183SOPE   O1120897   2.790   5.426   6.532 -0.5907 -0.2390 -0.2819
  183SOPE    C120898   2.808   5.513   6.644  0.4346  0.6437 -0.1185
  183SOPE    HA20899   2.805   5.619   6.613 -2.4049  0.2454 -1.5498
  183SOPE    HB20900   2.910   5.490   6.682  0.7793 -0.3718 -1.5254
  183SOPE    C220901   2.707   5.483   6.754 -0.4210  0.5636  0.5501
  183SOPE    HS20902   2.715   5.568   6.825 -0.0912 -0.8763  2.3111
  183SOPE   O2120903   2.748   5.358   6.819  0.3400  0.1075  0.2759
  183SOPE   C2120904   2.835   5.364   6.915 -0.9608 -0.7808  0.2519
  183SOPE   O2220905   2.900   5.464   6.951 -0.0662  0.0998  0.2275
  183SOPE   C2220906   2.855   5.228   6.977 -0.0914  0.0467 -0.5831
  183SOPE   H2R20907   2.937   5.177   6.922  0.7858  0.0624  0.6525
  183SOPE   H2S20908   2.759   5.172   6.969 -0.2630  0.1648  0.4509
  183SOPE    C320909   2.563   5.472   6.695  0.0739 -0.0947  0.0688
  183SOPE    HX20910   2.555   5.391   6.618  1.2672 -0.5977  0.4372
  183SOPE    HY20911   2.552   5.572   6.648  1.8063 -0.1264 -0.4811
  183SOPE   O3120912   2.466   5.466   6.795 -0.1772  0.1248 -0.0463
  183SOPE   C3120913   2.439   5.345   6.833 -0.5425 -0.1657  0.4239
  183SOPE   O3220914   2.500   5.243   6.798  0.0216 -0.3637 -0.0329
  183SOPE   C3220915   2.311   5.338   6.926  0.0528  0.1612  0.3339
  183SOPE   H2X20916   2.258   5.254   6.877 -0.3628  0.6509 -0.0658
  183SOPE   H2Y20917   2.261   5.436   6.908  1.4008  1.3910  2.7493
  183SOPE   C2320918   2.898   5.232   7.122 -0.0101 -0.0646  0.0482
  183SOPE   H3R20919   2.985   5.299   7.139 -0.4106  0.3197  0.6187
  183SOPE   H3S20920   2.936   5.132   7.150  0.8868  1.1377  3.7873
  183SOPE   C2420921   2.780   5.254   7.215  0.3090  0.0574  0.3742
  183SOPE   H4R20922   2.751   5.361   7.212  2.4188  0.6807  0.8340
  183SOPE   H4S20923   2.693   5.201   7.170  0.7981 -0.5531  0.1395
  183SOPE   C2520924   2.797   5.212   7.360  0.2546  0.6752 -0.1830
  183SOPE   H5R20925   2.816   5.102   7.354 -1.7160  0.3071 -0.5454
  183SOPE   H5S20926   2.893   5.257   7.393 -0.4346  2.3987 -0.4305
  183SOPE   C2620927   2.680   5.248   7.455 -0.8080  0.1284 -0.4056
  183SOPE   H6R20928   2.655   5.356   7.446  1.8358  0.8049 -0.7769
  183SOPE   H6S20929   2.594   5.192   7.412  0.3570 -0.3814 -2.2210
  183SOPE   C2720930   2.711   5.221   7.606  0.4830 -0.2147 -0.6038
  183SOPE   H7R20931   2.771   5.128   7.605  0.5560 -0.1647 -0.8260
  183SOPE   H7S20932   2.780   5.296   7.651 -0.8577  0.9668 -0.4573
  183SOPE   C2820933   2.591   5.222   7.703  0.3129 -0.7794  0.7033
  183SOPE   H8R20934   2.529   5.137   7.668 -0.7711 -0.7044  2.3452
  183SOPE   H8S20935   2.620   5.198   7.807 -0.9566 -1.3521  0.9399
  183SOPE   C2920936   2.509   5.355   7.692 -0.7455  1.0198  0.4129
  183SOPE   H9120937   2.499   5.382   7.586  0.9725  1.1682  0.2585
  183SOPE  C21020938   2.448   5.426   7.784  0.4207 -0.6124 -0.6978
  183SOPE  H10120939   2.389   5.513   7.753 -1.5331 -1.1194  1.3618
  183SOPE  C21120940   2.458   5.378   7.923  0.2892  0.1926  0.7145
  183SOPE  H11R20941   2.564   5.392   7.955  1.0476  1.0432 -1.9103
  183SOPE  H11S20942   2.427   5.273   7.941  3.2132 -0.8650  0.1150
  183SOPE  C21220943   2.375   5.470   8.012  0.1921 -0.0020 -0.1983
  183SOPE  H12R20944   2.273   5.473   7.969  0.0476  3.0429  0.1307
  183SOPE  H12S20945   2.413   5.574   8.015 -0.3743  0.1849  0.7861
  183SOPE  C21320946   2.378   5.415   8.150  0.5080  0.0518 -0.7000
  183SOPE  H13R20947   2.476   5.393   8.198  0.3007  1.3396  0.3463
  183SOPE  H13S20948   2.311   5.327   8.159  1.0034 -0.1312  2.2148
  183SOPE  C21420949   2.306   5.515   8.247 -0.4195  0.6024  0.1367
  183SOPE  H14R20950   2.252   5.462   8.327  0.0853  0.5718  0.4655
  183SOPE  H14S20951   2.223   5.570   8.198 -0.6422  0.5002  0.3983
  183SOPE  C21520952   2.411   5.616   8.299  0.2397 -0.7819  0.4318
  183SOPE  H15R20953   2.463   5.678   8.223  1.0651 -0.8119  0.9541
  183SOPE  H15S20954   2.481   5.561   8.366 -1.5935 -1.1501  2.1600
  183SOPE  C21620955   2.337   5.727   8.374  0.1283 -0.2829 -0.0367
  183SOPE  H16R20956   2.254   5.765   8.310  0.7291 -0.1798 -0.7732
  183SOPE  H16S20957   2.404   5.814   8.394  0.9867 -1.1170  0.7845
  183SOPE  C21720958   2.278   5.676   8.513  0.2103 -0.1327 -0.7926
  183SOPE  H17R20959   2.369   5.652   8.572 -0.3081  1.3652  0.7129
  183SOPE  H17S20960   2.227   5.578   8.503 -0.1608 -0.3195  2.0157
  183SOPE  C21820961   2.207   5.778   8.607  0.0555 -0.5436  0.2802
  183SOPE  H18R20962   2.273   5.867   8.621 -0.7703  0.2992 -0.9925
  183SOPE  H18S20963   2.180   5.731   8.704 -2.7234 -0.7280 -0.5154
  183SOPE  H18T20964   2.114   5.807   8.554 -0.0547 -2.2097 -0.4929
  183SOPE   C3320965   2.335   5.316   7.076 -0.4100 -0.4946 -0.2230
  183SOPE   H3X20966   2.401   5.394   7.118  1.8251 -1.2245 -2.1547
  183SOPE   H3Y20967   2.377   5.214   7.087  0.0374 -0.4494 -1.3906
  183SOPE   C3420968   2.211   5.313   7.167  0.5732 -0.6479  0.2110
  183SOPE   H4X20969   2.133   5.242   7.134 -0.9534  0.3352  1.5767
  183SOPE   H4Y20970   2.159   5.411   7.163  0.0905 -0.9158 -3.8819
  183SOPE   C3520971   2.254   5.284   7.308  0.6799 -0.4423 -0.9965
  183SOPE   H5X20972   2.312   5.370   7.346 -1.4647  0.7352 -0.2127
  183SOPE   H5Y20973   2.320   5.195   7.316  0.4108 -0.5288  0.7261
  183SOPE   C3620974   2.133   5.255   7.398  0.5139  0.5945 -0.0830
  183SOPE   H6X20975   2.073   5.168   7.367 -0.4888  1.2689 -0.0973
  183SOPE   H6Y20976   2.068   5.345   7.387 -0.6426 -0.2500 -0.2519
  183SOPE   C3720977   2.180   5.223   7.543  0.6969  0.3114 -0.4589
  183SOPE   H7X20978   2.241   5.311   7.572  3.0039 -1.5964  0.7832
  183SOPE   H7Y20979   2.255   5.142   7.536 -0.5919 -0.8487 -1.5634
  183SOPE   C3820980   2.075   5.168   7.631  0.5424  0.7843  0.4971
  183SOPE   H8X20981   2.031   5.074   7.591  0.4017  0.9638  0.2292
  183SOPE   H8Y20982   1.986   5.234   7.639  0.8313  1.3657 -0.9112
  183SOPE   C3920983   2.123   5.149   7.769  0.0495 -0.1088  0.1940
  183SOPE   H9X20984   2.161   5.245   7.810  0.0454 -0.6496  1.5109
  183SOPE   H9Y20985   2.212   5.083   7.781 -0.2778 -0.1162  3.3585
  183SOPE  C31020986   2.012   5.082   7.846 -0.4715 -0.2848  0.7229
  183SOPE  H10X20987   2.007   4.981   7.800  3.3827 -0.2714 -0.1108
  183SOPE  H10Y20988   1.919   5.139   7.829 -0.4707 -0.7115 -0.8008
  183SOPE  C31120989   2.054   5.077   7.996 -0.8108  0.3992 -0.2620
  183SOPE  H11X20990   2.066   5.183   8.028 -0.2748  0.0149  0.8704
  183SOPE  H11Y20991   2.154   5.028   8.002 -1.3979 -0.6673  1.2968
  183SOPE  C31220992   1.971   4.999   8.090 -0.1668  0.2591  0.0471
  183SOPE  H12X20993   1.940   4.905   8.040  1.1382  0.3927 -1.0769
  183SOPE  H12Y20994   1.884   5.059   8.126 -0.8834 -1.6102  1.5914
  183SOPE  C31320995   2.044   4.938   8.206 -0.1546  0.8782 -0.4197
  183SOPE  H13X20996   2.128   4.882   8.160 -0.6488  0.5314 -0.9061
  183SOPE  H13Y20997   1.991   4.860   8.264 -0.6046 -0.6897 -2.8180
  183SOPE  C31420998   2.107   5.047   8.296  0.3007 -0.8453 -0.0404
  183SOPE  H14X20999   2.022   5.116   8.317 -1.2415 -2.1420 -1.6510
  183SOPE  H14Y21000   2.183   5.096   8.232 -2.6756 -0.9851 -4.1182
  183SOPE  C31521001   2.153   5.003   8.438 -0.1761 -0.3694  0.1104
  183SOPE  H15X21002   2.244   4.943   8.420  0.6077  0.9698 -0.5655
  183SOPE  H15Y21003   2.080   4.936   8.488 -1.7164  1.0499 -0.1446
  183SOPE  C31621004   2.179   5.121   8.534  0.4498  0.5056 -1.0853
  183SOPE  H16X21005   2.198   5.084   8.637 -1.7437  1.1611 -0.3970
  183SOPE  H16Y21006   2.082   5.173   8.549  0.4239  0.1167  0.1881
  183SOPE  C31721007   2.278   5.223   8.485  0.3653  0.4753 -0.2030
  183SOPE  H17X21008   2.269   5.314   8.548 -1.4256 -0.6023  1.1936
  183SOPE  H17Y21009   2.250   5.258   8.383 -2.4077 -0.9244 -0.0142
  183SOPE  C31821010   2.417   5.168   8.490 -0.4205  0.4337 -0.4233
  183SOPE  H18X21011   2.494   5.243   8.460 -0.8655  1.3548  0.6471
  183SOPE  H18Y21012   2.441   5.090   8.415  0.4335  0.7674 -0.5107
  183SOPE  H18Z21013   2.440   5.130   8.592  0.2460 -0.3874 -0.8615
  184SOPE     N21014   1.687   0.988   6.050  0.4912 -0.4431  0.1066
  184SOPE   HN121015   1.752   0.945   5.982  1.1430  0.4073  0.1853
  184SOPE   HN221016   1.596   0.995   5.999  0.2829 -1.4855  0.3068
  184SOPE   HN321017   1.739   1.076   6.068 -0.5591  0.7725 -2.3947
  184SOPE   C1221018   1.661   0.905   6.174  0.0642  1.1452 -0.5884
  184SOPE  H12A21019   1.713   0.810   6.146 -2.9849 -0.0792 -2.6904
  184SOPE  H12B21020   1.551   0.892   6.184  0.1834  1.3776  1.3611
  184SOPE   C1121021   1.733   0.949   6.298  0.3138  0.1785 -0.6037
  184SOPE  H11A21022   1.697   0.881   6.379 -1.7222  1.2134 -0.5844
  184SOPE  H11B21023   1.693   1.049   6.322 -1.1903 -0.0426 -2.0519
  184SOPE     P21024   1.943   1.089   6.250  0.0649 -0.2796 -0.2695
  184SOPE   O1321025   1.879   1.167   6.143  0.0543 -0.8528 -0.1258
  184SOPE   O1421026   2.088   1.075   6.232 -0.2413 -0.2813 -0.0749
  184SOPE   O1221027   1.875   0.951   6.272  0.2997  0.1405  0.0729
  184SOPE   O1121028   1.912   1.169   6.383  0.3762  0.0335  0.0783
  184SOPE    C121029   1.899   1.107   6.511 -0.2033  0.7915 -0.6853
  184SOPE    HA21030   1.863   1.002   6.522  0.8804  0.5860  1.4764
  184SOPE    HB21031   1.825   1.170   6.564  1.0775  0.4398  1.6606
  184SOPE    C221032   2.037   1.117   6.592  0.9552 -0.2280 -0.5672
  184SOPE    HS21033   2.101   1.028   6.570  0.6499 -0.9762  1.3048
  184SOPE   O2121034   2.009   1.128   6.732 -0.3245 -0.0237 -0.4835
  184SOPE   C2121035   1.986   1.015   6.795 -0.6719 -0.1272 -0.4170
  184SOPE   O2221036   1.963   0.905   6.746  0.7157 -0.1260  0.1007
  184SOPE   C2221037   2.003   1.050   6.942 -0.5092  0.1082  0.1804
  184SOPE   H2R21038   1.926   1.125   6.970 -1.1878 -0.5171  0.0276
  184SOPE   H2S21039   2.104   1.095   6.955 -0.6787  0.7929 -0.7694
  184SOPE    C321040   2.105   1.252   6.550 -0.0640 -0.1049  0.4687
  184SOPE    HX21041   2.024   1.327   6.553 -0.4138 -0.5082  1.9839
  184SOPE    HY21042   2.137   1.241   6.444  0.0829 -0.1405  0.5164
  184SOPE   O3121043   2.220   1.306   6.625 -0.2191  0.2101  0.2431
  184SOPE   C3121044   2.266   1.423   6.578  0.2921  0.0113 -0.0056
  184SOPE   O3221045   2.223   1.472   6.478 -0.3341  0.1187  0.0187
  184SOPE   C3221046   2.372   1.482   6.669 -0.4159 -0.0337  0.5800
  184SOPE   H2X21047   2.447   1.521   6.597  0.0456  0.1027  1.1292
  184SOPE   H2Y21048   2.426   1.397   6.716 -0.8651 -3.0819 -3.7117
  184SOPE   C2321049   1.988   0.931   7.036 -0.5937 -0.2905  0.0169
  184SOPE   H3R21050   2.028   0.957   7.137  1.3676 -1.5428 -0.3923
  184SOPE   H3S21051   2.047   0.848   6.992 -2.0874 -2.0002  1.0597
  184SOPE   C2421052   1.843   0.888   7.052  0.3150 -0.2791 -0.4796
  184SOPE   H4R21053   1.801   0.890   6.949  2.7748  0.7969 -1.5570
  184SOPE   H4S21054   1.829   0.787   7.096  0.6193 -0.3092 -0.4448
  184SOPE   C2521055   1.757   0.973   7.154 -0.4289  0.7511  0.0678
  184SOPE   H5R21056   1.775   1.077   7.120 -1.0523  0.7055 -0.4020
  184SOPE   H5S21057   1.656   0.928   7.144  0.1531 -0.1015 -3.0336
  184SOPE   C2621058   1.801   0.978   7.307  0.0026  0.8839 -0.2473
  184SOPE   H6R21059   1.801   0.873   7.344 -1.7739  0.8368 -0.2879
  184SOPE   H6S21060   1.904   1.020   7.303  0.2733  0.1699 -2.6071
  184SOPE   C2721061   1.707   1.059   7.399 -0.4776  0.0396 -0.4420
  184SOPE   H7R21062   1.726   1.168   7.391 -1.0495  0.1422 -0.4443
  184SOPE   H7S21063   1.604   1.016   7.402  0.2820 -1.8751 -0.4085
  184SOPE   C2821064   1.758   1.029   7.552  0.0296 -0.7281 -0.2154
  184SOPE   H8R21065   1.706   1.106   7.613  1.0774 -0.7879  0.7810
  184SOPE   H8S21066   1.728   0.928   7.586 -1.3353  0.1164  1.2491
  184SOPE   C2921067   1.905   1.053   7.576  0.0865  0.4569  0.3426
  184SOPE   H9121068   1.964   0.963   7.555 -0.4111  0.3572 -0.6770
  184SOPE  C21021069   1.963   1.164   7.613  0.3158 -0.3813 -0.3891
  184SOPE  H10121070   2.071   1.157   7.632  0.4136  1.5088 -0.1161
  184SOPE  C21121071   1.899   1.301   7.632 -0.0851  0.8483  0.6097
  184SOPE  H11R21072   1.789   1.301   7.647 -0.0433 -0.4459  1.0806
  184SOPE  H11S21073   1.927   1.362   7.544  1.4392 -1.9783 -1.0408
  184SOPE  C21221074   1.969   1.375   7.746 -0.0165 -0.5474  0.1350
  184SOPE  H12R21075   1.923   1.475   7.757  1.4852  0.0479  1.2831
  184SOPE  H12S21076   2.077   1.381   7.721  0.3045 -0.6347  1.4258
  184SOPE  C21321077   1.953   1.311   7.885 -0.4518 -0.6459 -0.0784
  184SOPE  H13R21078   1.974   1.202   7.889  1.8295 -0.2334  1.0531
  184SOPE  H13S21079   1.845   1.324   7.906 -0.5451  0.9011 -1.3199
  184SOPE  C21421080   2.030   1.385   7.991  0.2707  0.4245 -0.4409
  184SOPE  H14R21081   2.007   1.490   7.963  2.0651  0.2112 -3.1183
  184SOPE  H14S21082   2.136   1.352   7.980  0.3024 -1.0067  2.9811
  184SOPE  C21521083   2.003   1.349   8.134 -0.0797  0.1800 -0.0645
  184SOPE  H15R21084   2.042   1.247   8.159  0.7574  0.2041 -1.1530
  184SOPE  H15S21085   1.894   1.346   8.152 -0.1636 -1.7736 -0.6582
  184SOPE  C21621086   2.053   1.453   8.236  0.0702  0.3737  0.6079
  184SOPE  H16R21087   2.014   1.552   8.202  0.3176 -0.0859 -1.1355
  184SOPE  H16S21088   2.164   1.444   8.243  0.1744  2.0069  1.8898
  184SOPE  C21721089   2.006   1.428   8.384  0.3969 -0.2419  0.5187
  184SOPE  H17R21090   2.031   1.326   8.421  2.4666 -0.0489 -0.2245
  184SOPE  H17S21091   1.895   1.428   8.385  0.3550 -0.8567 -1.0470
  184SOPE  C21821092   2.063   1.535   8.484 -0.4034  0.4121  0.2873
  184SOPE  H18R21093   2.015   1.632   8.462 -1.8889 -0.1435  0.9114
  184SOPE  H18S21094   2.173   1.544   8.475 -0.4842  0.0799 -1.5629
  184SOPE  H18T21095   2.034   1.510   8.588  0.1999  1.4223  0.7078
  184SOPE   C3321096   2.323   1.591   6.763 -0.4813 -0.3107 -0.1953
  184SOPE   H3X21097   2.264   1.668   6.709 -0.1828  0.3090  0.3422
  184SOPE   H3Y21098   2.412   1.649   6.794 -1.8329  0.8804  1.7361
  184SOPE   C3421099   2.253   1.536   6.891  0.5718  0.0373  0.1270
  184SOPE   H4X21100   2.165   1.475   6.863  1.6274 -0.6815 -1.7803
  184SOPE   H4Y21101   2.211   1.620   6.950  2.1326  0.6546  0.4272
  184SOPE   C3521102   2.346   1.463   6.993  0.0286  0.6481  0.5880
  184SOPE   H5X21103   2.445   1.441   6.946  0.0706  0.1000  0.9270
  184SOPE   H5Y21104   2.304   1.362   7.012  0.6956  0.5805  1.7680
  184SOPE   C3621105   2.393   1.546   7.109 -0.7623  0.5890 -0.2923
  184SOPE   H6X21106   2.310   1.602   7.157 -1.0499 -0.5518  0.5682
  184SOPE   H6Y21107   2.457   1.628   7.070  0.8266  0.7450  2.3999
  184SOPE   C3721108   2.464   1.474   7.229  0.3128  0.2410  0.1730
  184SOPE   H7X21109   2.570   1.459   7.199  0.2248  0.2933 -0.1627
  184SOPE   H7Y21110   2.417   1.375   7.248  0.1200  0.3836  0.4491
  184SOPE   C3821111   2.458   1.558   7.355  0.3239  0.6406 -0.3538
  184SOPE   H8X21112   2.358   1.558   7.403 -0.4060  0.0973 -1.8018
  184SOPE   H8Y21113   2.460   1.661   7.312  1.8075  0.8541  0.1738
  184SOPE   C3921114   2.561   1.520   7.464  0.0345 -0.5358  0.3094
  184SOPE   H9X21115   2.666   1.547   7.438 -0.0448  1.1413  1.5640
  184SOPE   H9Y21116   2.554   1.412   7.486 -1.4324 -0.8087 -1.2843
  184SOPE  C31021117   2.541   1.611   7.593  0.1501  0.2822 -0.6977
  184SOPE  H10X21118   2.432   1.596   7.605  0.3051 -0.4413 -0.1582
  184SOPE  H10Y21119   2.564   1.719   7.580  0.9903  0.1164 -0.6526
  184SOPE  C31121120   2.608   1.558   7.729 -0.2763  0.1099 -0.3540
  184SOPE  H11X21121   2.718   1.571   7.730 -0.3087  0.4000 -0.5972
  184SOPE  H11Y21122   2.595   1.448   7.740  0.2604 -0.0133 -0.8700
  184SOPE  C31221123   2.556   1.618   7.856  0.1902 -0.1051  0.0112
  184SOPE  H12X21124   2.449   1.589   7.872 -0.9779  2.5655 -2.1125
  184SOPE  H12Y21125   2.541   1.725   7.831  1.8687 -0.2914 -2.1011
  184SOPE  C31321126   2.656   1.610   7.973 -0.1334  0.3624  0.5550
  184SOPE  H13X21127   2.751   1.666   7.960  0.1934 -0.3046  0.0122
  184SOPE  H13Y21128   2.698   1.508   7.985  1.9216  0.9957 -0.6704
  184SOPE  C31421129   2.578   1.654   8.102 -0.6877  0.5031 -0.1666
  184SOPE  H14X21130   2.528   1.572   8.157  1.0728  0.9470  2.2888
  184SOPE  H14Y21131   2.515   1.741   8.072 -0.0929  0.6111 -1.1554
  184SOPE  C31521132   2.680   1.710   8.204 -0.3277  0.5412  0.2909
  184SOPE  H15X21133   2.736   1.788   8.148 -1.0145  2.1634  1.8027
  184SOPE  H15Y21134   2.759   1.635   8.227  1.8665  1.4741 -3.2691
  184SOPE  C31621135   2.605   1.777   8.322 -1.0868  0.2592 -0.2022
  184SOPE  H16X21136   2.550   1.691   8.365  0.5291 -1.2534 -1.0421
  184SOPE  H16Y21137   2.522   1.837   8.277 -0.4590 -1.0830 -3.4947
  184SOPE  C31721138   2.699   1.844   8.427 -0.3008  0.1542  0.7426
  184SOPE  H17X21139   2.745   1.932   8.377 -1.3379  1.1023  1.4112
  184SOPE  H17Y21140   2.779   1.773   8.458 -2.0274 -1.5440  1.4852
  184SOPE  C31821141   2.622   1.891   8.548 -0.6850  0.2763  0.3399
  184SOPE  H18X21142   2.694   1.933   8.622  1.1975 -1.3120 -0.5037
  184SOPE  H18Y21143   2.572   1.809   8.604 -0.4796  2.4619  4.0481
  184SOPE  H18Z21144   2.551   1.973   8.521 -0.4332  0.4761  0.2786
  185SAPI   C1221145   4.590   3.939  10.953 -0.0896  0.7654 -0.0493
  185SAPI    H221146   4.657   3.969  10.870 -1.3671 -2.4050 -2.4595
  185SAPI    O221147   4.504   3.837  10.898 -0.0411 -0.5057  0.0324
  185SAPI   HO221148   4.470   3.870  10.815  0.5738 -1.0941 -0.4608
  185SAPI   C1321149   4.677   3.881  11.062 -0.1401 -0.5058 -0.7093
  185SAPI    H321150   4.746   3.959  11.099  1.3560 -2.3087  0.4538
  185SAPI    O321151   4.763   3.778  11.017  0.4570  0.7515 -0.4575
  185SAPI   HO321152   4.708   3.701  11.002  0.1692  0.4459  1.8162
  185SAPI   C1421153   4.588   3.831  11.181  0.1071  0.3785  1.0042
  185SAPI    H421154   4.523   3.750  11.143  2.2156 -1.3054  0.8158
  185SAPI    O421155   4.666   3.757  11.282  0.2716  0.3175  0.0384
  185SAPI   HO421156   4.619   3.677  11.305  1.6053 -0.6783 -0.5777
  185SAPI   C1521157   4.496   3.944  11.237  0.6011  0.3368  0.4293
  185SAPI    H521158   4.569   4.019  11.275  0.3469  1.0903 -0.5428
  185SAPI    O521159   4.415   3.912  11.346  0.2772  0.0557 -0.6768
  185SAPI   HO521160   4.345   3.847  11.335  0.8671 -0.5269 -1.1246
  185SAPI   C1621161   4.416   4.011  11.123 -0.3875 -0.3152 -0.0830
  185SAPI    H621162   4.342   3.931  11.101 -0.5746 -0.0329 -0.4786
  185SAPI    O621163   4.332   4.113  11.168 -0.6064 -0.2139 -0.3512
  185SAPI   HO621164   4.307   4.162  11.089  2.6947  0.9240 -0.8478
  185SAPI   C1121165   4.502   4.052  11.004 -1.0340  0.3132  0.3547
  185SAPI    H121166   4.570   4.127  11.049  0.1273 -0.2185 -0.4930
  185SAPI     P21167   4.419   4.272  10.870  0.2427  0.3526  0.5863
  185SAPI   O1321168   4.405   4.340  10.997 -0.2687 -0.0791 -0.1523
  185SAPI   O1421169   4.307   4.286  10.769 -0.2308 -0.8759  0.1446
  185SAPI   O1221170   4.425   4.108  10.904  0.7133 -0.1771  0.3346
  185SAPI   O1121171   4.560   4.304  10.815  0.3159 -0.6420  0.4690
  185SAPI    C121172   4.624   4.221  10.713  0.0668  0.3705 -0.9104
  185SAPI    HA21173   4.735   4.221  10.719  0.0234  1.4110  0.2688
  185SAPI    HB21174   4.588   4.117  10.722  1.1107  0.1078  0.7045
  185SAPI    C221175   4.607   4.268  10.567  0.3243  0.1388 -0.3547
  185SAPI    HS21176   4.705   4.256  10.516  1.0344 -0.2635  1.0695
  185SAPI   O2121177   4.566   4.404  10.569  0.0512 -0.2187 -0.4238
  185SAPI   C2121178   4.669   4.489  10.603 -0.0761 -0.3618  0.2835
  185SAPI   O2221179   4.787   4.450  10.607  0.4865  0.0635  0.5079
  185SAPI   C2221180   4.628   4.633  10.650 -0.0000  0.3019  1.0442
  185SAPI   H2R21181   4.543   4.636  10.720 -2.1337  1.9258 -1.4364
  185SAPI   H2S21182   4.720   4.682  10.690  2.2743 -0.4975 -2.6873
  185SAPI    C321183   4.506   4.186  10.484  0.2737 -0.3849 -0.3262
  185SAPI    HX21184   4.406   4.201  10.531  0.9519 -1.0496  1.4013
  185SAPI    HY21185   4.536   4.080  10.480 -2.9375 -1.3993 -0.8496
  185SAPI   O3121186   4.475   4.247  10.358 -0.2885  0.2776 -0.1791
  185SAPI   C3121187   4.521   4.192  10.242 -0.3817 -0.1279 -0.4855
  185SAPI   O3221188   4.581   4.087  10.240 -0.2825 -0.7704  0.2792
  185SAPI   C3221189   4.475   4.270  10.118  0.1748 -0.3115 -0.7290
  185SAPI   H2X21190   4.514   4.374  10.122  2.7241 -1.1954  2.9946
  185SAPI   H2Y21191   4.364   4.270  10.111  0.0828  3.3830 -1.2902
  185SAPI   C2321192   4.574   4.720  10.534 -0.1091 -0.0639 -0.3140
  185SAPI   H3R21193   4.547   4.811  10.592 -1.1997 -1.3028  1.2140
  185SAPI   H3S21194   4.496   4.671  10.473  0.6652 -1.9391  0.0979
  185SAPI   C2421195   4.685   4.774  10.439 -0.6467  0.1872 -0.5459
  185SAPI   H4R21196   4.735   4.690  10.386  0.7860 -0.1886  1.2881
  185SAPI   H4S21197   4.747   4.819  10.520 -0.8332  2.9779 -1.8282
  185SAPI   C2521198   4.621   4.881  10.351 -0.3196 -0.0880  0.4555
  185SAPI   H5R21199   4.548   4.945  10.404  0.3268  1.0483 -0.0059
  185SAPI   C2621200   4.628   4.887  10.216  0.5521  0.3611 -0.3238
  185SAPI   H6R21201   4.589   4.976  10.163  1.6342  1.5757  0.8665
  185SAPI   C2721202   4.694   4.791  10.115  0.5613  0.1942 -0.6182
  185SAPI   H7R21203   4.795   4.770  10.157  0.1792  2.3571  1.6171
  185SAPI   H7S21204   4.715   4.834  10.015  1.0639  0.1679 -0.5301
  185SAPI   C2821205   4.620   4.664  10.095 -0.4831  0.6188  0.4580
  185SAPI   H8R21206   4.638   4.586  10.171  0.8135 -0.8889 -1.3132
  185SAPI   C2921207   4.542   4.635   9.986  0.7973  0.6738 -0.0977
  185SAPI   H9R21208   4.495   4.535   9.988  1.9142  0.1446  1.1865
  185SAPI  C21021209   4.518   4.730   9.865  0.4916 -0.2351 -0.1307
  185SAPI  H10R21210   4.507   4.836   9.897  0.6050  0.3872 -2.0456
  185SAPI  H10S21211   4.422   4.709   9.815  0.1858  0.3881  0.1821
  185SAPI  C21121212   4.635   4.729   9.775 -0.2591  0.0822  0.2553
  185SAPI  H11R21213   4.728   4.683   9.810  0.2980 -0.4940 -1.8374
  185SAPI  C21221214   4.634   4.781   9.650 -0.4517  1.3253 -0.4230
  185SAPI  H12R21215   4.727   4.785   9.591 -1.2177 -2.1378 -2.1387
  185SAPI  C21321216   4.526   4.843   9.571 -0.7954  0.0397 -0.2962
  185SAPI  H13R21217   4.557   4.927   9.505  0.1620  1.1763  1.5304
  185SAPI  H13S21218   4.453   4.885   9.643  0.1795 -0.2236  0.8649
  185SAPI  C21421219   4.451   4.735   9.493 -0.3656 -0.1614 -0.2800
  185SAPI  H14R21220   4.470   4.629   9.515 -1.4790  0.0590  2.0517
  185SAPI  C21521221   4.364   4.758   9.399  1.2018 -0.0344 -0.9599
  185SAPI  H15R21222   4.314   4.668   9.359  0.9313 -0.4419  0.2610
  185SAPI  C21621223   4.324   4.894   9.343 -0.2645  0.6390 -0.0137
  185SAPI  H16R21224   4.376   4.977   9.393  0.0152  0.7375 -0.4624
  185SAPI  H16S21225   4.214   4.898   9.359 -0.2155 -1.4174  1.1592
  185SAPI  C21721226   4.366   4.907   9.190 -0.0373 -0.5081  0.4155
  185SAPI  H17R21227   4.467   4.861   9.181  0.7746  1.5056 -1.4898
  185SAPI  H17S21228   4.374   5.007   9.143  0.3031 -0.9012 -0.3777
  185SAPI  C21821229   4.267   4.815   9.117 -0.0511  0.7471 -0.1927
  185SAPI  H18R21230   4.164   4.827   9.157  0.0969  0.0013  0.4374
  185SAPI  H18S21231   4.304   4.713   9.140 -0.7170  0.3625 -0.7970
  185SAPI  C21921232   4.250   4.848   8.966  0.3408  0.1629 -0.3212
  185SAPI  H19R21233   4.216   4.752   8.922  2.1486 -0.3779 -0.6196
  185SAPI  H19S21234   4.353   4.863   8.927  1.0306 -0.3948  1.1679
  185SAPI  C22021235   4.139   4.953   8.937 -0.3015  0.2863 -0.3960
  185SAPI  H20R21236   4.169   5.049   8.984  1.2197 -0.8024  0.9803
  185SAPI  H20S21237   4.042   4.914   8.975 -0.1131  1.3479  1.3120
  185SAPI  H20T21238   4.125   4.966   8.828 -0.7859 -1.5641 -0.5948
  185SAPI   C3321239   4.504   4.198   9.983 -0.2884  0.0510 -0.0483
  185SAPI   H3X21240   4.461   4.095   9.979  2.0098 -1.0413  1.2611
  185SAPI   H3Y21241   4.614   4.191   9.971 -0.3438  2.0187 -2.1985
  185SAPI   C3421242   4.464   4.296   9.872  1.1083 -0.1032 -0.9963
  185SAPI   H4X21243   4.537   4.378   9.888 -0.3512  0.6730  2.6928
  185SAPI   H4Y21244   4.367   4.337   9.906  1.7135 -0.0234  0.7228
  185SAPI   C3521245   4.465   4.246   9.729  0.6529 -0.9575  0.1087
  185SAPI   H5X21246   4.373   4.187   9.707  0.0247  0.5053 -1.4020
  185SAPI   H5Y21247   4.562   4.196   9.711  3.2369  3.4660  0.5090
  185SAPI   C3621248   4.458   4.357   9.632  0.6267 -0.5405 -0.1055
  185SAPI   H6X21249   4.544   4.423   9.653 -2.9358  4.4944  0.3815
  185SAPI   H6Y21250   4.361   4.407   9.652 -0.1194 -1.6035 -0.9156
  185SAPI   C3721251   4.453   4.320   9.487 -0.1138  0.6418 -0.1251
  185SAPI   H7X21252   4.516   4.230   9.470  0.6759  1.1274  0.1501
  185SAPI   H7Y21253   4.495   4.404   9.427 -1.5608  1.2765 -0.3033
  185SAPI   C3821254   4.312   4.291   9.430  0.6460  0.0229 -0.7071
  185SAPI   H8X21255   4.252   4.384   9.437 -0.8453 -0.9095 -0.6620
  185SAPI   H8Y21256   4.260   4.203   9.473  0.9127 -0.5905 -1.5995
  185SAPI   C3921257   4.312   4.264   9.276  1.1167 -0.4872 -0.2959
  185SAPI   H9X21258   4.395   4.197   9.246  1.9028  0.5645 -0.5062
  185SAPI   H9Y21259   4.330   4.359   9.221  1.4609  0.7166  1.7977
  185SAPI  C31021260   4.181   4.198   9.233 -0.3443 -0.1712 -0.4193
  185SAPI  H10X21261   4.100   4.269   9.261 -1.3827 -1.3805 -0.2664
  185SAPI  H10Y21262   4.164   4.105   9.291 -0.7076 -0.2180 -0.5963
  185SAPI  C31121263   4.180   4.173   9.081  0.3285 -0.5982  0.1744
  185SAPI  H11X21264   4.277   4.124   9.059 -0.0664 -0.4485 -2.1878
  185SAPI  H11Y21265   4.193   4.273   9.035 -0.9962 -0.1834  0.6530
  185SAPI  C31221266   4.051   4.099   9.033 -0.5379 -0.0563 -0.6640
  185SAPI  H12X21267   3.968   4.133   9.099  0.2475  1.7209 -0.5307
  185SAPI  H12Y21268   4.067   3.989   9.035  2.2810  0.2448 -2.0038
  185SAPI  C31321269   4.012   4.133   8.892 -0.6819  0.1122 -0.2748
  185SAPI  H13X21270   3.968   4.235   8.898  1.1661  0.9128  0.1278
  185SAPI  H13Y21271   3.945   4.059   8.841  1.0213 -0.6583 -1.4905
  185SAPI  C31421272   4.136   4.129   8.798 -1.0926  0.4586  0.1764
  185SAPI  H14X21273   4.181   4.028   8.803 -0.6987  0.3791 -2.9168
  185SAPI  H14Y21274   4.216   4.202   8.825 -0.3725  0.2622 -1.2927
  185SAPI  C31521275   4.104   4.155   8.644 -0.4845  0.0426 -0.5936
  185SAPI  H15X21276   4.098   4.266   8.641  0.7239  0.2262  1.5846
  185SAPI  H15Y21277   4.003   4.111   8.629  1.0390 -3.9619 -0.1856
  185SAPI  C31621278   4.212   4.090   8.557 -0.0505 -0.7498  0.7487
  185SAPI  H16X21279   4.217   3.983   8.587 -2.2959 -1.4036 -0.9271
  185SAPI  H16Y21280   4.301   4.154   8.572 -1.0729  0.6652  1.0122
  185SAPI  C31721281   4.170   4.107   8.409 -0.2913  0.1484 -0.1481
  185SAPI  H17X21282   4.113   4.199   8.386 -1.0741  0.3482  2.3310
  185SAPI  H17Y21283   4.087   4.039   8.380 -1.8000  1.8496  0.0165
  185SAPI  C31821284   4.291   4.102   8.317  0.0904  0.1309 -0.2092
  185SAPI  H18X21285   4.352   4.010   8.326  0.2950  0.2582 -0.2888
  185SAPI  H18Y21286   4.351   4.192   8.344 -0.6478  0.1113  1.6874
  185SAPI  H18Z21287   4.272   4.115   8.208 -0.6970  0.7727 -0.0106
  186SAPI   C1221288   0.322   3.198  11.194  0.0955 -0.5460 -1.1048
  186SAPI    H221289   0.235   3.214  11.127 -0.4235 -3.2758 -1.2047
  186SAPI    O221290   0.403   3.312  11.182  0.2359  0.3472  0.0800
  186SAPI   HO221291   0.417   3.312  11.087 -1.0742 -0.2036 -0.1277
  186SAPI   C1321292   0.277   3.182  11.335  0.1305  0.3025 -0.1906
  186SAPI    H321293   0.203   3.099  11.332  0.1703  0.2605 -0.0355
  186SAPI    O321294   0.205   3.300  11.382  0.0650 -0.3405  0.3077
  186SAPI   HO321295   0.241   3.378  11.338 -2.4528  1.3850  1.0512
  186SAPI   C1421296   0.402   3.152  11.427 -0.6368  0.3110  0.0426
  186SAPI    H421297   0.472   3.237  11.429 -2.4565  1.9349 -1.2028
  186SAPI    O421298   0.364   3.128  11.563 -0.0715 -0.5034  0.2954
  186SAPI   HO421299   0.415   3.186  11.620  0.8947 -0.9521 -0.0946
  186SAPI   C1521300   0.473   3.021  11.370  0.2921  0.0762  0.0679
  186SAPI    H521301   0.396   2.941  11.369  0.3711 -0.0043 -0.7411
  186SAPI    O521302   0.583   2.983  11.456 -0.1853 -0.4953  0.4511
  186SAPI   HO521303   0.585   2.887  11.452  0.5561 -0.4870 -3.8979
  186SAPI   C1621304   0.516   3.043  11.224  0.4135 -0.7989 -0.0765
  186SAPI    H621305   0.597   3.118  11.217 -0.2975  0.1525  1.3195
  186SAPI    O621306   0.564   2.918  11.180 -0.0760 -0.0280  0.0970
  186SAPI   HO621307   0.505   2.885  11.112 -0.6190  0.1950  0.4520
  186SAPI   C1121308   0.393   3.073  11.144  0.1578 -0.2161  0.2716
  186SAPI    H121309   0.315   2.994  11.152  0.7003 -0.8033 -0.1574
  186SAPI     P21310   0.403   2.985  10.890 -0.0739  0.1315  0.2401
  186SAPI   O1321311   0.451   2.854  10.936  0.1679 -0.5009  0.4285
  186SAPI   O1421312   0.476   3.044  10.776  0.2146  0.5326 -0.1494
  186SAPI   O1221313   0.439   3.088  11.009 -0.5307 -0.3951 -0.3511
  186SAPI   O1121314   0.249   2.985  10.874  0.0913 -0.4718  0.4456
  186SAPI    C121315   0.178   3.109  10.875 -0.1636 -0.0396 -0.4458
  186SAPI    HA21316   0.106   3.112  10.959 -0.3210  3.7106 -0.5685
  186SAPI    HB21317   0.236   3.202  10.892 -3.4466  1.7699  2.0616
  186SAPI    C221318   0.089   3.135  10.749 -0.1090  0.4585 -0.4263
  186SAPI    HS21319   0.015   3.053  10.741  0.1804 -0.1273  1.9549
  186SAPI   O2121320   0.175   3.139  10.637 -0.2146 -0.1371 -0.1470
  186SAPI   C2121321   0.180   3.040  10.549 -0.3387  0.4630 -0.8290
  186SAPI   O2221322   0.125   2.931  10.563  0.7736  0.7476  0.1466
  186SAPI   C2221323   0.269   3.083  10.432 -0.4483 -0.2363 -0.2442
  186SAPI   H2R21324   0.300   3.188  10.452 -1.9056  0.0733  0.6158
  186SAPI   H2S21325   0.363   3.024  10.434 -1.1942 -1.4439  0.4177
  186SAPI    C321326   0.007   3.265  10.771  0.7324  0.0861  0.8925
  186SAPI    HX21327   0.089   3.338  10.788 -0.0248  0.6457  2.2328
  186SAPI    HY21328  -0.044   3.234  10.864  0.6220 -1.1313  0.4383
  186SAPI   O3121329  -0.076   3.290  10.658 -0.0968 -0.0955 -0.4880
  186SAPI   C3121330  -0.110   3.415  10.645 -0.3962 -1.1493  0.1380
  186SAPI   O3221331  -0.076   3.497  10.729 -0.2768  0.4064 -0.2837
  186SAPI   C3221332  -0.191   3.444  10.516  0.3550  0.0319  0.3603
  186SAPI   H2X21333  -0.279   3.377  10.522  0.4388 -0.1882 -0.6830
  186SAPI   H2Y21334  -0.127   3.408  10.432 -1.9968 -1.0995 -1.0546
  186SAPI   C2321335   0.189   3.071  10.301 -0.6118  0.2548  0.0916
  186SAPI   H3R21336   0.109   3.149  10.305  0.0424  1.0149 -1.0265
  186SAPI   H3S21337   0.164   2.963  10.293  2.3354 -0.4215 -1.2571
  186SAPI   C2421338   0.267   3.097  10.171  0.3863  0.4353  0.2598
  186SAPI   H4R21339   0.304   3.202  10.171  3.6523 -0.6125  0.2159
  186SAPI   H4S21340   0.193   3.094  10.088  1.3628  0.6066 -0.6248
  186SAPI   C2521341   0.380   3.005  10.130 -0.3287 -0.0253  0.0524
  186SAPI   H5R21342   0.462   3.008  10.203 -0.2224  1.3282 -0.1052
  186SAPI   C2621343   0.407   2.924  10.023 -0.1996  0.0760 -0.8328
  186SAPI   H6R21344   0.506   2.876  10.022 -0.8565 -1.3506 -2.4070
  186SAPI   C2721345   0.317   2.905   9.903  0.6304  0.2368 -0.2561
  186SAPI   H7R21346   0.211   2.913   9.934 -0.1174 -3.9922 -1.0066
  186SAPI   H7S21347   0.338   2.802   9.865 -1.5320  0.3966 -2.0607
  186SAPI   C2821348   0.348   3.009   9.792 -1.1603  0.0023 -0.4132
  186SAPI   H8R21349   0.380   3.111   9.815 -1.7023  0.7004 -2.5072
  186SAPI   C2921350   0.325   2.994   9.661 -0.7152 -0.3347 -0.2977
  186SAPI   H9R21351   0.360   3.071   9.590  0.8520 -0.2127  0.5454
  186SAPI  C21021352   0.274   2.877   9.580 -0.0120  0.3852  0.1895
  186SAPI  H10R21353   0.270   2.779   9.634  1.7067  0.1147 -0.1204
  186SAPI  H10S21354   0.326   2.865   9.483  1.4727  1.9133  0.7481
  186SAPI  C21121355   0.127   2.911   9.554  0.0667  0.0067 -0.1504
  186SAPI  H11R21356   0.068   2.914   9.647  1.1322 -0.3369  0.5625
  186SAPI  C21221357   0.082   2.959   9.437  0.3040 -0.4502 -0.7111
  186SAPI  H12R21358  -0.022   2.995   9.430 -0.9279 -3.7470 -1.3783
  186SAPI  C21321359   0.163   2.992   9.315  0.0816 -0.2327 -0.4416
  186SAPI  H13R21360   0.217   2.904   9.273  0.7551 -0.2983  0.5188
  186SAPI  H13S21361   0.241   3.062   9.352  0.1392 -0.4045 -0.2338
  186SAPI  C21421362   0.068   3.056   9.214 -0.0314  0.0803 -0.6152
  186SAPI  H14R21363  -0.036   3.019   9.214  0.2836 -0.8461  0.1033
  186SAPI  C21521364   0.108   3.144   9.123 -0.1337 -0.0738  0.0060
  186SAPI  H15R21365   0.039   3.191   9.051 -0.6376 -0.9541 -0.1013
  186SAPI  C21621366   0.240   3.203   9.108 -0.0403 -0.2801  0.4844
  186SAPI  H16R21367   0.309   3.119   9.086 -0.4194 -0.2623 -0.7986
  186SAPI  H16S21368   0.259   3.262   9.201 -0.8513 -0.8653  1.0268
  186SAPI  C21721369   0.258   3.291   8.976 -0.0952  0.5885 -0.0160
  186SAPI  H17R21370   0.348   3.356   8.986  0.9598 -1.0046  1.2973
  186SAPI  H17S21371   0.171   3.359   8.962 -1.4919 -1.2711 -0.7723
  186SAPI  C21821372   0.301   3.208   8.853  0.7438  0.0920 -0.0522
  186SAPI  H18R21373   0.227   3.132   8.820  0.8084 -0.6417  1.4284
  186SAPI  H18S21374   0.391   3.154   8.889  1.5522  1.1868 -0.3657
  186SAPI  C21921375   0.324   3.291   8.722  0.4729  0.0767 -0.2379
  186SAPI  H19R21376   0.398   3.229   8.667  0.6165 -1.0286  1.1232
  186SAPI  H19S21377   0.383   3.380   8.753 -0.1855  0.1846  0.7593
  186SAPI  C22021378   0.192   3.302   8.640 -0.4897  0.5357 -0.9966
  186SAPI  H20R21379   0.160   3.199   8.615  0.6403  0.1927 -1.1156
  186SAPI  H20S21380   0.222   3.349   8.543 -1.1463  1.7654 -0.6254
  186SAPI  H20T21381   0.113   3.354   8.698  0.4260 -1.4591  2.2925
  186SAPI   C3321382  -0.229   3.588  10.508 -0.6114 -0.5737 -0.0117
  186SAPI   H3X21383  -0.143   3.654  10.485 -0.2932 -0.6025  1.0256
  186SAPI   H3Y21384  -0.269   3.612  10.609  0.1192 -0.8367  0.3454
  186SAPI   C3421385  -0.330   3.615  10.393  0.2031 -0.1236 -0.5433
  186SAPI   H4X21386  -0.370   3.719  10.396 -2.9779 -1.1548 -2.3128
  186SAPI   H4Y21387  -0.420   3.551  10.408 -0.4543  0.5196 -1.6287
  186SAPI   C3521388  -0.276   3.594  10.248 -0.0498  0.1885  0.4398
  186SAPI   H5X21389  -0.243   3.488  10.237  2.6227  0.9684  0.3234
  186SAPI   H5Y21390  -0.185   3.656  10.246  0.4880 -0.5923  0.3685
  186SAPI   C3621391  -0.380   3.631  10.146 -0.2999  0.5354 -0.2246
  186SAPI   H6X21392  -0.418   3.735  10.154  0.2356  0.6376  1.5455
  186SAPI   H6Y21393  -0.459   3.553  10.152 -1.0767  1.4007  1.5530
  186SAPI   C3721394  -0.313   3.616  10.009  0.1319 -0.0419  0.1986
  186SAPI   H7X21395  -0.280   3.510  10.003  0.1320 -0.1971  2.3533
  186SAPI   H7Y21396  -0.223   3.677   9.985  0.2385 -0.6776 -1.1493
  186SAPI   C3821397  -0.431   3.627   9.904  0.1585 -0.2996  0.0478
  186SAPI   H8X21398  -0.482   3.720   9.935 -1.6721 -0.1101 -3.1640
  186SAPI   H8Y21399  -0.498   3.538   9.911 -2.2855  1.1760 -2.4837
  186SAPI   C3921400  -0.377   3.649   9.767 -0.1388  0.5471 -0.1682
  186SAPI   H9X21401  -0.300   3.571   9.747 -1.3896 -1.0475  0.9548
  186SAPI   H9Y21402  -0.330   3.750   9.762  2.5821 -0.6041  0.2975
  186SAPI  C31021403  -0.481   3.633   9.652  0.5082 -0.6391 -0.2882
  186SAPI  H10X21404  -0.561   3.703   9.683 -0.5441 -1.0461 -1.9137
  186SAPI  H10Y21405  -0.527   3.532   9.647 -0.5655 -0.1524 -0.7601
  186SAPI  C31121406  -0.438   3.673   9.512  0.7928 -0.2553 -0.1066
  186SAPI  H11X21407  -0.376   3.588   9.476 -0.2854 -0.4440 -1.5909
  186SAPI  H11Y21408  -0.372   3.762   9.517  2.0490 -1.0693 -1.4818
  186SAPI  C31221409  -0.562   3.695   9.422 -0.3338  0.0754 -0.4934
  186SAPI  H12X21410  -0.623   3.775   9.470  1.7932 -0.9964  4.6252
  186SAPI  H12Y21411  -0.622   3.601   9.424 -1.1324  0.5722 -0.6281
  186SAPI  C31321412  -0.518   3.731   9.278  0.4067  0.5173 -0.0636
  186SAPI  H13X21413  -0.611   3.761   9.226  0.5613 -0.9015 -1.2120
  186SAPI  H13Y21414  -0.478   3.642   9.225 -1.6482 -2.8460  3.5603
  186SAPI  C31421415  -0.428   3.855   9.269 -0.1298  0.3283  0.0564
  186SAPI  H14X21416  -0.326   3.827   9.304 -0.5991 -1.3701  0.1785
  186SAPI  H14Y21417  -0.455   3.928   9.347  0.3554 -0.0624  0.6036
  186SAPI  C31521418  -0.424   3.916   9.129 -0.1406  0.0510  0.6669
  186SAPI  H15X21419  -0.356   4.005   9.127 -1.9865  1.5569  1.3682
  186SAPI  H15Y21420  -0.521   3.966   9.108  0.1833  0.5902  0.4172
  186SAPI  C31621421  -0.376   3.819   9.020  0.7054 -0.2083  0.7416
  186SAPI  H16X21422  -0.449   3.736   9.004 -1.1740  1.5428 -0.2054
  186SAPI  H16Y21423  -0.276   3.783   9.051  1.3653  1.3512  0.4799
  186SAPI  C31721424  -0.380   3.900   8.887  0.5863  0.7159 -0.3612
  186SAPI  H17X21425  -0.326   3.997   8.893  1.1771  0.3425  0.3997
  186SAPI  H17Y21426  -0.484   3.931   8.862  0.1187 -1.5168 -1.4397
  186SAPI  C31821427  -0.316   3.823   8.771 -0.1292  0.2739 -0.3187
  186SAPI  H18X21428  -0.329   3.885   8.680  2.7748  2.8458  0.8159
  186SAPI  H18Y21429  -0.369   3.726   8.760 -0.6115  0.3848  0.8556
  186SAPI  H18Z21430  -0.206   3.804   8.781 -0.2737 -1.2486 -1.2804
  187SAPI   C1221431   3.394   4.240   6.397  0.6431  0.3153 -0.4864
  187SAPI    H221432   3.405   4.129   6.390  0.3497  0.3386 -1.3985
  187SAPI    O221433   3.351   4.288   6.270  0.0175 -0.7182  0.0871
  187SAPI   HO221434   3.428   4.282   6.213  0.9727 -1.4270  1.4070
  187SAPI   C1321435   3.284   4.246   6.497  0.1056 -0.0079  0.4102
  187SAPI    H321436   3.321   4.203   6.593 -1.2539  1.0429  1.4466
  187SAPI    O321437   3.177   4.160   6.464  0.3364 -0.2132 -0.3786
  187SAPI   HO321438   3.155   4.181   6.373  0.6793 -1.8366 -0.8582
  187SAPI   C1421439   3.245   4.388   6.529 -0.1813  0.1497 -0.6588
  187SAPI    H421440   3.211   4.430   6.432 -0.6375 -0.6846 -0.8690
  187SAPI    O421441   3.127   4.407   6.610  0.1019  0.5251  0.3761
  187SAPI   HO421442   3.052   4.443   6.562 -0.6867 -1.3169  0.1428
  187SAPI   C1521443   3.369   4.471   6.568  1.2268 -0.5817  0.3798
  187SAPI    H521444   3.407   4.446   6.670 -0.4958 -0.0307  1.1850
  187SAPI    O521445   3.337   4.610   6.585 -0.3047  0.1823 -0.4045
  187SAPI   HO521446   3.283   4.636   6.510 -0.8501  1.1800  0.3059
  187SAPI   C1621447   3.483   4.454   6.470  0.6232 -0.5666 -0.8696
  187SAPI    H621448   3.457   4.496   6.371  0.9014  0.0287 -0.6929
  187SAPI    O621449   3.594   4.521   6.528  0.1397  0.5792 -0.2932
  187SAPI   HO621450   3.663   4.457   6.546  0.1141  0.8846  1.0176
  187SAPI   C1121451   3.516   4.307   6.458  0.3963  0.3314  0.5720
  187SAPI    H121452   3.522   4.276   6.564 -2.1460  1.7296  1.2061
  187SAPI     P21453   3.780   4.244   6.424 -0.2990 -0.4115  0.5496
  187SAPI   O1321454   3.871   4.221   6.310  0.2341 -0.2052 -0.0358
  187SAPI   O1421455   3.772   4.142   6.527 -0.1564  0.0207  0.2442
  187SAPI   O1221456   3.631   4.277   6.368  0.3440  0.2156 -0.2873
  187SAPI   O1121457   3.829   4.379   6.483 -0.4232 -1.1581 -0.0350
  187SAPI    C121458   3.958   4.373   6.543 -0.7448 -0.2244 -0.0906
  187SAPI    HA21459   4.035   4.301   6.507 -0.9017 -0.3665 -0.1426
  187SAPI    HB21460   4.001   4.469   6.508 -1.9446 -0.5142 -2.6140
  187SAPI    C221461   3.955   4.392   6.695  0.0616  0.1696  0.9613
  187SAPI    HS21462   4.056   4.426   6.725  0.5014  1.6524 -1.8046
  187SAPI   O2121463   3.923   4.271   6.760 -0.3449 -0.2499  0.3141
  187SAPI   C2121464   4.000   4.163   6.736  0.0037  0.4595  0.3742
  187SAPI   O2221465   4.114   4.163   6.694 -0.4151  0.2105  0.5389
  187SAPI   C2221466   3.915   4.043   6.775  0.2397 -0.7330 -0.2016
  187SAPI   H2R21467   3.814   4.080   6.803  0.7581  0.2490  0.4316
  187SAPI   H2S21468   3.919   3.978   6.685  2.0405  0.2488 -0.8728
  187SAPI    C321469   3.865   4.511   6.742  0.0776 -0.1285  0.0992
  187SAPI    HX21470   3.764   4.477   6.709 -0.0143  0.6624 -0.4698
  187SAPI    HY21471   3.896   4.603   6.687 -0.2312  0.5715  1.0771
  187SAPI   O3121472   3.887   4.513   6.885  0.9416 -0.4355 -0.4479
  187SAPI   C3121473   3.797   4.466   6.963 -0.3957  0.1018 -0.1706
  187SAPI   O3221474   3.688   4.426   6.938  1.0501  0.5479  0.7321
  187SAPI   C3221475   3.844   4.476   7.112 -0.7474 -0.0435 -0.3400
  187SAPI   H2X21476   3.884   4.574   7.146 -0.3881 -0.9168  1.9375
  187SAPI   H2Y21477   3.921   4.397   7.123 -0.5013  0.0924 -1.0488
  187SAPI   C2321478   3.985   3.961   6.891  0.3883 -0.3809 -0.2526
  187SAPI   H3R21479   3.980   4.014   6.988  1.3866 -2.4147  0.9657
  187SAPI   H3S21480   4.089   3.935   6.862  0.7619  0.8889 -0.0950
  187SAPI   C2421481   3.917   3.822   6.912 -0.2600 -0.2305  0.2802
  187SAPI   H4R21482   3.989   3.780   6.985 -0.8445 -1.3820  0.2278
  187SAPI   H4S21483   3.920   3.747   6.830  0.9504  1.6392 -1.4668
  187SAPI   C2521484   3.784   3.841   6.979  0.6072  0.0118 -0.4726
  187SAPI   H5R21485   3.700   3.861   6.910  0.1150 -4.8504 -1.6553
  187SAPI   C2621486   3.757   3.836   7.116  0.0487  0.1746 -0.0846
  187SAPI   H6R21487   3.658   3.846   7.162 -0.4969  2.1392 -1.5602
  187SAPI   C2721488   3.866   3.816   7.222 -0.2255 -1.0069 -0.5047
  187SAPI   H7R21489   3.835   3.875   7.311 -2.0836 -2.2116 -0.3040
  187SAPI   H7S21490   3.962   3.857   7.185 -1.1883  0.6199 -1.3351
  187SAPI   C2821491   3.901   3.678   7.268 -0.2435  0.5203 -0.1330
  187SAPI   H8R21492   3.971   3.624   7.202  2.1602  2.2631  0.8484
  187SAPI   C2921493   3.859   3.614   7.381  0.3458  0.4691  0.0100
  187SAPI   H9R21494   3.900   3.513   7.396  1.6072  0.7140 -1.5414
  187SAPI  C21021495   3.766   3.657   7.490  0.7459  0.2992  0.1726
  187SAPI  H10R21496   3.670   3.601   7.497 -0.6217  2.7019  3.0272
  187SAPI  H10S21497   3.726   3.757   7.463 -1.3769 -0.6424 -0.4020
  187SAPI  C21121498   3.835   3.664   7.625 -0.1467  0.1401 -0.0950
  187SAPI  H11R21499   3.889   3.759   7.635 -2.6093  1.7041 -0.9425
  187SAPI  C21221500   3.860   3.578   7.722 -0.0823 -0.0625 -0.0391
  187SAPI  H12R21501   3.915   3.613   7.811 -0.1544 -0.3204  0.1080
  187SAPI  C21321502   3.808   3.437   7.735 -0.3553 -0.6418  0.6015
  187SAPI  H13R21503   3.884   3.364   7.700  1.4370  1.8796 -1.0865
  187SAPI  H13S21504   3.723   3.428   7.664  1.1572 -1.3889 -1.1741
  187SAPI  C21421505   3.765   3.405   7.874  0.9874 -0.3438 -0.3246
  187SAPI  H14R21506   3.681   3.467   7.905  0.3877 -1.3870  0.2072
  187SAPI  C21521507   3.802   3.307   7.964  0.5700 -0.4088  0.3558
  187SAPI  H15R21508   3.746   3.299   8.059 -0.4105  0.5633 -0.1181
  187SAPI  C21621509   3.908   3.201   7.946 -0.6405  0.2010  0.6994
  187SAPI  H16R21510   3.933   3.187   7.839  1.3674 -0.6176  1.2152
  187SAPI  H16S21511   3.871   3.100   7.976 -1.2675  0.8708  2.2875
  187SAPI  C21721512   4.039   3.219   8.023 -0.1707  0.6840  0.1401
  187SAPI  H17R21513   4.113   3.137   8.017 -1.4735 -0.5343  0.2894
  187SAPI  H17S21514   4.013   3.229   8.130 -1.5606 -0.5229 -0.0644
  187SAPI  C21821515   4.102   3.345   7.977  0.0782 -0.3460  0.1621
  187SAPI  H18R21516   4.068   3.428   8.042  0.3201  0.1520 -0.3470
  187SAPI  H18S21517   4.082   3.381   7.874  1.7039  0.2433  0.0208
  187SAPI  C21921518   4.252   3.337   7.994  0.0832 -0.0316 -0.2243
  187SAPI  H19R21519   4.305   3.248   7.953 -0.6774 -0.3400 -0.5507
  187SAPI  H19S21520   4.273   3.340   8.103 -1.1005 -0.1476  0.0192
  187SAPI  C22021521   4.319   3.461   7.930  0.2250 -0.4034 -0.9985
  187SAPI  H20R21522   4.427   3.460   7.954  0.4135 -0.7867 -1.8087
  187SAPI  H20S21523   4.273   3.557   7.962 -0.2366 -1.5361  2.1143
  187SAPI  H20T21524   4.310   3.454   7.819 -0.1224  0.8168 -1.0621
  187SAPI   C3321525   3.730   4.441   7.217  0.0359 -0.2939  0.3971
  187SAPI   H3X21526   3.768   4.392   7.309  1.2433 -0.0433  0.0374
  187SAPI   H3Y21527   3.651   4.374   7.176 -1.3161  0.2725  1.9615
  187SAPI   C3421528   3.665   4.575   7.266 -0.1366  0.2645  0.1768
  187SAPI   H4X21529   3.632   4.629   7.175  0.4303 -0.5513 -0.5237
  187SAPI   H4Y21530   3.739   4.632   7.326 -0.2699  0.5734  0.0508
  187SAPI   C3521531   3.532   4.557   7.345  0.3886  0.8536  0.8349
  187SAPI   H5X21532   3.535   4.454   7.387  0.0962 -0.2959 -1.7271
  187SAPI   H5Y21533   3.451   4.546   7.269  2.7961 -2.7931 -1.5867
  187SAPI   C3621534   3.495   4.660   7.447  0.3261  0.2482  0.1233
  187SAPI   H6X21535   3.393   4.656   7.492 -0.0222 -1.1008 -0.7058
  187SAPI   H6Y21536   3.494   4.756   7.391  1.8822  0.2795  0.1214
  187SAPI   C3721537   3.587   4.671   7.566  0.6961 -0.1532  0.4302
  187SAPI   H7X21538   3.547   4.756   7.625 -3.3580 -2.3374  1.2409
  187SAPI   H7Y21539   3.689   4.693   7.528  1.0637  1.9139  2.3879
  187SAPI   C3821540   3.602   4.545   7.654 -0.1163 -0.6572  0.5702
  187SAPI   H8X21541   3.653   4.466   7.596 -2.0110 -1.5075 -0.0403
  187SAPI   H8Y21542   3.501   4.501   7.670 -0.3489 -0.4407 -0.2460
  187SAPI   C3921543   3.653   4.592   7.790 -0.5160  0.6917  0.2760
  187SAPI   H9X21544   3.582   4.676   7.805 -1.4558 -0.1943  0.9070
  187SAPI   H9Y21545   3.751   4.633   7.758 -0.1655  0.3388  0.8668
  187SAPI  C31021546   3.680   4.479   7.898  0.2550  0.1863 -0.0253
  187SAPI  H10X21547   3.728   4.390   7.853  2.6385  0.8783  1.0259
  187SAPI  H10Y21548   3.587   4.443   7.949 -0.6584 -2.5915 -3.2465
  187SAPI  C31121549   3.770   4.507   8.022 -0.0593  0.2643 -0.1685
  187SAPI  H11X21550   3.874   4.532   7.991 -0.8722 -1.2470 -5.0260
  187SAPI  H11Y21551   3.783   4.412   8.078  1.4368  0.3335 -0.3557
  187SAPI  C31221552   3.722   4.610   8.123 -0.5757 -0.0437 -0.0253
  187SAPI  H12X21553   3.772   4.706   8.100  0.9329  0.1666  3.4840
  187SAPI  H12Y21554   3.767   4.606   8.225 -1.2543 -0.1071  0.2773
  187SAPI  C31321555   3.573   4.617   8.140  0.2347 -0.2919  0.1869
  187SAPI  H13X21556   3.530   4.516   8.156 -0.4995 -0.3087 -1.6114
  187SAPI  H13Y21557   3.513   4.659   8.057 -1.4735 -1.2582  0.8836
  187SAPI  C31421558   3.538   4.698   8.267  0.2531 -0.2424 -1.2150
  187SAPI  H14X21559   3.577   4.802   8.264 -0.6532  0.2010  0.7200
  187SAPI  H14Y21560   3.588   4.659   8.358 -0.7838  0.1535 -0.4557
  187SAPI  C31521561   3.393   4.699   8.303 -0.8237  0.4334  0.3710
  187SAPI  H15X21562   3.348   4.598   8.320 -0.9958  0.5378  0.5461
  187SAPI  H15Y21563   3.341   4.737   8.213 -2.6686 -1.1702  0.6926
  187SAPI  C31621564   3.367   4.782   8.428 -0.4035  0.1939 -0.3350
  187SAPI  H16X21565   3.409   4.881   8.399 -0.2539 -0.5629 -2.9887
  187SAPI  H16Y21566   3.425   4.746   8.515 -0.0915 -2.6658 -1.6172
  187SAPI  C31721567   3.217   4.793   8.454 -0.1763  0.7973  0.2793
  187SAPI  H17X21568   3.173   4.694   8.480 -1.0113  1.2195  0.5089
  187SAPI  H17Y21569   3.166   4.823   8.360  2.0706  0.5669 -1.0759
  187SAPI  C31821570   3.171   4.880   8.575  0.2400  0.1587  0.7287
  187SAPI  H18X21571   3.208   4.982   8.553 -1.2087  0.2285 -1.6792
  187SAPI  H18Y21572   3.207   4.843   8.674 -0.2760 -2.6041 -0.0074
  187SAPI  H18Z21573   3.062   4.883   8.596  0.2753  0.6272  0.8628
  188SAPI   C1221574   4.937   0.772   5.999 -0.1877  0.0549  0.2354
  188SAPI    H221575   4.983   0.672   6.013  0.2659 -0.3049 -2.9857
  188SAPI    O221576   5.016   0.840   5.900  0.1019  0.2238 -0.1952
  188SAPI   HO221577   5.083   0.889   5.947 -0.4632 -2.0283  3.3474
  188SAPI   C1321578   4.795   0.749   5.956 -0.1913 -0.5011 -0.1508
  188SAPI    H321579   4.754   0.705   6.050  2.8820  1.3430  2.2640
  188SAPI    O321580   4.784   0.661   5.845  0.2002 -0.1416  0.6406
  188SAPI   HO321581   4.696   0.624   5.854  1.0201 -2.7971 -1.2254
  188SAPI   C1421582   4.723   0.880   5.932  0.5701 -0.8731 -0.5997
  188SAPI    H421583   4.769   0.946   5.856  0.4108 -0.1567 -0.0799
  188SAPI    O421584   4.586   0.850   5.884  0.0652  0.0066  0.1504
  188SAPI   HO421585   4.586   0.841   5.788  0.0041 -2.4741  0.3211
  188SAPI   C1521586   4.710   0.963   6.062 -0.0232 -0.5037  0.1636
  188SAPI    H521587   4.655   0.916   6.147 -0.1211  0.6591  0.7582
  188SAPI    O521588   4.631   1.079   6.056  0.6007 -0.2813  0.3181
  188SAPI   HO521589   4.589   1.098   6.141 -2.4774 -0.8010 -0.9420
  188SAPI   C1621590   4.861   0.993   6.108  0.2187  0.4704 -0.4130
  188SAPI    H621591   4.912   1.050   6.028 -0.0792 -0.3359 -1.1935
  188SAPI    O621592   4.858   1.071   6.224 -0.3697  1.1262 -0.2685
  188SAPI   HO621593   4.930   1.046   6.283 -1.6446  2.9251  2.2565
  188SAPI   C1121594   4.941   0.861   6.125  0.0396  0.8099 -0.6286
  188SAPI    H121595   4.880   0.801   6.197 -0.8177  2.7771  0.3619
  188SAPI     P21596   5.133   0.860   6.313 -0.1173  0.2830 -0.1255
  188SAPI   O1321597   5.280   0.893   6.323 -0.0378 -0.0125 -0.0261
  188SAPI   O1421598   5.090   0.726   6.360 -0.2838  0.7263 -0.5538
  188SAPI   O1221599   5.082   0.873   6.162  0.3000 -0.1681  0.3688
  188SAPI   O1121600   5.051   0.970   6.382 -0.2030 -0.1374 -0.0452
  188SAPI    C121601   4.982   0.969   6.509  0.2630 -0.4531  0.3441
  188SAPI    HA21602   4.892   1.034   6.503  1.2563  1.1371  1.8019
  188SAPI    HB21603   4.951   0.864   6.527 -3.6298  0.5779  0.5838
  188SAPI    C221604   5.071   1.020   6.617  0.5429  0.6226 -0.7859
  188SAPI    HS21605   5.110   1.119   6.588 -0.6124  1.2906 -0.1086
  188SAPI   O2121606   5.170   0.919   6.643 -0.3064 -0.5275 -0.1724
  188SAPI   C2121607   5.298   0.961   6.645 -0.0977  0.3975  0.1837
  188SAPI   O2221608   5.342   1.072   6.650  1.2098 -1.1033  0.3117
  188SAPI   C2221609   5.385   0.836   6.657 -0.2855  0.2006  0.0875
  188SAPI   H2R21610   5.317   0.767   6.712  0.0134 -0.2341 -0.0902
  188SAPI   H2S21611   5.405   0.791   6.558  0.2522  1.2104 -0.2742
  188SAPI    C321612   4.980   1.042   6.749  0.5102  0.4348  0.3494
  188SAPI    HX21613   4.930   0.947   6.776  0.4346  0.6426  0.9542
  188SAPI    HY21614   4.901   1.119   6.740  0.7294  0.7183  0.8481
  188SAPI   O3121615   5.052   1.075   6.863 -0.3990  0.0158  0.4007
  188SAPI   C3121616   5.082   1.201   6.870  0.3706 -0.0918  0.5067
  188SAPI   O3221617   5.031   1.291   6.804 -0.7974 -1.0820 -0.5865
  188SAPI   C3221618   5.207   1.222   6.959  0.2700  0.4503  0.2776
  188SAPI   H2X21619   5.218   1.331   6.975  1.2910  0.6474 -1.4521
  188SAPI   H2Y21620   5.291   1.190   6.893 -0.4498  0.5941 -0.7341
  188SAPI   C2321621   5.520   0.856   6.737 -0.2680 -0.3277 -1.0375
  188SAPI   H3R21622   5.493   0.915   6.827  1.9193 -0.2222 -0.3869
  188SAPI   H3S21623   5.598   0.919   6.689  0.7908  0.1915  1.2307
  188SAPI   C2421624   5.586   0.723   6.770  0.4543  0.1530 -0.2073
  188SAPI   H4R21625   5.685   0.729   6.821 -0.6906  0.0578  2.1912
  188SAPI   H4S21626   5.587   0.676   6.670 -0.6906  3.3350 -1.8244
  188SAPI   C2521627   5.487   0.650   6.856 -0.4757  0.6382 -0.0813
  188SAPI   H5R21628   5.414   0.581   6.811 -0.2746  0.5893 -0.3326
  188SAPI   C2621629   5.483   0.650   6.986  0.2416  0.6038  0.2664
  188SAPI   H6R21630   5.399   0.596   7.032  1.6918 -0.1342  2.1876
  188SAPI   C2721631   5.574   0.719   7.093  0.1734 -0.3595 -0.5774
  188SAPI   H7R21632   5.677   0.731   7.053  0.4977  2.0675  0.8220
  188SAPI   H7S21633   5.592   0.662   7.186  0.9593 -0.4408 -0.7713
  188SAPI   C2821634   5.514   0.852   7.129  0.5998 -0.1283 -0.1513
  188SAPI   H8R21635   5.512   0.922   7.044  0.1200 -1.0138 -0.8860
  188SAPI   C2921636   5.469   0.885   7.248  0.1585  0.7490  0.1313
  188SAPI   H9R21637   5.445   0.992   7.263  1.8807  0.8043  3.1698
  188SAPI  C21021638   5.455   0.803   7.373  0.1387  0.2143 -0.6622
  188SAPI  H10R21639   5.448   0.693   7.358 -0.7853 -0.2291  2.3273
  188SAPI  H10S21640   5.359   0.837   7.419  1.1541  3.0061 -0.4361
  188SAPI  C21121641   5.576   0.838   7.456  0.3819  0.4099 -0.3684
  188SAPI  H11R21642   5.672   0.832   7.403  0.0269  2.3662 -1.3387
  188SAPI  C21221643   5.575   0.880   7.589 -0.3049  0.0652  0.4990
  188SAPI  H12R21644   5.676   0.916   7.616 -0.6063  2.4361 -1.2352
  188SAPI  C21321645   5.455   0.904   7.675 -0.0392  0.5189 -0.6829
  188SAPI  H13R21646   5.359   0.922   7.622  0.0808  0.5535 -0.8898
  188SAPI  H13S21647   5.469   1.002   7.725  2.5479 -0.3704  0.5148
  188SAPI  C21421648   5.426   0.793   7.773  0.6314 -0.5845  0.3386
  188SAPI  H14R21649   5.380   0.704   7.726 -1.7816  1.2925 -1.0583
  188SAPI  C21521650   5.452   0.798   7.904  0.0916 -0.0093  0.3641
  188SAPI  H15R21651   5.407   0.722   7.969 -0.4634 -0.6081 -0.6861
  188SAPI  C21621652   5.522   0.910   7.979  0.4174 -1.1924 -0.2233
  188SAPI  H16R21653   5.450   0.991   8.005 -1.5186 -1.9302 -2.9026
  188SAPI  H16S21654   5.605   0.951   7.916  0.1168 -1.9293 -1.1278
  188SAPI  C21721655   5.594   0.856   8.107 -0.2180 -0.1148  0.4496
  188SAPI  H17R21656   5.676   0.928   8.127 -0.2896 -0.5899  2.7207
  188SAPI  H17S21657   5.651   0.761   8.109  2.3647  1.3158 -0.4671
  188SAPI  C21821658   5.510   0.869   8.228  0.5060 -0.2141 -0.4782
  188SAPI  H18R21659   5.426   0.796   8.217  1.6401 -1.4893 -0.9688
  188SAPI  H18S21660   5.475   0.973   8.245 -0.6784 -0.6820  0.1252
  188SAPI  C21921661   5.586   0.830   8.353 -0.4804  0.1622  0.3242
  188SAPI  H19R21662   5.659   0.751   8.324  0.1511  0.1164  1.9224
  188SAPI  H19S21663   5.525   0.783   8.434 -0.5657  0.6388  0.5398
  188SAPI  C22021664   5.674   0.941   8.409 -0.2433  0.0626  0.7950
  188SAPI  H20R21665   5.607   1.013   8.461 -1.0635 -1.0161  1.2914
  188SAPI  H20S21666   5.752   0.976   8.338  0.0234 -2.4686 -0.2716
  188SAPI  H20T21667   5.722   0.900   8.501 -0.1667  0.7334  1.0621
  188SAPI   C3321668   5.208   1.144   7.086  0.1176  0.3155 -0.2149
  188SAPI   H3X21669   5.315   1.115   7.095 -0.3215 -2.2772 -1.9925
  188SAPI   H3Y21670   5.159   1.045   7.073  0.8378 -0.0251 -0.3746
  188SAPI   C3421671   5.157   1.228   7.203 -0.9993 -0.2518  0.4117
  188SAPI   H4X21672   5.048   1.243   7.187 -0.8809  1.2290  0.8247
  188SAPI   H4Y21673   5.194   1.333   7.214  1.4766 -1.1798  1.5924
  188SAPI   C3521674   5.196   1.157   7.336 -0.1629 -0.1174  0.1518
  188SAPI   H5X21675   5.303   1.182   7.358 -0.2625  1.1640 -0.7199
  188SAPI   H5Y21676   5.198   1.049   7.311  1.5896  0.1179 -0.9155
  188SAPI   C3621677   5.123   1.208   7.467 -0.5133  0.3423 -0.1007
  188SAPI   H6X21678   5.014   1.195   7.449 -0.3587  0.1752 -0.9201
  188SAPI   H6Y21679   5.124   1.319   7.463 -0.9550  0.3311 -0.6840
  188SAPI   C3721680   5.161   1.154   7.609 -0.2050  0.0553 -0.0379
  188SAPI   H7X21681   5.271   1.168   7.618 -0.3043  0.6754  0.2983
  188SAPI   H7Y21682   5.140   1.045   7.610  0.4822 -0.1081 -1.3559
  188SAPI   C3821683   5.089   1.222   7.716  0.2448 -0.1424 -0.7849
  188SAPI   H8X21684   4.984   1.188   7.723 -0.1999  1.4735  1.5399
  188SAPI   H8Y21685   5.098   1.332   7.701 -0.1365  0.0955  0.6202
  188SAPI   C3921686   5.150   1.211   7.858 -0.3856  0.0057 -0.3256
  188SAPI   H9X21687   5.257   1.240   7.854 -0.5099  0.4452 -0.5869
  188SAPI   H9Y21688   5.144   1.106   7.892 -0.5564 -0.0449 -0.5101
  188SAPI  C31021689   5.071   1.295   7.959  0.3545 -0.1676 -0.0459
  188SAPI  H10X21690   4.982   1.232   7.979  0.7221 -0.2308  1.5047
  188SAPI  H10Y21691   5.045   1.389   7.906  0.8617 -0.1567 -0.2705
  188SAPI  C31121692   5.142   1.320   8.080  0.0199 -0.0751 -0.6939
  188SAPI  H11X21693   5.090   1.385   8.153  2.0297  1.7358 -0.7838
  188SAPI  H11Y21694   5.233   1.371   8.042  1.2411 -1.5302  0.1512
  188SAPI  C31221695   5.181   1.194   8.166  0.0451  0.4374  0.4941
  188SAPI  H12X21696   5.226   1.115   8.101  0.6871  1.6432 -0.5585
  188SAPI  H12Y21697   5.083   1.157   8.203  0.1910  0.8765  1.3414
  188SAPI  C31321698   5.268   1.222   8.292 -1.1447  0.1625 -0.3111
  188SAPI  H13X21699   5.367   1.265   8.263  0.4276 -2.7112  0.4783
  188SAPI  H13Y21700   5.278   1.132   8.356 -2.5403  0.2319  0.0459
  188SAPI  C31421701   5.194   1.329   8.382 -0.2139 -0.3772 -1.0261
  188SAPI  H14X21702   5.083   1.320   8.379 -0.2780  0.0942 -0.2424
  188SAPI  H14Y21703   5.220   1.429   8.342  3.5985 -0.9435 -0.2818
  188SAPI  C31521704   5.242   1.322   8.535 -0.2858 -0.2514  0.1671
  188SAPI  H15X21705   5.228   1.218   8.572 -0.4092 -0.4426 -0.4109
  188SAPI  H15Y21706   5.169   1.385   8.592 -0.9860 -1.9658  1.2370
  188SAPI  C31621707   5.381   1.375   8.554 -0.0488  0.3821 -0.4760
  188SAPI  H16X21708   5.395   1.468   8.494  1.5931  1.6073  1.6639
  188SAPI  H16Y21709   5.451   1.298   8.517 -1.0327 -1.4851  1.3715
  188SAPI  C31721710   5.433   1.403   8.699  0.1461 -0.1513 -0.5142
  188SAPI  H17X21711   5.532   1.451   8.714 -0.6239  0.7626  2.4060
  188SAPI  H17Y21712   5.444   1.300   8.740  0.2367 -0.2924 -0.8896
  188SAPI  C31821713   5.324   1.460   8.800 -0.0088 -0.4559 -0.0482
  188SAPI  H18X21714   5.283   1.558   8.768 -1.1590  0.2563  3.2411
  188SAPI  H18Y21715   5.362   1.489   8.900  0.3200  0.7813 -0.5155
  188SAPI  H18Z21716   5.242   1.386   8.806 -0.6291  0.2468  0.1598
  189POPC     N21717   4.365   3.217  11.090  0.6672  0.3979 -0.5710
  189POPC   C1221718   4.235   3.137  11.108 -0.2266 -0.0428 -0.7923
  189POPC  H12A21719   4.150   3.202  11.095 -0.6221 -0.3902  0.0046
  189POPC  H12B21720   4.223   3.125  11.215 -0.3907  0.4458 -0.7542
  189POPC   C1321721   4.343   3.350  11.156  0.1727 -0.6746  0.7935
  189POPC  H13A21722   4.269   3.410  11.106 -0.3711 -2.7039 -1.0196
  189POPC  H13B21723   4.301   3.330  11.254  0.2506 -4.7109  0.1764
  189POPC  H13C21724   4.437   3.403  11.160 -0.7261  0.9906  0.6465
  189POPC   C1421725   4.480   3.145  11.147 -0.0278  0.3239 -0.0629
  189POPC  H14A21726   4.472   3.149  11.254 -2.4253 -1.5005 -0.0712
  189POPC  H14B21727   4.470   3.043  11.111  0.6375  1.0000 -2.3681
  189POPC  H14C21728   4.574   3.187  11.114 -0.1798 -1.8345 -3.8971
  189POPC   C1521729   4.394   3.240  10.943  0.0821 -0.1485 -0.2257
  189POPC  H15A21730   4.305   3.271  10.889 -0.5120  1.1320  1.4072
  189POPC  H15B21731   4.423   3.147  10.897  0.1137  0.4702 -1.4993
  189POPC  H15C21732   4.469   3.316  10.929  1.1153 -0.7072  1.9813
  189POPC   C1121733   4.211   3.008  11.035 -0.4264  0.0906 -0.2373
  189POPC  H11A21734   4.199   3.037  10.928  0.8647  4.7212  0.6509
  189POPC  H11B21735   4.106   2.982  11.063 -0.9817  0.4692 -1.8479
  189POPC     P21736   4.299   2.775  10.991  0.0125  0.2167 -0.0468
  189POPC   O1321737   4.358   2.671  11.085 -0.1664  0.3944  0.0420
  189POPC   O1421738   4.346   2.768  10.848 -0.2909  0.3786  0.1444
  189POPC   O1221739   4.315   2.914  11.053  0.2526  0.0555 -0.5256
  189POPC   O1121740   4.141   2.759  10.995  0.4562 -0.0377  0.0176
  189POPC    C121741   4.093   2.628  10.954  0.1219  0.5323 -0.3677
  189POPC    HA21742   4.054   2.580  11.046  1.2718  3.1091  1.5818
  189POPC    HB21743   4.168   2.558  10.910 -1.4512 -0.3211 -1.8078
  189POPC    C221744   3.981   2.642  10.846 -0.0646 -0.4838 -0.5514
  189POPC    HS21745   3.930   2.546  10.825  1.0284 -0.8896 -1.4736
  189POPC   O2121746   4.049   2.673  10.728  0.4297 -0.1735 -0.3191
  189POPC   C2121747   4.096   2.571  10.657 -0.1501 -0.6648 -0.0931
  189POPC   O2221748   4.104   2.456  10.690 -0.1565  0.3132  0.6480
  189POPC   C2221749   4.111   2.617  10.512  0.3866 -0.2092  0.2848
  189POPC   H2R21750   4.207   2.673  10.516  1.3008 -1.7751  2.7833
  189POPC   H2S21751   4.031   2.688  10.482 -0.5918 -1.6125 -0.5732
  189POPC    C321752   3.886   2.749  10.883  0.2264 -0.2486 -0.0371
  189POPC    HX21753   3.944   2.844  10.892 -1.9959  1.1123  0.6269
  189POPC    HY21754   3.838   2.732  10.982  1.8417 -0.2565  0.7789
  189POPC   O3121755   3.781   2.754  10.786  0.4144 -0.2109  0.0375
  189POPC   C3121756   3.799   2.818  10.675  1.7979  0.1454  0.2169
  189POPC   O3221757   3.881   2.902  10.651 -0.5298 -0.1869  0.1873
  189POPC   C3221758   3.703   2.755  10.576 -0.3149  0.3250  0.5128
  189POPC   H2X21759   3.598   2.776  10.607 -0.4490 -0.2172  0.4404
  189POPC   H2Y21760   3.718   2.645  10.574 -0.3844  0.3239 -0.7139
  189POPC   C2321761   4.109   2.501  10.408 -0.6875  0.6093  0.0298
  189POPC   H3R21762   4.019   2.440  10.428  0.2775 -0.4433  1.3536
  189POPC   H3S21763   4.201   2.448  10.440 -0.5213  0.9225  0.0833
  189POPC   C2421764   4.105   2.551  10.259 -0.1325  0.1704  0.7060
  189POPC   H4R21765   4.131   2.457  10.206 -0.2063  0.5118  0.0494
  189POPC   H4S21766   4.186   2.625  10.243  0.4860 -0.9293 -1.7353
  189POPC   C2521767   3.972   2.610  10.214 -0.0928  1.0943 -0.6246
  189POPC   H5R21768   3.938   2.684  10.290 -1.2856 -0.7008  0.6592
  189POPC   H5S21769   3.900   2.526  10.218  0.5355  0.5664 -0.0093
  189POPC   C2621770   3.974   2.687  10.081 -0.0315 -0.1634 -0.4271
  189POPC   H6R21771   4.022   2.784  10.107  2.1635 -1.0726 -0.7799
  189POPC   H6S21772   3.874   2.709  10.038  0.7071 -0.9286 -2.7333
  189POPC   C2721773   4.055   2.616   9.974 -0.2285 -0.0266 -0.2943
  189POPC   H7R21774   4.037   2.507   9.986  0.5689 -0.1433 -0.0895
  189POPC   H7S21775   4.161   2.628  10.006 -0.1125 -0.4440 -0.5138
  189POPC   C2821776   4.026   2.653   9.826  0.2295 -0.1176  0.2894
  189POPC   H8R21777   3.918   2.628   9.814 -0.3274  2.5252 -1.2253
  189POPC   H8S21778   4.092   2.586   9.767 -0.0396 -0.6818  0.6183
  189POPC   C2921779   4.028   2.800   9.788 -0.1666 -0.2174  0.2253
  189POPC   H9121780   4.068   2.867   9.866  0.3375 -1.3917  0.9964
  189POPC  C21021781   3.981   2.856   9.677 -0.8830 -0.3733 -0.0389
  189POPC  H10121782   3.994   2.965   9.664  0.1667 -0.6583 -1.6543
  189POPC  C21121783   3.924   2.787   9.558 -0.0335  0.5027 -0.0638
  189POPC  H11R21784   3.833   2.846   9.535 -1.9096 -1.5512  1.6429
  189POPC  H11S21785   3.884   2.686   9.582 -1.2818  0.6756 -1.3026
  189POPC  C21221786   3.998   2.794   9.418  0.2777 -0.3483  0.7812
  189POPC  H12R21787   4.087   2.727   9.424  0.4716 -0.1545  0.1593
  189POPC  H12S21788   4.028   2.889   9.369 -0.0955 -1.4227 -1.6624
  189POPC  C21321789   3.900   2.731   9.310  0.2749  0.6163 -0.2321
  189POPC  H13R21790   3.806   2.777   9.345 -1.6884 -3.7795  0.9453
  189POPC  H13S21791   3.890   2.621   9.328  0.3931  0.4934 -0.8935
  189POPC  C21421792   3.932   2.761   9.156 -0.4199  0.4480  0.2656
  189POPC  H14R21793   3.976   2.864   9.153 -1.1081  0.7427  0.1631
  189POPC  H14S21794   3.841   2.771   9.094  0.2415 -2.1072 -1.2542
  189POPC  C21521795   4.015   2.664   9.073 -0.2403  0.1671  0.1981
  189POPC  H15R21796   3.956   2.570   9.082  0.7934 -0.5196 -0.0659
  189POPC  H15S21797   4.120   2.656   9.106  0.2681  0.1895 -1.3411
  189POPC  C21621798   4.003   2.710   8.924  0.2304 -0.0337 -0.3255
  189POPC  H16R21799   4.064   2.795   8.887 -0.9779  0.7043 -0.7058
  189POPC  H16S21800   3.897   2.738   8.903 -0.6589 -0.7471  2.7685
  189POPC  C21721801   4.045   2.599   8.828  0.0677  0.1253 -0.0127
  189POPC  H17R21802   4.015   2.498   8.861  0.9464  0.1195  0.8140
  189POPC  H17S21803   4.156   2.595   8.820 -0.1021 -1.3776 -3.1578
  189POPC  C21821804   3.984   2.600   8.684 -0.3249 -0.7464 -0.4203
  189POPC  H18R21805   3.878   2.568   8.696 -0.2911  0.2002  5.5359
  189POPC  H18S21806   4.033   2.525   8.618  0.3678 -2.0971  1.5222
  189POPC  H18T21807   4.000   2.700   8.638 -1.0278  0.2956  1.4653
  189POPC   C3321808   3.729   2.803  10.425 -0.3182 -0.2734 -0.0838
  189POPC   H3X21809   3.837   2.794  10.402 -0.1055 -2.5400  1.4711
  189POPC   H3Y21810   3.697   2.909  10.433 -1.2659 -0.5056 -0.6335
  189POPC   C3421811   3.649   2.750  10.316 -0.0415 -0.2347  0.8495
  189POPC   H4X21812   3.544   2.731  10.346 -0.7602 -0.6390 -1.6582
  189POPC   H4Y21813   3.691   2.656  10.275  1.4444 -0.9194  3.7400
  189POPC   C3521814   3.641   2.855  10.201 -0.4817 -0.1103  0.0424
  189POPC   H5X21815   3.739   2.866  10.149 -0.5518 -2.1021 -0.5847
  189POPC   H5Y21816   3.614   2.954  10.246  0.8301 -1.0165  3.0879
  189POPC   C3621817   3.542   2.815  10.092  0.7419  0.3759 -0.5173
  189POPC   H6X21818   3.523   2.916  10.049  0.4247  0.9539  0.9282
  189POPC   H6Y21819   3.447   2.784  10.139  1.9006  0.7548  2.2828
  189POPC   C3721820   3.596   2.728   9.980 -0.1724 -0.7000 -0.0066
  189POPC   H7X21821   3.599   2.629  10.029  3.1795 -1.6348 -1.8447
  189POPC   H7Y21822   3.695   2.772   9.955 -1.4802  1.2588 -2.1780
  189POPC   C3821823   3.518   2.755   9.852  0.1055  0.9167  0.7093
  189POPC   H8X21824   3.565   2.841   9.800  1.4997  0.7246  1.5999
  189POPC   H8Y21825   3.411   2.781   9.864 -0.1256 -0.5323  2.1995
  189POPC   C3921826   3.535   2.637   9.754 -0.5880 -0.6213 -0.5821
  189POPC   H9X21827   3.476   2.557   9.803 -0.1186  0.3260  1.6622
  189POPC   H9Y21828   3.637   2.594   9.763 -0.4315  0.0979  1.8264
  189POPC  C31021829   3.497   2.668   9.613 -0.8050  0.0038 -0.0585
  189POPC  H10X21830   3.558   2.759   9.592 -1.5720  0.7917  1.0132
  189POPC  H10Y21831   3.390   2.696   9.607 -1.1578 -1.5833 -3.3148
  189POPC  C31121832   3.532   2.560   9.509 -0.2249 -0.3767 -0.0981
  189POPC  H11X21833   3.471   2.468   9.517  0.8188 -0.9826  1.3476
  189POPC  H11Y21834   3.637   2.528   9.527 -0.2616 -1.6507 -1.9295
  189POPC  C31221835   3.524   2.607   9.364  0.7473  0.4749 -0.1113
  189POPC  H12X21836   3.590   2.696   9.367  0.4473  0.8752 -3.0474
  189POPC  H12Y21837   3.423   2.650   9.351  0.8394  1.0522  0.9421
  189POPC  C31321838   3.557   2.500   9.260 -0.3072 -0.1007  0.9316
  189POPC  H13X21839   3.490   2.412   9.262 -2.3293  1.3108 -0.6166
  189POPC  H13Y21840   3.660   2.473   9.291  0.5086  0.3175 -1.2411
  189POPC  C31421841   3.562   2.550   9.115  0.0644 -0.6719 -0.2079
  189POPC  H14X21842   3.631   2.635   9.098  2.6253 -2.7789 -1.1920
  189POPC  H14Y21843   3.463   2.586   9.082  0.1574 -0.6345 -0.4464
  189POPC  C31521844   3.618   2.438   9.022  0.0417  0.0450 -0.2797
  189POPC  H15X21845   3.543   2.356   9.032 -1.1518  1.0441 -0.6700
  189POPC  H15Y21846   3.715   2.417   9.072 -0.3375  1.3567  1.0965
  189POPC  C31621847   3.636   2.462   8.874 -0.3866 -0.6955  0.0352
  189POPC  H16X21848   3.540   2.499   8.830 -0.0415 -1.3813 -1.3425
  189POPC  H16Y21849   3.671   2.370   8.824  1.4472 -0.8091  1.4429
  189POPC  H16Z21850   3.706   2.546   8.853 -0.5554 -0.9313 -1.5950
  190POPC     N21851   4.376   5.519  11.146  0.4906 -0.2298  0.2494
  190POPC   C1221852   4.351   5.392  11.073  0.1516 -0.2142 -0.5099
  190POPC  H12A21853   4.305   5.408  10.977  0.2728  0.9014 -0.3936
  190POPC  H12B21854   4.275   5.339  11.129  0.0647  1.5147  1.1114
  190POPC   C1321855   4.464   5.614  11.069 -0.1616  0.2590  0.0198
  190POPC  H13A21856   4.460   5.709  11.120 -0.8905  0.5868 -0.6220
  190POPC  H13B21857   4.568   5.588  11.062 -0.1192  0.8447 -2.0693
  190POPC  H13C21858   4.415   5.624  10.973  0.9610 -0.9003 -0.6996
  190POPC   C1421859   4.246   5.591  11.165  0.7751 -0.1654 -0.0424
  190POPC  H14A21860   4.168   5.527  11.202  0.1803  0.1283 -0.7619
  190POPC  H14B21861   4.258   5.676  11.231 -0.6869  0.6675 -0.7875
  190POPC  H14C21862   4.224   5.642  11.072 -0.4106 -0.3393  0.1377
  190POPC   C1521863   4.445   5.498  11.279  0.7676  0.8813  0.5803
  190POPC  H15A21864   4.521   5.422  11.272  0.2562  0.4525 -0.4896
  190POPC  H15B21865   4.375   5.470  11.357 -0.0023  3.2448  0.8284
  190POPC  H15C21866   4.494   5.587  11.314  1.4415  1.1255 -0.8931
  190POPC   C1121867   4.472   5.306  11.045 -0.1609  0.4764 -0.1101
  190POPC  H11A21868   4.548   5.358  10.983  1.1222 -1.8696 -0.6686
  190POPC  H11B21869   4.432   5.225  10.980 -0.8108 -1.2378  2.2696
  190POPC     P21870   4.491   5.116  11.220 -0.1038  0.0225  0.2555
  190POPC   O1321871   4.350   5.139  11.257 -0.0923 -0.1003  0.3452
  190POPC   O1421872   4.583   5.085  11.334 -0.1548  0.0819  0.0598
  190POPC   O1221873   4.549   5.248  11.160 -0.4061  0.1168  0.7606
  190POPC   O1121874   4.511   5.019  11.102  0.1634  0.0965 -0.0306
  190POPC    C121875   4.629   5.015  11.024 -0.5739  0.3122  0.3971
  190POPC    HA21876   4.660   4.909  11.012 -3.0015 -0.5830  1.4776
  190POPC    HB21877   4.719   5.068  11.061 -0.3866  0.9293 -0.8570
  190POPC    C221878   4.608   5.052  10.873 -0.6911 -0.0521  0.4942
  190POPC    HS21879   4.616   5.163  10.870  2.9836 -0.1765  0.9874
  190POPC   O2121880   4.498   4.993  10.819 -0.0772  1.2268  0.1041
  190POPC   C2121881   4.415   5.064  10.748 -0.1057  0.4985  0.3339
  190POPC   O2221882   4.425   5.179  10.726  0.8347  0.2444 -0.4825
  190POPC   C2221883   4.298   4.978  10.706 -0.8579  0.2316  0.5983
  190POPC   H2R21884   4.228   4.959  10.790 -2.5194 -3.4800 -1.3739
  190POPC   H2S21885   4.345   4.880  10.683  1.3992  1.3074  0.2702
  190POPC    C321886   4.737   5.019  10.790  0.0183  0.5920  0.1529
  190POPC    HX21887   4.732   4.909  10.773 -1.1497  1.2082 -5.2794
  190POPC    HY21888   4.823   5.058  10.848  0.3314 -0.8374  0.6970
  190POPC   O3121889   4.725   5.075  10.654 -0.0202  0.0799  0.1567
  190POPC   C3121890   4.777   5.201  10.635  0.2487  0.1164 -0.1714
  190POPC   O3221891   4.821   5.263  10.727  0.2068 -0.4679 -0.1183
  190POPC   C3221892   4.763   5.256  10.490 -0.1420  0.1627 -0.1402
  190POPC   H2X21893   4.730   5.173  10.423  3.7335 -1.8127  0.1174
  190POPC   H2Y21894   4.864   5.283  10.452 -0.4827 -0.4435 -1.5580
  190POPC   C2321895   4.219   5.027  10.585 -0.2726  0.2775  0.1631
  190POPC   H3R21896   4.168   5.122  10.608 -1.5505 -0.4489  0.4098
  190POPC   H3S21897   4.135   4.957  10.566  0.7065 -0.5838 -1.2223
  190POPC   C2421898   4.287   5.042  10.446  0.2546 -0.0900 -0.2710
  190POPC   H4R21899   4.295   4.944  10.394  2.7785 -1.2114  1.9393
  190POPC   H4S21900   4.391   5.080  10.462 -0.0208  0.8999 -0.7568
  190POPC   C2521901   4.209   5.144  10.354 -0.3548 -0.6658 -0.9624
  190POPC   H5R21902   4.229   5.247  10.392 -0.7446 -0.6396 -0.8248
  190POPC   H5S21903   4.103   5.117  10.371  0.2802 -2.8863 -0.1314
  190POPC   C2621904   4.226   5.125  10.198  0.5328 -0.5280  0.3415
  190POPC   H6R21905   4.131   5.172  10.164  0.6079 -0.8482 -0.3154
  190POPC   H6S21906   4.220   5.019  10.166 -1.6399  0.0530 -1.4142
  190POPC   C2721907   4.349   5.196  10.151 -0.3184 -0.3130 -0.3221
  190POPC   H7R21908   4.442   5.159  10.199 -0.0964  1.0239  0.3472
  190POPC   H7S21909   4.360   5.303  10.179 -1.4300 -0.3295  0.2542
  190POPC   C2821910   4.373   5.186  10.002 -0.0226  0.2977  0.2386
  190POPC   H8R21911   4.390   5.081   9.973 -3.2986 -0.4599  0.6438
  190POPC   H8S21912   4.455   5.254   9.972 -0.9969  0.5112 -2.1806
  190POPC   C2921913   4.247   5.231   9.934 -0.2337 -0.1112  0.1606
  190POPC   H9121914   4.178   5.284  10.002 -0.1002  0.1827  0.0684
  190POPC  C21021915   4.206   5.199   9.810 -0.6966 -0.0444  0.0368
  190POPC  H10121916   4.103   5.228   9.785 -0.6608 -0.2154 -0.3170
  190POPC  C21121917   4.282   5.119   9.712 -0.0786 -0.5530 -0.3684
  190POPC  H11R21918   4.220   5.031   9.685 -0.4981 -0.7565  1.1709
  190POPC  H11S21919   4.384   5.096   9.750  0.2627  1.9282  0.3910
  190POPC  C21221920   4.300   5.192   9.580  0.1965 -0.7584  0.5807
  190POPC  H12R21921   4.365   5.133   9.512  0.2552  3.2925 -3.4035
  190POPC  H12S21922   4.349   5.285   9.615  1.2303 -0.8522 -0.5372
  190POPC  C21321923   4.172   5.221   9.502  0.1864 -0.3005 -0.3012
  190POPC  H13R21924   4.118   5.305   9.550  2.5551  2.0486 -1.4724
  190POPC  H13S21925   4.111   5.129   9.491 -1.9143  1.0902 -0.9042
  190POPC  C21421926   4.210   5.268   9.361 -0.1359  0.1572  0.5587
  190POPC  H14R21927   4.246   5.175   9.313 -0.9988 -0.3666  0.9061
  190POPC  H14S21928   4.293   5.339   9.382 -0.1730 -0.0196  1.3038
  190POPC  C21521929   4.097   5.327   9.280  0.1753  0.4912  0.2624
  190POPC  H15R21930   4.061   5.422   9.325 -0.2713  0.5192 -0.1356
  190POPC  H15S21931   4.009   5.259   9.272 -0.4315  1.5051 -2.8713
  190POPC  C21621932   4.137   5.360   9.133 -0.4258  0.2184 -0.2394
  190POPC  H16R21933   4.192   5.276   9.086  0.7762  0.9560 -0.1912
  190POPC  H16S21934   4.199   5.452   9.132  0.0416 -0.0698  0.7433
  190POPC  C21721935   4.017   5.401   9.034 -0.5644  0.1434 -0.2375
  190POPC  H17R21936   3.988   5.505   9.059 -0.3053 -0.2898  2.0590
  190POPC  H17S21937   3.931   5.335   9.056  0.0290 -0.8222 -0.7445
  190POPC  C21821938   4.051   5.385   8.880  0.1876 -0.0087  0.7328
  190POPC  H18R21939   4.050   5.278   8.852  1.3535  0.2585 -0.4827
  190POPC  H18S21940   4.153   5.429   8.867  0.0396 -0.0223 -0.6109
  190POPC  H18T21941   3.975   5.443   8.823 -0.8604 -0.0234  2.0891
  190POPC   C3321942   4.643   5.363  10.472 -0.2965  0.1099 -0.1693
  190POPC   H3X21943   4.641   5.431  10.560  1.0927 -1.2392  0.9673
  190POPC   H3Y21944   4.549   5.305  10.473  0.6930 -1.5458 -0.0708
  190POPC   C3421945   4.667   5.436  10.348 -0.2702 -0.0106  0.3024
  190POPC   H4X21946   4.669   5.360  10.267  2.4097 -0.7161  0.9412
  190POPC   H4Y21947   4.764   5.491  10.350 -0.7441  0.8650 -0.2650
  190POPC   C3521948   4.551   5.530  10.320  0.2479  0.1480  0.1214
  190POPC   H5X21949   4.538   5.599  10.406  0.3054 -0.9153  0.9967
  190POPC   H5Y21950   4.464   5.462  10.313 -0.8965  1.6004 -0.3589
  190POPC   C3621951   4.574   5.607  10.191 -0.5687 -0.2891 -0.1603
  190POPC   H6X21952   4.661   5.676  10.198 -0.2951 -0.6313 -0.1924
  190POPC   H6Y21953   4.484   5.670  10.171 -0.0800  0.4373 -0.1066
  190POPC   C3721954   4.604   5.520  10.065  0.1761  0.1474 -0.1389
  190POPC   H7X21955   4.523   5.445  10.051  0.8156 -0.6983  0.5345
  190POPC   H7Y21956   4.692   5.456  10.091  0.7526  0.9123 -0.1645
  190POPC   C3821957   4.643   5.587   9.936 -0.0910  0.2611  0.0145
  190POPC   H8X21958   4.684   5.512   9.865 -1.4979 -0.8847  0.3708
  190POPC   H8Y21959   4.718   5.667   9.956 -0.1959  0.4781 -0.4350
  190POPC   C3921960   4.514   5.648   9.876 -0.8092 -0.0212 -0.1403
  190POPC   H9X21961   4.488   5.727   9.951 -2.0296 -0.4531 -0.0961
  190POPC   H9Y21962   4.428   5.579   9.884 -0.6551 -0.4317 -1.7917
  190POPC  C31021963   4.523   5.693   9.732  0.2989 -0.2498  0.0576
  190POPC  H10X21964   4.598   5.776   9.730 -0.1104  0.1683  1.0953
  190POPC  H10Y21965   4.431   5.743   9.694 -1.0942 -0.5675  2.7844
  190POPC  C31121966   4.559   5.574   9.631 -0.2134 -0.4370 -0.2335
  190POPC  H11X21967   4.494   5.486   9.651  0.7377 -0.9112  0.8829
  190POPC  H11Y21968   4.665   5.542   9.639  0.3722  1.1823 -1.0929
  190POPC  C31221969   4.528   5.604   9.484 -0.5233  0.2133  0.0661
  190POPC  H12X21970   4.593   5.679   9.435 -1.4519  0.2116 -1.2160
  190POPC  H12Y21971   4.421   5.630   9.471 -0.7435 -0.7766 -0.1703
  190POPC  C31321972   4.543   5.475   9.397  0.5570  0.3559 -0.3871
  190POPC  H13X21973   4.508   5.386   9.454 -0.3915  0.0235 -1.4526
  190POPC  H13Y21974   4.652   5.454   9.382  0.2245 -2.2732  0.4038
  190POPC  C31421975   4.478   5.497   9.257  0.1525  0.6964 -0.4969
  190POPC  H14X21976   4.369   5.511   9.270  0.0950  1.7505 -1.8292
  190POPC  H14Y21977   4.495   5.410   9.190  0.9253  0.8242 -0.4774
  190POPC  C31521978   4.545   5.612   9.178 -0.0091 -0.0418 -0.2817
  190POPC  H15X21979   4.648   5.580   9.149 -0.3820 -0.0946 -1.6447
  190POPC  H15Y21980   4.553   5.702   9.242 -0.5867 -1.1838  1.4748
  190POPC  C31621981   4.475   5.648   9.047 -0.1874  0.1625 -0.3741
  190POPC  H16X21982   4.484   5.570   8.968 -1.3964 -0.6913  0.2934
  190POPC  H16Y21983   4.526   5.739   9.008  2.2720 -1.8234 -2.1091
  190POPC  H16Z21984   4.366   5.664   9.054  0.0897  2.0805 -0.0433
  191POPC     N21985   5.431   3.378   6.406 -0.4740  0.2240 -0.2096
  191POPC   C1221986   5.517   3.419   6.520 -0.1341 -0.2429 -0.0694
  191POPC  H12A21987   5.614   3.443   6.480 -1.3412  4.4465 -0.8301
  191POPC  H12B21988   5.536   3.333   6.583 -1.4012  1.0848  2.2701
  191POPC   C1321989   5.429   3.482   6.294 -0.1960  1.1523  0.9791
  191POPC  H13A21990   5.365   3.445   6.215  0.1735 -0.0806  1.2354
  191POPC  H13B21991   5.396   3.577   6.332  1.3620  2.7232 -1.3064
  191POPC  H13C21992   5.532   3.494   6.263 -0.5068  0.4415 -0.3946
  191POPC   C1421993   5.483   3.251   6.332  0.2483 -0.5696 -0.2208
  191POPC  H14A21994   5.416   3.215   6.256  2.1576 -1.3680 -1.5965
  191POPC  H14B21995   5.577   3.284   6.288 -0.1256 -0.3489 -0.8628
  191POPC  H14C21996   5.511   3.176   6.405 -0.1611 -1.4844 -0.9860
  191POPC   C1521997   5.293   3.342   6.452  0.3252 -0.0575 -0.5596
  191POPC  H15A21998   5.233   3.416   6.503 -0.5612 -1.0940 -0.0414
  191POPC  H15B21999   5.309   3.275   6.535 -2.0406 -0.7716 -0.5984
  191POPC  H15C22000   5.235   3.281   6.385  0.2900  0.5301 -1.0690
  191POPC   C1122001   5.461   3.530   6.603  0.2732  0.4590  0.5839
  191POPC  H11A22002   5.538   3.538   6.683  1.2649 -0.3915 -0.2662
  191POPC  H11B22003   5.362   3.511   6.650  0.0553  2.5762  1.1033
  191POPC     P22004   5.573   3.741   6.498 -0.5519 -0.0242 -0.2708
  191POPC   O1322005   5.527   3.838   6.398  0.3787 -0.5080 -0.1300
  191POPC   O1422006   5.691   3.653   6.466 -0.1258  0.1528  0.1606
  191POPC   O1222007   5.450   3.651   6.530 -0.3116  0.6323  0.4270
  191POPC   O1122008   5.603   3.807   6.635  0.4178 -0.9076  0.0647
  191POPC    C122009   5.519   3.898   6.707  0.1994  0.2188  0.5347
  191POPC    HA22010   5.412   3.883   6.684 -0.2498  1.7399  1.4432
  191POPC    HB22011   5.549   4.001   6.677  1.5712 -0.3659 -0.1870
  191POPC    C222012   5.543   3.888   6.860 -0.8132 -0.1308 -0.6789
  191POPC    HS22013   5.466   3.954   6.905  1.3171  0.5058  2.3928
  191POPC   O2122014   5.675   3.935   6.902 -0.5450  0.2279 -0.6443
  191POPC   C2122015   5.678   3.967   7.032 -0.4255 -0.5225  0.2648
  191POPC   O2222016   5.579   3.986   7.101 -0.3768 -0.0857  0.4101
  191POPC   C2222017   5.820   3.988   7.075 -0.2084 -0.8916  0.7984
  191POPC   H2R22018   5.876   4.041   6.996 -2.7435  1.3679  0.3623
  191POPC   H2S22019   5.870   3.892   7.099  0.8972 -0.5631 -0.1292
  191POPC    C322020   5.518   3.741   6.899 -0.3820 -0.1421  0.2195
  191POPC    HX22021   5.610   3.693   6.859  1.3326  1.8144  1.6021
  191POPC    HY22022   5.432   3.706   6.838 -0.6489  0.1929  0.4005
  191POPC   O3122023   5.513   3.720   7.042 -0.3027  0.9607 -0.2197
  191POPC   C3122024   5.393   3.724   7.101  0.7780 -0.1653 -0.3781
  191POPC   O3222025   5.288   3.737   7.043 -0.2292  0.1622 -0.1002
  191POPC   C3222026   5.396   3.690   7.255  0.4688  0.4305  0.2473
  191POPC   H2X22027   5.483   3.622   7.269 -1.7812 -2.6874  0.0455
  191POPC   H2Y22028   5.306   3.629   7.274 -0.1186  0.4860 -2.0434
  191POPC   C2322029   5.838   4.072   7.201 -0.0935 -0.4962  1.0684
  191POPC   H3R22030   5.930   4.047   7.259  0.4437  1.4937  1.1746
  191POPC   H3S22031   5.749   4.060   7.267 -0.7322  2.7716  1.0043
  191POPC   C2422032   5.839   4.224   7.164 -0.3042 -0.1287  0.2973
  191POPC   H4R22033   5.753   4.251   7.099 -0.0200 -0.8246 -0.3857
  191POPC   H4S22034   5.931   4.237   7.103  0.7146 -1.7369  1.4093
  191POPC   C2522035   5.831   4.310   7.283  0.9616 -0.3711  0.6267
  191POPC   H5R22036   5.732   4.314   7.332  0.7372  0.0988  0.1466
  191POPC   H5S22037   5.856   4.413   7.250 -1.1612 -0.0643 -0.1816
  191POPC   C2622038   5.938   4.286   7.389 -0.0848 -0.0831 -0.5846
  191POPC   H6R22039   6.037   4.286   7.339 -0.5955 -1.1667 -1.6282
  191POPC   H6S22040   5.939   4.187   7.441  1.8710  0.2155  0.0266
  191POPC   C2722041   5.925   4.396   7.504  0.2490  0.5454 -0.1846
  191POPC   H7R22042   5.829   4.371   7.555  0.6536 -2.3947 -0.7085
  191POPC   H7S22043   5.905   4.494   7.456  2.6616  0.9668 -0.4565
  191POPC   C2822044   6.028   4.389   7.619  0.1577 -0.2594  0.1364
  191POPC   H8R22045   6.127   4.433   7.592  0.7940  0.0938  2.8156
  191POPC   H8S22046   6.056   4.288   7.653 -0.3316  0.0638  1.5619
  191POPC   C2922047   5.974   4.474   7.731 -0.6782 -0.0794 -0.1903
  191POPC   H9122048   5.938   4.576   7.708 -1.1407 -0.4542 -1.1910
  191POPC  C21022049   5.958   4.431   7.860 -0.5348  0.2178 -0.4651
  191POPC  H10122050   5.895   4.494   7.925 -0.2881  1.3007 -1.2439
  191POPC  C21122051   5.993   4.296   7.923  0.6556  0.3115  0.3509
  191POPC  H11R22052   6.046   4.319   8.018  1.9042 -2.6570  0.4916
  191POPC  H11S22053   6.062   4.235   7.860  2.1609  0.3748  1.8441
  191POPC  C21222054   5.865   4.216   7.975 -0.0611  0.1735  0.2532
  191POPC  H12R22055   5.807   4.192   7.883 -1.0775  2.6351  0.1575
  191POPC  H12S22056   5.810   4.279   8.049  1.4472  1.4445  0.3498
  191POPC  C21322057   5.901   4.079   8.035 -0.4018 -0.0993  0.4523
  191POPC  H13R22058   5.984   4.028   7.981 -1.8618 -2.3917  0.2130
  191POPC  H13S22059   5.813   4.014   8.015  0.8742 -1.5548 -0.7775
  191POPC  C21422060   5.922   4.079   8.183  0.9415  0.1473 -0.3514
  191POPC  H14R22061   5.985   4.168   8.202  0.3233  0.5926 -0.3848
  191POPC  H14S22062   5.990   3.996   8.214  0.0902  0.1307  1.6227
  191POPC  C21522063   5.803   4.078   8.271  0.3850 -0.2078  0.3154
  191POPC  H15R22064   5.745   3.989   8.235 -0.5162 -0.0687  1.3484
  191POPC  H15S22065   5.737   4.163   8.245  1.7023  1.2791  1.6288
  191POPC  C21622066   5.825   4.048   8.417  0.0538 -1.0033 -0.4955
  191POPC  H16R22067   5.910   3.978   8.432  2.1706  1.7090  1.1381
  191POPC  H16S22068   5.729   4.009   8.455 -1.7449  2.5104 -1.0395
  191POPC  C21722069   5.859   4.182   8.495 -0.3074  0.2382 -0.1253
  191POPC  H17R22070   5.791   4.262   8.458 -1.8749 -0.9261  0.1504
  191POPC  H17S22071   5.962   4.205   8.459  0.1005 -0.8097  0.3250
  191POPC  C21822072   5.843   4.161   8.646 -0.5634 -0.4158 -0.4030
  191POPC  H18R22073   5.916   4.090   8.691 -0.5592  0.3831  0.9022
  191POPC  H18S22074   5.738   4.133   8.668 -0.2790 -2.2329 -1.2276
  191POPC  H18T22075   5.861   4.260   8.694 -1.5936 -1.5030  2.4286
  191POPC   C3322076   5.389   3.808   7.345 -0.3034 -0.3854 -0.5094
  191POPC   H3X22077   5.470   3.869   7.301  0.1931 -1.7662 -1.5785
  191POPC   H3Y22078   5.416   3.776   7.448 -1.8285 -0.0941  0.0028
  191POPC   C3422079   5.271   3.898   7.353  0.5363  0.1807  0.2684
  191POPC   H4X22080   5.177   3.840   7.371  1.5950 -1.5328  0.5591
  191POPC   H4Y22081   5.254   3.948   7.256  1.1664 -0.5291 -0.2198
  191POPC   C3522082   5.300   4.002   7.464 -0.1681  0.1820  0.4222
  191POPC   H5X22083   5.397   4.053   7.443  1.2042 -1.6221  1.9879
  191POPC   H5Y22084   5.307   3.946   7.560 -0.2922  0.9948  0.9159
  191POPC   C3622085   5.191   4.100   7.481  0.4243 -1.1000 -0.0104
  191POPC   H6X22086   5.100   4.046   7.514 -0.9299  2.0257  1.8689
  191POPC   H6Y22087   5.155   4.161   7.396 -3.0813  0.8528  2.5907
  191POPC   C3722088   5.221   4.204   7.586  0.3574  0.6228  0.0979
  191POPC   H7X22089   5.132   4.269   7.602 -0.9011 -0.7596 -1.0653
  191POPC   H7Y22090   5.303   4.273   7.556 -0.6990  1.0170 -2.0324
  191POPC   C3822091   5.237   4.147   7.733 -0.1471  0.2925 -0.5012
  191POPC   H8X22092   5.327   4.083   7.739  1.4647  2.5404  1.0174
  191POPC   H8Y22093   5.152   4.078   7.747  0.1117  0.2511  1.0187
  191POPC   C3922094   5.240   4.252   7.849 -0.1261 -0.1451 -0.5922
  191POPC   H9X22095   5.135   4.282   7.870  0.3904  0.5662  1.1338
  191POPC   H9Y22096   5.299   4.333   7.800  1.0827 -0.1748  0.7470
  191POPC  C31022097   5.291   4.199   7.984 -0.7637 -0.5629 -0.2738
  191POPC  H10X22098   5.399   4.177   7.976 -0.3033  0.9123  1.3905
  191POPC  H10Y22099   5.229   4.117   8.025 -0.9803 -0.8766 -1.1907
  191POPC  C31122100   5.284   4.317   8.089  0.1354  0.1715  0.3357
  191POPC  H11X22101   5.179   4.318   8.127  0.5438 -0.7032  1.5282
  191POPC  H11Y22102   5.312   4.405   8.028  2.5736 -1.2017 -0.6516
  191POPC  C31222103   5.384   4.297   8.202  0.2248  0.2977 -0.9813
  191POPC  H12X22104   5.489   4.306   8.169  1.3558  3.8472  2.7266
  191POPC  H12Y22105   5.373   4.195   8.245  1.1667 -0.3735 -2.2699
  191POPC  C31322106   5.368   4.415   8.297 -0.8192  0.3749 -0.3517
  191POPC  H13X22107   5.266   4.408   8.341 -0.3751 -1.0564  0.5363
  191POPC  H13Y22108   5.383   4.511   8.243  2.0799  1.4275  2.0403
  191POPC  C31422109   5.463   4.413   8.419 -0.6070 -0.0743  0.1734
  191POPC  H14X22110   5.569   4.434   8.392  0.1609 -5.1479 -1.7752
  191POPC  H14Y22111   5.456   4.313   8.466  3.9352 -0.2754  0.8336
  191POPC  C31522112   5.415   4.508   8.523  0.8847  0.8677 -0.4443
  191POPC  H15X22113   5.461   4.477   8.619  1.2193  2.4450 -0.0780
  191POPC  H15Y22114   5.307   4.487   8.531  1.2141 -0.6134  0.5539
  191POPC  C31622115   5.456   4.653   8.491 -0.6260 -0.3093  0.2871
  191POPC  H16X22116   5.421   4.714   8.577  0.5444  2.6341 -1.1902
  191POPC  H16Y22117   5.411   4.699   8.400  0.3289 -1.0346 -0.5747
  191POPC  H16Z22118   5.565   4.667   8.478 -0.8665  0.4687 -1.0796
  192POPC     N22119   6.448   6.682   5.863  0.0164 -0.0507  0.1230
  192POPC   C1222120   6.483   6.676   6.009 -0.5505  0.4710 -0.6617
  192POPC  H12A22121   6.533   6.582   6.028 -2.7484 -0.3118  2.0397
  192POPC  H12B22122   6.392   6.684   6.067  0.1667  2.2954  0.2879
  192POPC   C1322123   6.342   6.582   5.837 -0.0412 -0.7970 -0.0931
  192POPC  H13A22124   6.310   6.578   5.734 -0.0946  0.3763 -0.1345
  192POPC  H13B22125   6.385   6.484   5.845 -0.1823 -1.0240 -1.7134
  192POPC  H13C22126   6.251   6.597   5.893 -0.8579 -1.4802 -1.1891
  192POPC   C1422127   6.390   6.816   5.830  0.2752  0.3147 -0.0138
  192POPC  H14A22128   6.376   6.833   5.724 -2.1813  3.1428  0.6317
  192POPC  H14B22129   6.291   6.822   5.873  0.7416 -2.9986  1.8578
  192POPC  H14C22130   6.460   6.888   5.870  0.8537  1.1265 -2.3577
  192POPC   C1522131   6.569   6.654   5.786  0.3496  0.0637 -0.2636
  192POPC  H15A22132   6.545   6.636   5.682  0.3995  0.6504 -0.3826
  192POPC  H15B22133   6.630   6.572   5.820  0.0943 -0.9717 -2.1815
  192POPC  H15C22134   6.623   6.747   5.779 -1.1641  1.1382  1.3923
  192POPC   C1122135   6.566   6.796   6.067  0.3040  0.2733 -0.1370
  192POPC  H11A22136   6.576   6.792   6.178  0.4604  2.1115 -0.0518
  192POPC  H11B22137   6.507   6.889   6.049 -1.3181 -0.9906 -1.6447
  192POPC     P22138   6.822   6.739   6.073 -0.1358 -0.1169 -0.0086
  192POPC   O1322139   6.949   6.813   6.048  0.1339  0.0972 -0.3701
  192POPC   O1422140   6.809   6.603   6.024 -0.2002  1.0670  0.3439
  192POPC   O1222141   6.696   6.812   6.013  0.3631  0.4860  0.3546
  192POPC   O1122142   6.784   6.740   6.227 -0.2546 -0.2501  0.3584
  192POPC    C122143   6.794   6.857   6.312  0.9722  0.1043  0.4476
  192POPC    HA22144   6.699   6.915   6.314 -0.9511 -2.8008 -0.0819
  192POPC    HB22145   6.881   6.917   6.280  0.8509 -0.2575 -0.5932
  192POPC    C222146   6.814   6.816   6.458 -0.2322 -0.0127 -0.4689
  192POPC    HS22147   6.865   6.895   6.518  1.7631 -0.9094 -0.8918
  192POPC   O2122148   6.896   6.696   6.476 -0.6295 -0.1277 -0.2238
  192POPC   C2122149   7.021   6.710   6.443  0.4419  0.6265  0.4674
  192POPC   O2222150   7.073   6.811   6.399  0.4206  0.2304  0.4347
  192POPC   C2222151   7.101   6.587   6.485  0.0775 -0.1260 -0.6654
  192POPC   H2R22152   7.119   6.517   6.400 -2.2052 -2.0853  0.3627
  192POPC   H2S22153   7.056   6.521   6.562  1.3028 -1.5981 -1.1425
  192POPC    C322154   6.678   6.786   6.521 -0.8491 -0.3953  1.1998
  192POPC    HX22155   6.617   6.728   6.448 -1.6697  2.4138 -0.5056
  192POPC    HY22156   6.609   6.873   6.518 -3.2766 -2.2095 -2.2644
  192POPC   O3122157   6.687   6.729   6.653  0.4061  0.7552  0.3928
  192POPC   C3122158   6.701   6.597   6.660 -0.4426 -0.2078 -0.2335
  192POPC   O3222159   6.705   6.518   6.567 -0.7453  0.6138  0.9254
  192POPC   C3222160   6.713   6.563   6.809 -0.1890 -0.4307  0.3858
  192POPC   H2X22161   6.811   6.605   6.842  0.4650 -0.9550 -0.8181
  192POPC   H2Y22162   6.728   6.453   6.806  0.6124 -0.3847  1.8605
  192POPC   C2322163   7.232   6.631   6.543  0.4643 -0.7517  1.0825
  192POPC   H3R22164   7.284   6.710   6.485 -1.2720 -1.2765 -1.3551
  192POPC   H3S22165   7.302   6.545   6.541 -2.3205 -3.1926  0.5853
  192POPC   C2422166   7.223   6.676   6.683  0.4196 -0.5169 -0.3132
  192POPC   H4R22167   7.157   6.766   6.677 -0.4195 -0.9067  2.1804
  192POPC   H4S22168   7.321   6.724   6.703  0.3163  0.1843 -1.3596
  192POPC   C2522169   7.189   6.576   6.782  0.7346 -0.4502  0.4148
  192POPC   H5R22170   7.270   6.500   6.783  2.1090  0.9094 -1.5164
  192POPC   H5S22171   7.090   6.525   6.771  0.8714 -0.5269 -0.4712
  192POPC   C2622172   7.170   6.635   6.927  0.0532 -0.3268  0.3095
  192POPC   H6R22173   7.073   6.689   6.922  1.1085  1.8590  1.6143
  192POPC   H6S22174   7.251   6.712   6.937  1.0666 -0.3739 -4.6441
  192POPC   C2722175   7.162   6.529   7.037 -0.1333 -0.8069  0.3696
  192POPC   H7R22176   7.217   6.567   7.125  2.2230 -0.7271 -1.0661
  192POPC   H7S22177   7.203   6.432   7.001 -2.2296 -0.5722 -3.1893
  192POPC   C2822178   7.017   6.502   7.077 -0.3261 -0.1102  0.3823
  192POPC   H8R22179   7.015   6.401   7.123  0.1536 -0.2755  0.0541
  192POPC   H8S22180   6.950   6.488   6.990  1.6833  0.3820 -1.3325
  192POPC   C2922181   6.958   6.612   7.163 -0.5574  0.2616 -0.6293
  192POPC   H9122182   6.868   6.663   7.124 -0.4693  2.2542  1.5027
  192POPC  C21022183   6.994   6.651   7.293 -0.2630 -0.5299 -0.2558
  192POPC  H10122184   6.938   6.730   7.345  0.9280 -1.7239  3.1620
  192POPC  C21122185   7.101   6.593   7.382 -0.8004 -0.7476 -0.8314
  192POPC  H11R22186   7.200   6.632   7.348 -0.8735 -1.7252 -2.2434
  192POPC  H11S22187   7.111   6.483   7.374 -0.6379 -0.6655 -1.9082
  192POPC  C21222188   7.064   6.614   7.534 -0.2132  0.5752  0.9123
  192POPC  H12R22189   6.957   6.584   7.546  0.5798 -4.0101 -1.1984
  192POPC  H12S22190   7.076   6.723   7.551  3.4554  0.2823  0.9117
  192POPC  C21322191   7.150   6.527   7.630  0.0590 -0.2921 -0.2987
  192POPC  H13R22192   7.254   6.536   7.592 -0.5847 -0.3779 -2.1492
  192POPC  H13S22193   7.127   6.418   7.628 -1.6560 -0.0824  2.2978
  192POPC  C21422194   7.150   6.577   7.772 -0.0779 -0.2657 -0.8026
  192POPC  H14R22195   7.053   6.559   7.824  0.7286 -1.2950  0.3898
  192POPC  H14S22196   7.173   6.685   7.766 -0.1492 -0.2516 -0.8327
  192POPC  C21522197   7.256   6.501   7.854  0.4827  0.5179  0.6368
  192POPC  H15R22198   7.356   6.527   7.812 -0.3539 -0.3498 -2.1308
  192POPC  H15S22199   7.235   6.392   7.843  1.5865  0.2968  0.5804
  192POPC  C21622200   7.263   6.529   8.011  0.2647  0.4059  0.6685
  192POPC  H16R22201   7.361   6.486   8.041  0.5941  1.4617  1.1560
  192POPC  H16S22202   7.173   6.478   8.052 -0.5539  1.2951  0.0278
  192POPC  C21722203   7.254   6.677   8.056  0.1701  0.5901  0.4304
  192POPC  H17R22204   7.159   6.710   8.008  0.9306  0.6366 -1.1310
  192POPC  H17S22205   7.338   6.723   7.999  0.2951  0.9006  0.8625
  192POPC  C21822206   7.253   6.706   8.203 -0.3547  0.0043 -0.0111
  192POPC  H18R22207   7.167   6.659   8.256  2.1247 -2.8620  1.8352
  192POPC  H18S22208   7.232   6.814   8.214  2.2779  0.5847  0.0516
  192POPC  H18T22209   7.347   6.673   8.252 -0.2719  1.2298  0.6827
  192POPC   C3322210   6.589   6.604   6.886  0.4874 -0.3044 -0.2216
  192POPC   H3X22211   6.498   6.559   6.840  0.0021 -0.6900  1.0684
  192POPC   H3Y22212   6.576   6.713   6.873  1.5731  0.2922  2.9671
  192POPC   C3422213   6.599   6.575   7.029  0.4378 -0.0217  0.2493
  192POPC   H4X22214   6.500   6.593   7.076 -0.3938 -2.6715 -0.3571
  192POPC   H4Y22215   6.673   6.646   7.074  0.6153 -0.7316  1.1038
  192POPC   C3522216   6.618   6.426   7.062 -0.3386 -0.3865  0.5008
  192POPC   H5X22217   6.726   6.407   7.047 -0.6148 -1.2630 -0.5400
  192POPC   H5Y22218   6.551   6.366   6.997 -1.7390  1.3228  0.2766
  192POPC   C3622219   6.589   6.386   7.210 -0.0731 -0.0445 -0.1853
  192POPC   H6X22220   6.638   6.287   7.221 -0.5549 -0.1555  1.0433
  192POPC   H6Y22221   6.479   6.379   7.227  0.1212 -1.0561  0.7734
  192POPC   C3722222   6.651   6.482   7.312  0.5728  0.4038  0.4351
  192POPC   H7X22223   6.669   6.574   7.253  3.1947 -0.9499 -1.0212
  192POPC   H7Y22224   6.750   6.436   7.331 -0.0570 -0.0404  3.1783
  192POPC   C3822225   6.591   6.498   7.452  0.4449 -0.5321 -0.2216
  192POPC   H8X22226   6.561   6.397   7.486  0.9568 -0.6752 -0.1855
  192POPC   H8Y22227   6.507   6.570   7.450  0.4444 -0.4897  0.9468
  192POPC   C3922228   6.689   6.548   7.560  0.7327  0.4840  0.3839
  192POPC   H9X22229   6.716   6.654   7.543  2.0760  0.2596  1.0376
  192POPC   H9Y22230   6.778   6.483   7.554 -0.1551 -0.6459 -1.9665
  192POPC  C31022231   6.633   6.533   7.706 -0.2216 -0.5323  0.1147
  192POPC  H10X22232   6.609   6.426   7.722  0.1654 -0.7981 -0.9777
  192POPC  H10Y22233   6.546   6.599   7.721  1.2128  1.4580  0.0809
  192POPC  C31122234   6.744   6.585   7.802  0.1061 -1.1419  0.0279
  192POPC  H11X22235   6.756   6.688   7.762 -0.0017 -0.9289  0.5431
  192POPC  H11Y22236   6.837   6.525   7.790  2.2671  1.9515  0.3436
  192POPC  C31222237   6.707   6.584   7.952  0.4234 -0.1122 -0.0556
  192POPC  H12X22238   6.599   6.560   7.968  0.3264  0.1559 -0.2842
  192POPC  H12Y22239   6.725   6.689   7.986  0.8809 -0.4775  0.8535
  192POPC  C31322240   6.785   6.486   8.037  0.3457  0.0665  0.8624
  192POPC  H13X22241   6.889   6.522   8.053  1.5241 -2.3770 -0.6535
  192POPC  H13Y22242   6.808   6.398   7.974  1.4082  1.2542 -0.4749
  192POPC  C31422243   6.715   6.451   8.169 -0.4923 -0.3990 -0.2575
  192POPC  H14X22244   6.611   6.424   8.144 -0.9030  0.0895  0.8318
  192POPC  H14Y22245   6.701   6.545   8.228 -0.9213 -0.5794 -0.0711
  192POPC  C31522246   6.786   6.356   8.271  0.0072 -0.5010 -0.7000
  192POPC  H15X22247   6.751   6.250   8.263  1.7927 -1.1639 -0.1212
  192POPC  H15Y22248   6.756   6.399   8.369 -1.4753 -1.5266 -0.6547
  192POPC  C31622249   6.935   6.341   8.258  0.3345  0.6596 -0.2564
  192POPC  H16X22250   6.993   6.435   8.245 -0.6957  1.3597  0.1646
  192POPC  H16Y22251   6.966   6.283   8.168  0.9521  2.3340 -1.1686
  192POPC  H16Z22252   6.973   6.291   8.350  0.6222 -1.1220 -1.2952
  193SOD    SOD22253   2.688   5.901   1.109  0.0977 -0.3699 -0.3213
  194SOD    SOD22254   6.153   2.105  12.712  0.3917 -0.2022  0.1877
  195SOD    SOD22255   5.191   3.862  11.923 -0.0936 -0.1390 -0.2444
  196SOD    SOD22256   4.453   2.429   1.500  0.1736  0.4846 -0.3293
  197SOD    SOD22257   2.420   1.073  14.171  0.2984 -0.6034 -0.3430
  198SOD    SOD22258   0.294   2.796  16.800  0.3608  0.2698 -0.0180
  199SOD    SOD22259   1.544   5.381  16.998 -0.4660 -0.1286 -0.5488
  200SOD    SOD22260   6.014   5.664  11.891 -0.1643  0.5183 -0.1907
  201SOD    SOD22261   4.398   3.901  15.015 -0.1492 -0.1118  0.1719
  202SOD    SOD22262   3.675   3.772  16.338  0.0926  0.0820 -0.2906
  203SOD    SOD22263   1.735   5.884  13.545  0.0351 -0.3250  0.4054
  204SOD    SOD22264   5.713   4.397  16.912  0.0714  0.0755  0.0024
  205SOD    SOD22265   3.898   6.381   0.088 -0.3601 -0.4124  0.2303
  206SOD    SOD22266   4.001   4.074  15.858  0.0954  0.7472 -0.2976
  207SOD    SOD22267   1.623   3.181  17.026  0.2349  0.1683  0.2625
  208SOD    SOD22268   3.017   6.401  15.241  0.0661  0.5108  0.2127
  209SOD    SOD22269   2.623   0.185  17.245 -0.4969  0.1136 -0.1064
  210SOD    SOD22270   0.515   2.917   3.980  0.2563 -0.0502  0.4793
  211SOD    SOD22271   5.132   1.875  14.474  0.1251  0.0490  0.3621
  212SOD    SOD22272   0.972   0.813  10.845  0.3673 -0.3347 -0.3834
  213SOD    SOD22273   3.802   0.782   4.441  0.0393 -0.1713 -0.1245
  214SOD    SOD22274   2.794   5.433  11.334  0.6364 -0.0817  0.1506
  215SOD    SOD22275   4.565   4.639  11.277  0.5233 -0.3465  0.9570
  216SOD    SOD22276   3.677   2.676   5.454  0.2983  0.0933 -0.1918
  217SOD    SOD22277   6.539   3.064   3.726 -0.2619  0.1452 -0.1461
  218SOD    SOD22278   6.401   1.169  12.658  0.0950  0.0213  0.0034
  219SOD    SOD22279   5.707   4.805   6.131 -0.0507 -0.2741 -0.3314
  220SOD    SOD22280   5.980   5.348   3.837 -0.3767 -0.2422 -0.6336
  221SOD    SOD22281   4.660   2.714   5.857 -0.2517  0.2388 -0.2940
  222SOD    SOD22282   0.605   3.344   5.855  0.1894 -0.3006  0.1167
  223SOD    SOD22283   0.683   4.784  16.719  0.2586 -0.1204  0.0933
  224SOD    SOD22284   6.075   2.608   2.560 -0.4716 -0.5960 -0.1229
  225SOD    SOD22285   1.544   6.097  10.670  0.3322 -0.1874  0.0950
  226SOD    SOD22286   5.532   1.546   3.716  0.4112 -0.1576 -0.0761
  227SOD    SOD22287   2.312   3.608  15.157 -0.4331  0.2405 -0.0303
  228SOD    SOD22288   4.124   4.239  14.589 -0.0173 -0.1547  0.0017
  229SOD    SOD22289   0.337   3.177   2.357  0.2479  0.2481  0.1843
  230SOD    SOD22290   0.129   2.792  10.787 -0.0502  0.3890 -0.3250
  231SOD    SOD22291   0.356   1.104   2.660 -0.2130 -0.0085 -0.4874
  232SOD    SOD22292   4.856   6.200   6.653 -0.5817  0.4727 -0.1310
  233SOD    SOD22293   2.483   4.872   2.155 -0.1105 -0.0053  0.2884
  234SOD    SOD22294   4.929   0.595   1.922 -0.2807 -0.1511  0.3867
  235SOD    SOD22295   5.462   4.183   2.886 -0.0771 -0.0683 -0.1023
  236SOD    SOD22296   6.482   4.914  11.677  0.1571 -0.1275 -0.9773
  237SOD    SOD22297   3.386   1.513  15.283  0.2225 -0.5459  0.3976
  238SOD    SOD22298   5.853   5.519  11.370 -0.0844  0.3203 -0.2787
  239SOD    SOD22299   1.670   2.825  12.548  0.5540  0.3305  0.1836
  240SOD    SOD22300   3.385   2.918  14.863  0.0310 -0.5787 -0.5094
  241SOD    SOD22301   0.344   1.364   4.297 -0.2041  0.5587 -0.0153
  242SOD    SOD22302   1.147   2.464   6.294  0.1181  0.0137 -0.0623
  243SOD    SOD22303   2.411   2.065   6.514  0.2630 -0.1293 -0.1541
  244SOD    SOD22304   4.636   2.469  12.992 -0.1632  0.6868  0.7870
  245SOD    SOD22305   2.709   2.594   1.340  0.2433 -0.7684 -0.0316
  246SOD    SOD22306   3.580   4.539  11.570  0.2735  0.5052  0.0308
  247SOD    SOD22307   1.926   5.047   3.838  0.0812 -0.0019 -0.0622
  248SOD    SOD22308   4.778   3.677  12.762  0.2160 -0.1542  0.2688
  249SOD    SOD22309   3.620   1.073   2.965 -0.0426 -0.7308  0.2724
  250SOD    SOD22310   4.774   6.292   3.540  0.4848 -0.2199 -0.0677
  251SOD    SOD22311   1.831   2.335   4.517 -0.3875  0.1499  0.5902
  252SOD    SOD22312   3.899   2.779   4.107 -0.1602 -0.1461  0.0508
  253SOD    SOD22313   2.425   2.720  13.442  0.2905 -0.0644 -0.1166
  254SOD    SOD22314   3.592   4.160   3.334  0.0063 -0.1833 -0.1847
  255SOD    SOD22315   2.901   5.648  14.130  0.3141  0.3900  0.1548
  256SOD    SOD22316   5.612   0.244  15.768  0.3939 -0.0955 -0.4042
  257SOD    SOD22317   0.453   6.334  15.797  0.2244  0.6900 -0.3991
  258SOD    SOD22318   1.325   6.265  11.579 -0.0369 -0.3756 -0.5642
  259SOD    SOD22319   3.017   6.665  10.902 -0.2194 -0.1554 -0.1055
  260SOD    SOD22320   1.050   1.188  16.388  0.4591 -0.0189 -0.2191
  261SOD    SOD22321   6.042   1.509  10.747  0.6875 -0.1212 -0.1953
  262SOD    SOD22322   5.485   1.978  11.575  0.1491 -0.2453  0.2294
  263SOD    SOD22323   6.386   4.624  13.426 -0.3869 -0.1430  0.3322
  264SOD    SOD22324   3.713   0.209   0.626  0.3970  0.0374  0.5882
  265SOD    SOD22325   0.129   6.596   3.705  0.2775 -0.7026 -0.1621
  266SOD    SOD22326   5.794   4.894   0.395 -0.3848  0.7866  0.3164
  267SOD    SOD22327   2.542   4.563   6.067 -0.0074  0.2059 -0.2298
  268SOD    SOD22328   3.920   1.563  12.807  0.0443  0.2413  0.0322
  269SOD    SOD22329   3.927   4.708   5.924  0.2167  0.0999 -0.2993
  270CLA    CLA22330   4.168   2.107   1.754 -0.2744  0.4202 -0.1302
  271CLA    CLA22331   1.237   0.177   3.997 -0.0972 -0.6205  0.0953
  272CLA    CLA22332   4.568   2.815  15.186 -0.2125  0.4120 -0.1903
  273CLA    CLA22333   1.249   1.216   2.472  0.2252  0.4013  0.0144
  274CLA    CLA22334   4.740   5.876  15.476 -0.0135 -0.4132  0.4087
  275CLA    CLA22335   0.694   3.701   1.894 -0.1289 -0.1389  0.4277
  276CLA    CLA22336   0.807   3.952   0.097 -0.2559  0.4196  0.0152
  277CLA    CLA22337   1.610   0.500   0.738  0.1021  0.0516 -0.4481
  278CLA    CLA22338   1.888   2.872  11.924  0.2510 -0.3789  0.2859
  279CLA    CLA22339   6.715   5.063  12.004  0.0135  0.0098 -0.3459
  280CLA    CLA22340   6.074   2.896  12.558 -0.0418 -0.2563  0.3872
  281CLA    CLA22341   6.552   2.400  16.720  0.0839 -0.0437  0.1280
  282CLA    CLA22342   0.318   2.736  15.105  0.1733  0.0286  0.3291
  283CLA    CLA22343   4.026   5.259  13.156 -0.3016 -0.2820  0.2799
  284CLA    CLA22344   0.556   1.912  13.848 -0.2202 -0.0715  0.6277
  285CLA    CLA22345   2.351   6.248   5.391 -0.6057 -0.3993  0.1326
  286CLA    CLA22346   5.762   4.590   2.722  0.2923  0.1346 -0.1675
  287CLA    CLA22347   1.354   3.997   0.640  0.5023  0.1348  0.1306
  288CLA    CLA22348   2.904   1.308   3.002  0.5755 -0.5775 -0.0707
  289CLA    CLA22349   5.806   0.611   0.227  0.0393  0.2274 -0.4354
  290CLA    CLA22350   4.688   0.355   2.416 -0.2972  0.0521 -0.1691
  291CLA    CLA22351   4.010   3.276  14.716 -0.1356 -0.1859  0.0768
  292CLA    CLA22352   4.011   1.779  15.232  0.1179  0.1911  0.1374
  293CLA    CLA22353   4.631   5.412   6.098 -0.1686 -0.0567 -0.0511
  294CLA    CLA22354   3.129   3.605   3.712  0.5813 -0.0348 -0.0881
  295CLA    CLA22355   2.527   5.454  17.085 -0.4842 -0.0639  0.0199
  296CLA    CLA22356   2.232   2.080  14.121  0.0423  0.1880  0.2590
  297CLA    CLA22357   6.621   4.762  12.995 -0.3020 -0.0226 -0.2283
  298CLA    CLA22358   1.692   6.356   0.292 -0.3985  0.2628  0.1510
  299CLA    CLA22359   3.959   4.164  13.418 -0.2451  0.2820  0.1111
  300CLA    CLA22360   2.730   2.994  13.129 -0.2727  0.1198  0.0075
  301CLA    CLA22361   5.497   1.480   2.441 -0.1108  0.3414  0.2031
  302CLA    CLA22362   2.990   5.763   0.075  0.2859 -0.1690  0.1486
  303CLA    CLA22363   1.829   2.500   1.835 -0.3260  0.3891  0.3248
  304CLA    CLA22364   5.488   1.969  13.682  0.1804  0.0823  0.1432
  305CLA    CLA22365   6.028   2.131   2.025  0.1959 -0.2854 -0.3700
  306CLA    CLA22366   6.699   4.092  12.312 -0.0430 -0.0314 -0.1572
  307CLA    CLA22367   5.088   4.505  14.630 -0.0958 -0.1408  0.0547
  308CLA    CLA22368   3.783   3.340   0.318  0.3383  0.2587 -0.0715
  309CLA    CLA22369   0.753   3.186   4.642 -0.1628  0.5289  0.5427
  310CLA    CLA22370   1.377   1.495  15.131  0.2348  0.2205  0.0645
  311CLA    CLA22371   2.535   6.672  14.919  0.0355  0.4721 -0.0624
  312CLA    CLA22372   1.074   2.342   3.580  0.1977  0.6367 -0.4838
  313CLA    CLA22373   0.111   0.912  14.812 -0.4643 -0.3986 -0.2836
  314CLA    CLA22374   5.957   6.531  13.634 -0.1902  0.2645 -0.4065
  315CLA    CLA22375   6.590   4.305  11.852  0.5979  0.2744 -0.1140
  316CLA    CLA22376   4.291   1.426  12.094 -0.0782  0.2331  0.0456
  317CLA    CLA22377   6.090   2.468   3.521 -0.4170 -0.0037 -0.0845
  318CLA    CLA22378   3.891   2.911   4.681 -0.1740  0.1023  0.0032
  319CLA    CLA22379   0.155   5.885  15.062  0.3491  0.3954 -0.2574
  320CLA    CLA22380   3.006   2.238   4.052 -0.1646 -0.0762  0.3313
  321CLA    CLA22381   6.017   2.522   0.150  0.3979 -0.0629 -0.2657
  322CLA    CLA22382   2.160   4.162  15.935  0.1512  0.1409 -0.0275
  323TIP3   OH222383   1.738   0.862   3.448 -0.4565 -0.0603  0.3025
  323TIP3    H122384   1.772   0.932   3.392 -2.0781 -0.0340 -0.7044
  323TIP3    H222385   1.696   0.908   3.521  0.1066 -0.0529  0.6306
  324TIP3   OH222386   0.783   1.951  14.077 -0.0199  0.1465 -0.2928
  324TIP3    H122387   0.708   1.961  14.018 -1.0417  1.3160  1.1302
  324TIP3    H222388   0.799   2.039  14.111  2.3732  0.0254 -0.9435
  325TIP3   OH222389   2.392   0.806  11.409  0.6452  0.1384  0.7665
  325TIP3    H122390   2.330   0.733  11.418  0.0445  0.3195 -1.3378
  325TIP3    H222391   2.476   0.770  11.437  0.1997 -1.1000  0.5753
  326TIP3   OH222392   6.150   5.490  16.036  0.3618 -0.5561  0.2237
  326TIP3    H122393   6.214   5.495  16.107  0.5919  2.1025 -0.0994
  326TIP3    H222394   6.068   5.467  16.079  1.0141 -1.6793  0.9385
  327TIP3   OH222395   6.425   3.938  14.368 -0.2097  0.2412 -0.1650
  327TIP3    H122396   6.495   3.886  14.409 -1.0287  0.0421  1.0391
  327TIP3    H222397   6.471   4.006  14.319  0.8333 -0.2722  0.0689
  328TIP3   OH222398   0.304   3.706   0.213 -0.4295  0.3075  0.6854
  328TIP3    H122399   0.398   3.694   0.197 -0.7167 -0.5290 -0.5304
  328TIP3    H222400   0.276   3.769   0.147 -0.7069  0.6651  1.1376
  329TIP3   OH222401   5.085   2.374  16.477 -0.2090 -0.3777  0.4304
  329TIP3    H122402   4.992   2.374  16.456 -0.9321 -2.6468  3.0141
  329TIP3    H222403   5.090   2.412  16.565  1.1600 -1.1453  0.7121
  330TIP3   OH222404   1.891   1.429  14.751 -0.3381  0.1545 -0.0897
  330TIP3    H122405   1.914   1.384  14.833 -0.6932  2.5762  1.4334
  330TIP3    H222406   1.810   1.387  14.723  0.0303 -1.0285  0.5256
  331TIP3   OH222407   0.484   0.085  16.019  0.5306 -0.2883  0.1535
  331TIP3    H122408   0.393   0.099  16.042  0.6045  1.9582 -0.6939
  331TIP3    H222409   0.482   0.019  15.950 -0.4708 -0.1410  0.0378
  332TIP3   OH222410   6.481   5.771  11.992  0.1747  0.1178  0.3736
  332TIP3    H122411   6.556   5.724  11.955 -0.0705  1.5978 -2.2812
  332TIP3    H222412   6.499   5.776  12.086  1.8397 -2.2301  0.2607
  333TIP3   OH222413   1.115   3.000   0.299 -0.5542  0.0594 -0.0816
  333TIP3    H122414   1.101   2.911   0.332 -1.0825 -0.1663 -0.9107
  333TIP3    H222415   1.170   3.041   0.366 -0.9535 -0.6414  0.6919
  334TIP3   OH222416   5.097   0.571   1.479 -0.0333 -0.6347  0.2622
  334TIP3    H122417   5.028   0.533   1.424 -1.4690 -0.5278  1.9022
  334TIP3    H222418   5.052   0.601   1.558  1.3421  2.6861 -0.0389
  335TIP3   OH222419   2.283   4.484   1.831 -0.0384  0.4553 -1.0049
  335TIP3    H122420   2.235   4.567   1.829 -0.0309  0.4598 -0.9858
  335TIP3    H222421   2.232   4.426   1.775  0.2174  0.6161 -1.4149
  336TIP3   OH222422   4.270   1.551  10.787 -0.1888 -0.4303  0.1183
  336TIP3    H122423   4.310   1.605  10.855  1.3621 -2.3225  0.7973
  336TIP3    H222424   4.183   1.529  10.820 -1.2089  2.2378 -0.5495
  337TIP3   OH222425   1.329   4.051   3.791 -0.2929  0.3385  0.2506
  337TIP3    H122426   1.383   4.060   3.712 -0.9331  1.1522 -0.1165
  337TIP3    H222427   1.388   4.017   3.857  0.9442  2.1571  0.1524
  338TIP3   OH222428   4.326   4.727   4.565 -0.3192  0.1259  0.1363
  338TIP3    H122429   4.262   4.684   4.508  1.3895  0.2498 -2.0208
  338TIP3    H222430   4.318   4.820   4.542  0.3391  0.1870  0.1584
  339TIP3   OH222431   1.890   0.427  13.128  0.2104  0.6675  0.3055
  339TIP3    H122432   1.958   0.364  13.153  0.3888  0.3631 -0.9257
  339TIP3    H222433   1.861   0.464  13.212  0.0281 -1.1153  1.0863
  340TIP3   OH222434   4.155   3.021   3.889  0.0074 -0.6397 -0.2291
  340TIP3    H122435   4.157   3.087   3.819  0.3177  0.0321  0.3905
  340TIP3    H222436   4.184   3.069   3.967 -3.5509 -0.4224  1.1515
  341TIP3   OH222437   5.481   1.859  10.817  0.5312  0.2033 -0.1260
  341TIP3    H122438   5.432   1.796  10.763  1.7564 -2.6741  1.8204
  341TIP3    H222439   5.423   1.934  10.826 -2.0649 -1.5754 -0.7637
  342TIP3   OH222440   2.486   6.578  17.068 -0.4449  0.2155  0.3221
  342TIP3    H122441   2.470   6.673  17.075  0.7756  0.3952  0.9634
  342TIP3    H222442   2.481   6.546  17.158 -0.2244 -0.2164  0.1844
  343TIP3   OH222443   6.726   5.566  13.617  0.0384  0.7431 -0.2502
  343TIP3    H122444   6.743   5.550  13.710 -0.9151 -0.5015 -0.2660
  343TIP3    H222445   6.764   5.491  13.572 -0.8755  0.5433 -0.7130
  344TIP3   OH222446   2.480   2.734   5.844  0.8146 -0.2984 -0.2091
  344TIP3    H122447   2.442   2.812   5.804 -0.5168 -0.7072  0.2129
  344TIP3    H222448   2.445   2.661   5.792  0.3839 -0.7335  0.6807
  345TIP3   OH222449   0.499   1.752   3.645  0.2207 -0.0002 -0.3063
  345TIP3    H122450   0.487   1.847   3.643  1.9545  0.3083  1.2941
  345TIP3    H222451   0.587   1.740   3.681 -0.8049 -2.2642  1.6900
  346TIP3   OH222452   1.842   5.208  13.710 -0.4380  0.0063  0.2205
  346TIP3    H122453   1.788   5.128  13.710 -0.7934  0.2255  1.2890
  346TIP3    H222454   1.851   5.230  13.618 -0.9262 -0.8807 -0.0606
  347TIP3   OH222455   1.998   4.663   3.397 -0.4928 -0.1994  0.2403
  347TIP3    H122456   2.011   4.630   3.307  2.1420  0.7257  0.2151
  347TIP3    H222457   2.038   4.596   3.452 -0.3275  0.1893  0.5901
  348TIP3   OH222458   4.839   3.897   1.621 -0.0913 -0.2905  0.5702
  348TIP3    H122459   4.797   3.811   1.617  0.9443 -0.7818  0.0820
  348TIP3    H222460   4.921   3.887   1.574 -0.6248  1.3775 -0.8343
  349TIP3   OH222461   1.742   6.146  14.882  0.0987 -0.5377  0.2497
  349TIP3    H122462   1.737   6.072  14.942 -0.2495 -1.2304 -0.6006
  349TIP3    H222463   1.650   6.171  14.867  0.1918 -0.2320  0.1806
  350TIP3   OH222464   6.495   2.156  14.236 -0.0888  0.1881  0.2358
  350TIP3    H122465   6.546   2.229  14.200 -1.0764  0.1184 -1.4188
  350TIP3    H222466   6.491   2.174  14.330 -3.8343  4.7334 -0.3807
  351TIP3   OH222467   5.592   0.513   4.556 -0.2283  0.0534  0.2499
  351TIP3    H122468   5.500   0.502   4.532  0.1450  1.4461 -2.1245
  351TIP3    H222469   5.590   0.562   4.638 -1.6444  1.6293 -0.6683
  352TIP3   OH222470   3.639   4.335  13.491 -0.3251 -0.4424  0.2875
  352TIP3    H122471   3.549   4.306  13.479 -0.7313  1.4220 -1.7291
  352TIP3    H222472   3.684   4.306  13.412 -0.4751  3.0122 -1.2635
  353TIP3   OH222473   0.608   3.266   1.033 -0.2840  0.4510  0.4595
  353TIP3    H122474   0.551   3.337   1.064 -1.5152  0.1618 -1.0231
  353TIP3    H222475   0.548   3.200   0.998  0.9430  0.1945 -1.2969
  354TIP3   OH222476   2.596   3.750  13.070 -0.3695 -0.1741 -0.1127
  354TIP3    H122477   2.618   3.663  13.104  1.8634 -0.3024 -1.7469
  354TIP3    H222478   2.517   3.736  13.018 -1.3966 -0.7294  1.4999
  355TIP3   OH222479   0.542   1.246   2.706  0.3819  0.0429  0.1786
  355TIP3    H122480   0.572   1.274   2.792  0.9778  0.0145 -0.0144
  355TIP3    H222481   0.622   1.231   2.656  0.0573 -0.5553 -0.1876
  356TIP3   OH222482   6.049   4.270   0.220 -0.1563 -0.7656 -0.5384
  356TIP3    H122483   5.988   4.336   0.187 -0.2245 -0.4356  0.2038
  356TIP3    H222484   6.112   4.257   0.149 -0.1205  0.1396 -0.6853
  357TIP3   OH222485   2.619   4.403  11.186  0.5625  0.2754 -0.5769
  357TIP3    H122486   2.640   4.415  11.093 -2.0477  1.3093 -1.1130
  357TIP3    H222487   2.653   4.482  11.227  0.2047  0.6315 -0.9527
  358TIP3   OH222488   2.621   0.702   3.054  0.3288 -0.2766  0.0548
  358TIP3    H122489   2.573   0.759   3.114 -0.5022 -1.2894  0.3788
  358TIP3    H222490   2.664   0.763   2.992  0.5303  0.7379  1.1545
  359TIP3   OH222491   3.632   5.589   3.598  0.1925 -0.6176 -0.4458
  359TIP3    H122492   3.548   5.560   3.563 -1.0950  0.9901  1.1225
  359TIP3    H222493   3.621   5.588   3.693  1.7095  0.2690 -0.2178
  360TIP3   OH222494   2.506   5.567  10.965 -0.5459 -0.3253 -0.4628
  360TIP3    H122495   2.435   5.615  10.922 -0.6068 -0.7003 -0.7927
  360TIP3    H222496   2.508   5.482  10.919  1.1874  0.2730 -1.5878
  361TIP3   OH222497   3.885   2.554  17.332 -0.2593 -0.0058 -0.0604
  361TIP3    H122498   3.921   2.479  17.286 -1.0759 -0.4076 -0.0527
  361TIP3    H222499   3.876   2.525  17.423 -0.6761  0.0616 -0.0778
  362TIP3   OH222500   3.108   5.407  12.272 -0.4822 -0.0783  0.4739
  362TIP3    H122501   3.066   5.322  12.278 -0.8572  0.1270  0.7538
  362TIP3    H222502   3.052   5.458  12.214  1.2698 -0.9351 -2.1737
  363TIP3   OH222503   5.045   6.025  17.017  0.2743 -0.1724 -0.4765
  363TIP3    H122504   5.100   5.974  16.957  0.6731  1.3272 -1.4313
  363TIP3    H222505   5.061   6.116  16.992 -0.1126  0.4528  1.4492
  364TIP3   OH222506   1.662   2.682  15.038 -0.8316 -0.2594 -0.3018
  364TIP3    H122507   1.576   2.724  15.028 -0.9884 -0.2299  1.0556
  364TIP3    H222508   1.647   2.611  15.100 -0.0652 -0.8596 -0.7925
  365TIP3   OH222509   0.997   5.955  14.763 -0.2110 -0.0626 -0.6077
  365TIP3    H122510   0.962   5.878  14.717 -0.2311 -0.4200 -0.0145
  365TIP3    H222511   0.929   6.021  14.754 -0.6219 -0.4336 -0.3031
  366TIP3   OH222512   0.113   5.804   1.831  0.0585  0.1907 -0.3133
  366TIP3    H122513   0.182   5.776   1.770 -0.5785 -0.2630 -0.8366
  366TIP3    H222514   0.102   5.897   1.812  0.7208  0.3370 -0.0248
  367TIP3   OH222515   0.344   3.639   4.609 -0.5581 -0.0763  0.4102
  367TIP3    H122516   0.342   3.628   4.704  2.1869  0.1258  0.5765
  367TIP3    H222517   0.254   3.626   4.581 -1.1857 -1.5727  2.8735
  368TIP3   OH222518   6.292   3.694  12.657  0.1477  0.1168  0.6398
  368TIP3    H122519   6.371   3.706  12.709  0.2614  0.1399  0.4620
  368TIP3    H222520   6.261   3.782  12.639  0.6582  0.1413 -0.1693
  369TIP3   OH222521   2.268   3.784   2.122 -0.0059  0.2125  0.4073
  369TIP3    H122522   2.205   3.769   2.051  0.7476 -0.8242 -0.0695
  369TIP3    H222523   2.213   3.801   2.199 -0.9103 -1.1710  0.1158
  370TIP3   OH222524   1.742   6.086   0.758 -0.7552  0.6382  0.3366
  370TIP3    H122525   1.743   6.180   0.743  0.7676  0.6665  0.4190
  370TIP3    H222526   1.671   6.053   0.703 -0.2243  1.6413 -0.9939
  371TIP3   OH222527   2.460   1.617  17.321  0.4049  0.1971 -0.0924
  371TIP3    H122528   2.417   1.601  17.237  1.2847 -0.0598 -0.5105
  371TIP3    H222529   2.491   1.707  17.316  1.2097 -0.0812 -0.4114
  372TIP3   OH222530   3.400   1.210   6.628  0.3786  0.6133  0.2794
  372TIP3    H122531   3.409   1.269   6.702 -0.0694 -0.0028  0.8401
  372TIP3    H222532   3.486   1.170   6.618 -0.1680 -1.2759  2.1992
  373TIP3   OH222533   5.386   4.932   4.946 -0.0916 -0.0958 -0.3357
  373TIP3    H122534   5.465   4.981   4.966  0.0563 -0.2828 -0.4604
  373TIP3    H222535   5.320   4.967   5.005  0.5028 -1.0966  0.9796
  374TIP3   OH222536   3.943   6.447   0.311  0.0450 -0.4785 -0.2579
  374TIP3    H122537   3.893   6.515   0.355 -0.0163 -0.2654 -0.6579
  374TIP3    H222538   4.008   6.419   0.376 -1.2871 -1.5416  0.6756
  375TIP3   OH222539   3.255   5.921  13.540  0.4399 -0.1803  0.2076
  375TIP3    H122540   3.277   5.975  13.464  0.9310 -1.6932 -0.7742
  375TIP3    H222541   3.164   5.895  13.524  0.5857 -0.6050  0.0693
  376TIP3   OH222542   0.968   1.229  16.837 -0.2579  0.0881 -0.8452
  376TIP3    H122543   0.958   1.274  16.921  2.0447 -0.5370 -0.1708
  376TIP3    H222544   1.042   1.273  16.794 -0.9537 -0.0497 -2.2573
  377TIP3   OH222545   6.745   4.900   5.063 -0.3070 -0.5256 -0.3304
  377TIP3    H122546   6.746   4.816   5.108  0.2316 -0.5014 -0.2923
  377TIP3    H222547   6.824   4.900   5.009 -0.2308  0.0040 -0.2268
  378TIP3   OH222548   1.008   0.106  12.067  0.1898  0.5033  0.4224
  378TIP3    H122549   1.093   0.064  12.074 -1.0702 -1.9985  2.1081
  378TIP3    H222550   1.011   0.177  12.131  1.0254  0.4934  0.4021
  379TIP3   OH222551   6.352   0.132  11.389  0.5701  0.4916  0.0785
  379TIP3    H122552   6.321   0.051  11.430  1.2075  0.1083 -0.1928
  379TIP3    H222553   6.331   0.200  11.453 -0.0877  0.1363  0.2542
  380TIP3   OH222554   2.051   6.164   0.640 -0.2713 -0.4283 -0.0173
  380TIP3    H122555   2.029   6.252   0.668 -1.4582 -0.8403  0.4109
  380TIP3    H222556   2.074   6.118   0.721  2.6528  0.0769 -0.4773
  381TIP3   OH222557   0.150   2.745   2.555  0.0686 -1.1944  1.1242
  381TIP3    H122558   0.087   2.815   2.572  0.5425 -0.0492 -1.4040
  381TIP3    H222559   0.100   2.681   2.504  1.0009  0.0181 -1.4579
  382TIP3   OH222560   6.264   0.291  14.962 -0.0156 -0.2162  0.1125
  382TIP3    H122561   6.206   0.218  14.939  0.5503 -0.9109  0.8602
  382TIP3    H222562   6.315   0.306  14.882 -1.5581  0.7672 -0.7448
  383TIP3   OH222563   4.530   3.769   5.520  0.4666  0.5693  0.1437
  383TIP3    H122564   4.605   3.708   5.513 -0.1888 -0.2149 -0.2822
  383TIP3    H222565   4.554   3.828   5.591  1.1189 -0.2045  0.5897
  384TIP3   OH222566   5.609   4.570  16.120 -0.1371  0.3892 -0.2698
  384TIP3    H122567   5.519   4.581  16.091 -1.1512  0.0567  2.4545
  384TIP3    H222568   5.651   4.654  16.102 -1.3415  0.9827 -0.4011
  385TIP3   OH222569   2.229   1.417  13.131  0.1656  0.1434 -0.3427
  385TIP3    H122570   2.203   1.344  13.076 -1.5320  0.0874  0.4586
  385TIP3    H222571   2.212   1.495  13.078 -1.2601  0.0802 -0.0251
  386TIP3   OH222572   5.795   0.643   2.203  0.5843  0.0843 -0.4902
  386TIP3    H122573   5.854   0.699   2.151 -0.4981  1.3596 -0.4173
  386TIP3    H222574   5.823   0.656   2.293  1.9393 -1.4930 -0.6415
  387TIP3   OH222575   0.790   0.482  11.406 -0.1759 -0.1649  0.2055
  387TIP3    H122576   0.703   0.446  11.390 -0.3665  1.5110 -3.6372
  387TIP3    H222577   0.839   0.465  11.326  2.4312  0.6948  1.4733
  388TIP3   OH222578   6.121   3.947   5.822 -0.4540 -0.0593 -0.0349
  388TIP3    H122579   6.213   3.921   5.817 -0.8606 -2.7963  3.1242
  388TIP3    H222580   6.117   4.006   5.898 -1.2979 -0.1402 -0.0098
  389TIP3   OH222581   2.882   3.272  14.484 -0.3523 -0.6359  0.1313
  389TIP3    H122582   2.886   3.217  14.406 -1.0461 -2.2051  1.1477
  389TIP3    H222583   2.970   3.308  14.493 -0.5787  0.6712 -2.0784
  390TIP3   OH222584   1.939   2.225   3.745  0.1431  0.1483 -0.4022
  390TIP3    H122585   1.883   2.157   3.708 -0.3832 -0.2777  1.0883
  390TIP3    H222586   2.022   2.216   3.700 -0.3988 -0.4750 -1.2990
  391TIP3   OH222587   4.653   6.535   5.592 -0.1936  0.7426  0.3393
  391TIP3    H122588   4.629   6.479   5.666 -0.5196 -0.7643 -0.8436
  391TIP3    H222589   4.622   6.487   5.515  2.2367  1.0868 -0.9583
  392TIP3   OH222590   3.590   0.874  11.964  0.0365 -0.7768  0.2945
  392TIP3    H122591   3.549   0.831  12.039  0.5089 -0.0299  1.0007
  392TIP3    H222592   3.541   0.843  11.888 -1.1731 -0.6850  1.0179
  393TIP3   OH222593   1.606   1.142  15.926 -0.1618  0.1268  0.1183
  393TIP3    H122594   1.656   1.211  15.970 -0.7375 -0.1959  1.3329
  393TIP3    H222595   1.671   1.077  15.902  0.4985  1.4091 -1.7395
  394TIP3   OH222596   5.761   5.237   3.251 -0.3254 -0.1830  0.4391
  394TIP3    H122597   5.806   5.311   3.212  0.7379 -1.2409 -0.4113
  394TIP3    H222598   5.674   5.238   3.211 -0.0005  0.0593 -0.2647
  395TIP3   OH222599   6.234   3.295   2.902  0.2981  0.4476  0.5786
  395TIP3    H122600   6.282   3.378   2.909  1.2172 -0.1977  3.1503
  395TIP3    H222601   6.168   3.300   2.971  0.0471 -0.7746  0.4452
  396TIP3   OH222602   0.359   1.164   2.430 -0.2148  0.8846  0.0329
  396TIP3    H122603   0.291   1.120   2.378  0.3150  0.1159 -0.0170
  396TIP3    H222604   0.426   1.098   2.443 -0.9612  0.5950  2.9711
  397TIP3   OH222605   5.971   5.548   5.403  0.0625 -0.3339 -0.0320
  397TIP3    H122606   6.065   5.555   5.419  0.3734 -1.0276 -1.3639
  397TIP3    H222607   5.965   5.513   5.314 -1.4637  0.0659 -0.1113
  398TIP3   OH222608   3.754   1.752  16.716 -0.0898 -0.8220  0.0498
  398TIP3    H122609   3.689   1.823  16.716  0.3100 -0.4528 -0.1016
  398TIP3    H222610   3.836   1.795  16.742  0.4494 -0.9570 -1.3531
  399TIP3   OH222611   1.002   6.334  16.976  0.2695 -0.0170  0.1774
  399TIP3    H122612   0.969   6.421  16.999 -1.7935 -0.2751 -1.4797
  399TIP3    H222613   1.096   6.338  16.995  0.3759  2.8106 -0.4747
  400TIP3   OH222614   0.134   3.889   0.846 -0.1678 -0.0084 -0.2317
  400TIP3    H122615   0.116   3.896   0.752 -1.7025  0.9933  0.1114
  400TIP3    H222616   0.087   3.811   0.874 -0.0390 -0.0796 -0.2104
  401TIP3   OH222617   3.374   2.406   2.843 -0.2367 -0.3561  0.2047
  401TIP3    H122618   3.420   2.480   2.882 -1.5968  0.8937 -0.4560
  401TIP3    H222619   3.435   2.333   2.850  0.8003  0.6048  1.6934
  402TIP3   OH222620   5.747   4.119   6.244  0.0011 -0.2790 -0.3126
  402TIP3    H122621   5.669   4.103   6.190 -0.2272  0.6460 -0.2806
  402TIP3    H222622   5.818   4.076   6.197 -0.0586  1.0948 -1.7691
  403TIP3   OH222623   6.094   3.724  15.510  0.1271 -0.1050 -0.0353
  403TIP3    H122624   6.166   3.762  15.560  1.1534  0.9124 -2.1748
  403TIP3    H222625   6.133   3.700  15.426 -2.2211  1.6203 -1.7591
  404TIP3   OH222626   6.577   3.187  16.485  0.2046 -0.5122 -0.7352
  404TIP3    H122627   6.656   3.211  16.534 -0.5860 -0.2234  0.4342
  404TIP3    H222628   6.518   3.261  16.498 -1.0342 -1.6100  0.1666
  405TIP3   OH222629   5.198   5.207   0.315 -0.0158 -0.1806 -0.6053
  405TIP3    H122630   5.179   5.299   0.297 -0.4640 -0.0623  0.4504
  405TIP3    H222631   5.190   5.198   0.410 -0.0870 -1.3350 -0.7033
  406TIP3   OH222632   0.508   1.348   0.223 -0.3492 -0.0809  0.5408
  406TIP3    H122633   0.561   1.375   0.148 -3.1013  2.6167 -0.6309
  406TIP3    H222634   0.442   1.290   0.186 -1.0160  0.3325  1.0600
  407TIP3   OH222635   4.572   4.530  12.552  0.1583 -0.0959  0.3770
  407TIP3    H122636   4.642   4.547  12.489 -1.2879  0.8033 -1.0840
  407TIP3    H222637   4.595   4.583  12.628  0.2828  1.4654 -0.7018
  408TIP3   OH222638   0.798   5.964   1.158  0.2667 -0.0246  0.3899
  408TIP3    H122639   0.732   5.918   1.106 -0.3512  0.3130  0.8584
  408TIP3    H222640   0.878   5.913   1.146 -0.4027 -1.2483  0.9296
  409TIP3   OH222641   4.909   3.024   5.720 -0.0302  0.3693 -0.2401
  409TIP3    H122642   4.932   3.010   5.812  0.3161 -1.9669 -0.6218
  409TIP3    H222643   4.982   3.076   5.685 -0.3378  1.6026  0.8286
  410TIP3   OH222644   0.181   3.585   3.389 -0.0998  0.0528 -0.0913
  410TIP3    H122645   0.187   3.568   3.295 -0.1194 -1.8000  0.2078
  410TIP3    H222646   0.249   3.650   3.406  0.0775  0.2144 -1.3325
  411TIP3   OH222647   6.052   1.363  17.350 -0.6564  0.0875 -0.4520
  411TIP3    H122648   6.146   1.380  17.359 -0.6227  1.6025 -2.6976
  411TIP3    H222649   6.025   1.329  17.435  1.5604  1.4021  0.8811
  412TIP3   OH222650   1.912   1.568   2.673  0.2535 -0.4710  0.4073
  412TIP3    H122651   1.855   1.491   2.675  0.0013 -0.2873  0.2179
  412TIP3    H222652   1.871   1.631   2.732 -0.9285  0.4996 -1.3770
  413TIP3   OH222653   1.018   3.270   2.239 -0.3958 -0.0858 -0.4361
  413TIP3    H122654   1.093   3.229   2.283 -0.6383 -0.0795 -0.0040
  413TIP3    H222655   1.030   3.364   2.254  0.0773 -0.0037 -1.2920
  414TIP3   OH222656   2.758   0.017  15.641  0.1328 -0.3875  0.4413
  414TIP3    H122657   2.842   0.014  15.687 -0.1061 -1.0840  0.8477
  414TIP3    H222658   2.781   0.008  15.549  0.5979  0.8242  0.4209
  415TIP3   OH222659   4.239   5.455  11.857  0.3727  0.0962 -0.1936
  415TIP3    H122660   4.293   5.459  11.936 -2.1159 -1.4450  1.7589
  415TIP3    H222661   4.211   5.545  11.842  0.4116  0.3326  1.0568
  416TIP3   OH222662   1.239   0.104  14.897  0.3679 -0.3321 -0.1008
  416TIP3    H122663   1.310   0.062  14.944  0.6335  1.8086  1.5664
  416TIP3    H222664   1.283   0.157  14.830  0.1473 -1.0784 -0.8602
  417TIP3   OH222665   2.678   2.811   1.237  0.5619 -0.1309  0.0641
  417TIP3    H122666   2.741   2.883   1.233  0.8085 -0.3217  0.3996
  417TIP3    H222667   2.633   2.812   1.152  0.3721  0.5864  0.1722
  418TIP3   OH222668   5.022   4.080   4.857  0.3458 -0.1838 -0.0946
  418TIP3    H122669   5.075   4.153   4.825  1.2225 -1.0735 -0.7246
  418TIP3    H222670   5.049   4.069   4.949  1.9450 -1.1778 -0.6353
  419TIP3   OH222671   5.885   6.679   2.471  0.0778  0.4495  0.0738
  419TIP3    H122672   5.884   6.586   2.495 -0.0623 -0.4047 -2.8291
  419TIP3    H222673   5.814   6.688   2.407  1.6676  1.9539 -1.5911
  420TIP3   OH222674   5.666   0.323  14.042  0.1126  0.3477 -0.0360
  420TIP3    H122675   5.574   0.347  14.034  0.3066  1.1057 -0.0476
  420TIP3    H222676   5.705   0.351  13.959  0.2665 -0.3691 -0.2077
  421TIP3   OH222677   5.857   3.825  15.350  0.2156 -0.1134 -0.5008
  421TIP3    H122678   5.880   3.916  15.366 -0.4842 -0.0609  0.2790
  421TIP3    H222679   5.926   3.775  15.394  0.5463  0.0442 -0.8456
  422TIP3   OH222680   1.648   2.837  12.776  0.3196  0.1187  0.6078
  422TIP3    H122681   1.688   2.915  12.816 -0.4361  0.0691  1.4906
  422TIP3    H222682   1.666   2.766  12.838  0.2531 -0.2315  0.2313
  423TIP3   OH222683   6.388   5.468   6.321 -0.5325 -0.4065  0.0439
  423TIP3    H122684   6.387   5.403   6.250 -2.5476  0.9689 -1.2923
  423TIP3    H222685   6.336   5.428   6.390 -0.7625 -0.7051 -0.2982
  424TIP3   OH222686   0.865   5.700  12.350 -0.1253  0.2171  0.1534
  424TIP3    H122687   0.940   5.716  12.292 -1.4772 -0.4574 -1.8739
  424TIP3    H222688   0.818   5.627  12.309 -1.4898  0.1105  1.7991
  425TIP3   OH222689   1.089   1.789   1.072  0.1786  0.0996 -0.0182
  425TIP3    H122690   1.157   1.799   1.139 -1.6088  3.1243  1.5615
  425TIP3    H222691   1.064   1.696   1.076  3.3470 -0.8707  0.0620
  426TIP3   OH222692   3.971   0.899   3.121 -0.6143  0.2633 -0.3127
  426TIP3    H122693   3.944   0.960   3.051 -0.0487  0.9653  0.0621
  426TIP3    H222694   4.025   0.953   3.179 -2.6980  0.2250  1.7629
  427TIP3   OH222695   4.536   4.920   4.686 -0.1390 -0.0327 -0.1593
  427TIP3    H122696   4.576   4.897   4.602  0.7670 -0.0334  0.2629
  427TIP3    H222697   4.601   4.894   4.751 -1.2373 -0.8995  0.6056
  428TIP3   OH222698   3.986   4.444  12.012 -0.3639  0.3952  0.2640
  428TIP3    H122699   4.042   4.405  11.945 -0.2872 -0.1187  0.6227
  428TIP3    H222700   3.985   4.380  12.083  0.1164  1.2355  1.0501
  429TIP3   OH222701   4.188   4.197  13.920  0.3429 -0.3491 -0.1495
  429TIP3    H122702   4.139   4.191  14.002 -2.1029 -1.9507 -1.6037
  429TIP3    H222703   4.188   4.291  13.899 -1.1514 -0.1753  0.5052
  430TIP3   OH222704   2.919   5.712   4.227  0.1874 -0.0587  0.0164
  430TIP3    H122705   2.911   5.621   4.256 -0.4705 -0.2458 -0.7232
  430TIP3    H222706   2.950   5.705   4.136 -0.8735  0.4130 -0.3967
  431TIP3   OH222707   6.402   6.632  14.981 -0.1043  0.5159 -0.3308
  431TIP3    H122708   6.476   6.683  14.948  1.1047 -1.5834 -1.0842
  431TIP3    H222709   6.409   6.548  14.935 -2.7524  0.1079 -0.1083
  432TIP3   OH222710   3.048   5.095   3.192  0.0762  0.4140  0.2390
  432TIP3    H122711   2.984   5.135   3.133 -0.6949 -1.3229 -0.1550
  432TIP3    H222712   3.121   5.157   3.193 -0.8586  1.5878 -0.6963
  433TIP3   OH222713   3.081   1.669  12.476 -0.1261  0.2537 -0.4283
  433TIP3    H122714   3.136   1.705  12.546 -0.5962  1.9093 -0.8527
  433TIP3    H222715   3.143   1.632  12.413  0.3721 -0.0348  0.2239
  434TIP3   OH222716   2.953   3.088   3.310  0.1318 -0.1392 -0.3008
  434TIP3    H122717   2.930   3.063   3.220 -3.1074  0.2325  0.3045
  434TIP3    H222718   3.030   3.035   3.330 -0.8301 -2.5272 -2.2929
  435TIP3   OH222719   5.949   5.429  16.587 -0.1443 -0.4648  0.0275
  435TIP3    H122720   5.951   5.364  16.516  0.8451 -1.7102  1.1434
  435TIP3    H222721   5.856   5.443  16.603 -0.3780 -1.1811 -0.6280
  436TIP3   OH222722   6.514   2.688  15.723 -0.3700  0.3330 -0.2681
  436TIP3    H122723   6.517   2.698  15.819 -0.8413 -2.3718  0.1006
  436TIP3    H222724   6.533   2.776  15.690  1.0047  1.1128  2.2878
  437TIP3   OH222725   3.337   0.408  12.819 -0.1858  0.1948  0.0032
  437TIP3    H122726   3.245   0.393  12.842  0.6340 -2.2495  2.1832
  437TIP3    H222727   3.384   0.400  12.902  2.2670 -1.2806 -1.4216
  438TIP3   OH222728   1.262   0.167  16.924 -0.0649  0.2857 -0.3097
  438TIP3    H122729   1.313   0.184  16.845 -1.4007  0.6018 -1.1324
  438TIP3    H222730   1.225   0.253  16.948  0.0357  0.1250  0.4470
  439TIP3   OH222731   1.979   1.009  11.871 -0.2301 -0.0576 -0.1417
  439TIP3    H122732   1.884   1.021  11.879 -0.4132 -1.3391 -0.1596
  439TIP3    H222733   1.998   1.034  11.781 -0.9964 -2.2063 -0.9682
  440TIP3   OH222734   0.144   2.055  11.813  1.1505  0.1419  0.2102
  440TIP3    H122735   0.112   1.966  11.802 -3.2170  1.4661  0.1259
  440TIP3    H222736   0.214   2.064  11.748  0.3263 -2.5989 -1.2180
  441TIP3   OH222737   6.120   1.161  13.925  0.3317  0.0981  0.3817
  441TIP3    H122738   6.030   1.133  13.905 -0.0407  1.4227  0.1154
  441TIP3    H222739   6.164   1.081  13.953 -0.8625 -0.6243  0.2690
  442TIP3   OH222740   0.236   5.307  15.699  0.4657  0.2659  0.0242
  442TIP3    H122741   0.312   5.290  15.756 -0.0567 -0.1540  0.6023
  442TIP3    H222742   0.274   5.316  15.612  1.0005 -2.0674 -0.0545
  443TIP3   OH222743   2.590   2.689   4.022  0.5862  0.4691  0.3303
  443TIP3    H122744   2.507   2.642   4.030  1.0635 -0.2719  1.1646
  443TIP3    H222745   2.655   2.629   4.059  1.5635  0.8654 -0.6820
  444TIP3   OH222746   0.916   4.779  16.215  0.1906 -0.5691  0.4789
  444TIP3    H122747   0.970   4.745  16.144  0.8603 -1.6821  1.5044
  444TIP3    H222748   0.903   4.871  16.192 -1.4561 -1.3353 -2.2432
  445TIP3   OH222749   0.853   6.519   3.241  0.7779 -0.2526 -0.9516
  445TIP3    H122750   0.835   6.519   3.335 -0.4157  0.3801 -1.1623
  445TIP3    H222751   0.936   6.566   3.232  1.2645 -0.9286 -0.1674
  446TIP3   OH222752   3.724   2.651   0.677  0.0095 -0.2203 -0.0050
  446TIP3    H122753   3.638   2.684   0.652 -0.5270 -1.1663  0.5459
  446TIP3    H222754   3.719   2.639   0.772  0.2159 -1.7377 -0.1577
  447TIP3   OH222755   5.443   0.323  13.318  0.2300  0.1446  0.3766
  447TIP3    H122756   5.377   0.372  13.269 -1.2494 -2.5499 -0.4967
  447TIP3    H222757   5.502   0.391  13.351 -2.0866  2.5632 -0.0715
  448TIP3   OH222758   0.476   2.512   2.008  0.4153  0.0819  0.0357
  448TIP3    H122759   0.528   2.591   1.994  1.1464 -0.3273  0.3861
  448TIP3    H222760   0.428   2.499   1.926 -0.0892  1.1501  0.1421
  449TIP3   OH222761   1.791   1.516  13.685 -0.1386 -0.1847 -0.0911
  449TIP3    H122762   1.781   1.537  13.592 -2.2195  1.8295  0.4730
  449TIP3    H222763   1.830   1.595  13.723  0.9720 -1.1016  0.7323
  450TIP3   OH222764   1.972   3.697   0.342 -0.0061 -0.0170 -0.7679
  450TIP3    H122765   2.019   3.772   0.308  0.3241 -0.1800 -0.6714
  450TIP3    H222766   1.890   3.696   0.292  0.0764  0.2816 -0.9135
  451TIP3   OH222767   1.022   0.630  11.785 -0.7732 -0.3145 -0.3647
  451TIP3    H122768   1.007   0.724  11.796  1.6759  0.0852  0.1550
  451TIP3    H222769   1.041   0.619  11.692  3.9722  0.7295  0.1869
  452TIP3   OH222770   5.049   1.010   0.404 -0.2859  0.3041 -0.7859
  452TIP3    H122771   5.104   1.026   0.481 -1.4741  2.4907 -0.3125
  452TIP3    H222772   4.978   0.954   0.435 -0.1133  0.1866 -0.6027
  453TIP3   OH222773   1.812   2.485   0.570 -0.2784  0.2982  0.0505
  453TIP3    H122774   1.896   2.510   0.608  0.1086  0.8216 -1.1232
  453TIP3    H222775   1.792   2.555   0.508 -0.9645 -0.4746 -0.6189
  454TIP3   OH222776   5.548   4.307  16.143  0.5301  0.0035  0.4180
  454TIP3    H122777   5.555   4.402  16.144  0.4278  0.0179 -0.0148
  454TIP3    H222778   5.529   4.285  16.051  0.5742 -0.4328  0.5107
  455TIP3   OH222779   4.234   3.169   4.129 -0.0066  0.2889  0.8372
  455TIP3    H122780   4.329   3.169   4.140  0.3121 -0.6698 -1.4913
  455TIP3    H222781   4.207   3.258   4.153  1.7197  1.1345 -0.1824
  456TIP3   OH222782   4.740   6.088   3.873  0.1631  0.8450 -0.0422
  456TIP3    H122783   4.688   6.022   3.828  0.8213 -0.8429  1.5380
  456TIP3    H222784   4.676   6.150   3.908 -0.5650  0.3839 -0.5323
  457TIP3   OH222785   3.685   1.990   1.085 -0.0799  0.7079 -0.2280
  457TIP3    H122786   3.655   1.940   1.160  1.5471 -0.9778 -0.6073
  457TIP3    H222787   3.766   1.945   1.058  0.4199  2.4337 -1.7760
  458TIP3   OH222788   6.325   3.256   2.210 -0.1253  0.1527  0.1324
  458TIP3    H122789   6.413   3.248   2.245 -0.3003 -0.9765  0.3406
  458TIP3    H222790   6.306   3.170   2.172 -1.3369  0.2034  0.5780
  459TIP3   OH222791   0.509   4.041   4.014  0.1999 -0.1877 -0.2975
  459TIP3    H122792   0.599   4.017   3.993 -0.2655 -0.8494 -1.6129
  459TIP3    H222793   0.459   4.021   3.935 -0.8927  1.4311 -0.0788
  460TIP3   OH222794   1.427   0.316   5.692  0.1553  0.4947  0.2011
  460TIP3    H122795   1.345   0.366   5.688 -1.3120 -1.8491 -1.2945
  460TIP3    H222796   1.458   0.313   5.601  2.0162  1.4196  0.7536
  461TIP3   OH222797   2.900   2.026   5.250 -0.0859 -0.1404  0.0906
  461TIP3    H122798   2.869   2.086   5.183  0.0176  0.8393  0.9049
  461TIP3    H222799   2.841   1.951   5.244  0.9804 -0.9009 -2.2793
  462TIP3   OH222800   5.878   1.951  14.831 -0.4349  0.7578  0.1311
  462TIP3    H122801   5.969   1.976  14.816  0.3931 -0.7292  2.1789
  462TIP3    H222802   5.843   2.020  14.887  0.1006  0.3036  1.0521
  463TIP3   OH222803   1.799   5.370  11.728  0.5492  0.3547 -0.1605
  463TIP3    H122804   1.837   5.395  11.643  0.5148 -0.3103 -0.3739
  463TIP3    H222805   1.789   5.453  11.775 -0.7553  0.8934 -1.3450
  464TIP3   OH222806   0.941   4.767  14.261  0.3133  0.1908  0.1051
  464TIP3    H122807   0.919   4.830  14.193  0.7288 -0.2368 -0.4388
  464TIP3    H222808   1.014   4.807  14.308  1.7858 -0.6116 -1.3663
  465TIP3   OH222809   3.771   4.511   4.760  0.0392  0.0298 -0.1059
  465TIP3    H122810   3.850   4.550   4.723 -0.2379  0.7073  0.0030
  465TIP3    H222811   3.706   4.519   4.691 -0.2255  0.4537  0.1898
  466TIP3   OH222812   4.225   6.098  16.498 -0.2239 -0.0255  0.5322
  466TIP3    H122813   4.265   6.183  16.478 -0.5634  0.1897  0.7494
  466TIP3    H222814   4.296   6.035  16.487 -0.6827 -0.1348 -2.7390
  467TIP3   OH222815   5.532   3.214  15.036  0.0956  0.1637 -0.3678
  467TIP3    H122816   5.443   3.179  15.029  0.7848 -1.4323 -1.8776
  467TIP3    H222817   5.555   3.202  15.129 -1.5843  1.5515  0.2782
  468TIP3   OH222818   0.351   5.826  10.352  0.6239  0.0207 -0.1729
  468TIP3    H122819   0.314   5.746  10.316 -0.4363 -0.1788  1.3059
  468TIP3    H222820   0.394   5.799  10.433  0.0009  0.9565  0.4966
  469TIP3   OH222821   5.044   1.574  15.106 -0.0319  0.4752  0.9974
  469TIP3    H122822   5.073   1.665  15.097  0.2017  0.2597 -0.9225
  469TIP3    H222823   4.976   1.564  15.039 -2.7142  0.1971  3.5607
  470TIP3   OH222824   3.715   0.594  14.333 -0.1837  0.0801  0.0020
  470TIP3    H122825   3.648   0.537  14.372  1.4283 -0.4245  2.2110
  470TIP3    H222826   3.737   0.656  14.402 -0.7420  2.4564 -1.8276
  471TIP3   OH222827   2.682   0.598   0.505 -0.1689  0.5862  0.6635
  471TIP3    H122828   2.750   0.600   0.572  0.0046  1.8869  0.4671
  471TIP3    H222829   2.630   0.677   0.520 -0.8941  0.2467  0.0360
  472TIP3   OH222830   6.370   3.567  15.156 -0.4148 -0.1053  0.2139
  472TIP3    H122831   6.360   3.473  15.167  0.9122 -0.3011 -0.1308
  472TIP3    H222832   6.456   3.578  15.116 -0.9874  1.1918 -0.7526
  473TIP3   OH222833   6.178   4.130   6.042 -0.0047  0.8449 -0.0762
  473TIP3    H122834   6.187   4.210   6.094  1.7183  1.7110 -1.5860
  473TIP3    H222835   6.210   4.061   6.099 -1.1912  1.2441  1.1288
  474TIP3   OH222836   3.778   1.728   4.602  0.0900 -0.3324  0.8444
  474TIP3    H122837   3.733   1.764   4.525  1.0156  0.3448  0.6013
  474TIP3    H222838   3.849   1.675   4.565  0.6214  0.1024  1.2282
  475TIP3   OH222839   3.307   1.393  15.773 -0.0771  0.0078  0.0264
  475TIP3    H122840   3.314   1.487  15.784  0.7931 -0.1538  1.0602
  475TIP3    H222841   3.238   1.367  15.833 -1.3214  0.1288 -1.2928
  476TIP3   OH222842   4.617   1.783   5.888 -0.9490 -0.8088 -0.5249
  476TIP3    H122843   4.541   1.724   5.886 -0.8485 -0.9630 -3.5901
  476TIP3    H222844   4.606   1.839   5.811  3.2121 -2.4179 -2.5896
  477TIP3   OH222845   1.219   1.858  14.295  0.1543  0.6764  0.1147
  477TIP3    H122846   1.230   1.785  14.355 -1.3787 -0.7538 -1.2580
  477TIP3    H222847   1.160   1.918  14.342 -2.5273 -1.2575 -0.5102
  478TIP3   OH222848   5.334   5.701   2.317  0.3553  0.1972 -0.2849
  478TIP3    H122849   5.291   5.626   2.357  0.3862  0.4067  0.1436
  478TIP3    H222850   5.425   5.672   2.303  0.0997 -0.2273 -1.1464
  479TIP3   OH222851   5.188   0.166  15.863 -0.1103  0.0708 -0.2550
  479TIP3    H122852   5.152   0.152  15.775  1.8652 -2.0925 -0.8260
  479TIP3    H222853   5.112   0.164  15.921 -1.2861 -0.4129 -1.7437
  480TIP3   OH222854   4.420   6.435   1.469 -0.1949  0.6200  0.5535
  480TIP3    H122855   4.427   6.474   1.556  0.1349 -2.1985  1.8800
  480TIP3    H222856   4.508   6.444   1.432  0.7603 -1.4844  2.1103
  481TIP3   OH222857   6.460   4.081   2.870 -0.0605 -0.0717  0.0028
  481TIP3    H122858   6.443   3.988   2.882  1.6309 -0.2029  1.9768
  481TIP3    H222859   6.480   4.113   2.958 -1.5356  2.3886 -0.4696
  482TIP3   OH222860   5.536   0.672  16.026 -0.5979  0.2427  0.2800
  482TIP3    H122861   5.623   0.641  16.050 -1.2548 -1.5409  0.4960
  482TIP3    H222862   5.538   0.675  15.930 -0.6446 -0.9917  0.2151
  483TIP3   OH222863   2.731   3.000  11.955 -0.3849 -0.0179  1.4050
  483TIP3    H122864   2.660   3.061  11.974 -0.6973 -0.2016  0.8483
  483TIP3    H222865   2.808   3.040  11.995  0.1663  2.5469 -1.8125
  484TIP3   OH222866   4.025   0.755   3.825  0.3176  0.1930 -0.2475
  484TIP3    H122867   3.940   0.712   3.832  0.1188  0.7353  0.8996
  484TIP3    H222868   4.005   0.844   3.797  0.3803  0.6811  1.1738
  485TIP3   OH222869   4.896   1.096  15.598  0.3295  0.1943  0.0262
  485TIP3    H122870   4.977   1.148  15.607  0.2540  0.1948  0.7778
  485TIP3    H222871   4.920   1.025  15.538  0.9970 -0.0023  0.5067
  486TIP3   OH222872   4.291   6.373  13.434 -0.4677  0.2656  0.2651
  486TIP3    H122873   4.370   6.339  13.393  0.9445  1.1045  2.1504
  486TIP3    H222874   4.224   6.307  13.414  0.8117 -0.7429 -0.9189
  487TIP3   OH222875   0.260   0.159  14.622  0.1055  0.5592 -0.9082
  487TIP3    H122876   0.294   0.168  14.711  1.2120 -0.1700 -1.2305
  487TIP3    H222877   0.303   0.229  14.573  2.1038 -1.0243 -1.5590
  488TIP3   OH222878   5.811   1.132   4.521 -0.2026 -0.4683 -0.0399
  488TIP3    H122879   5.835   1.046   4.487  1.2839 -0.1483  0.1642
  488TIP3    H222880   5.747   1.166   4.457  0.0646 -1.2362 -0.7333
  489TIP3   OH222881   1.889   5.402  11.393 -0.3195  0.6650  0.1107
  489TIP3    H122882   1.922   5.318  11.362 -0.4370  0.8325 -0.4890
  489TIP3    H222883   1.795   5.400  11.374 -0.1101  1.4368 -1.1170
  490TIP3   OH222884   4.499   4.784  16.661  0.4266 -0.5087  0.4315
  490TIP3    H122885   4.579   4.756  16.615  0.8657  0.4360  0.5927
  490TIP3    H222886   4.466   4.857  16.608  0.6875  0.2960  1.3570
  491TIP3   OH222887   5.551   0.961   1.897 -0.2702 -0.4149 -0.6397
  491TIP3    H122888   5.509   1.043   1.871 -0.2547  0.2564  1.2974
  491TIP3    H222889   5.624   0.951   1.837 -0.6430  0.6630 -1.2963
  492TIP3   OH222890   5.562   6.284   3.610  0.0752 -0.5879 -0.0055
  492TIP3    H122891   5.470   6.311   3.610 -0.2775 -1.6766  1.3147
  492TIP3    H222892   5.571   6.225   3.536 -0.6451 -1.5334  0.6424
  493TIP3   OH222893   1.778   6.420  10.991  0.4635 -0.4044  0.2199
  493TIP3    H122894   1.793   6.391  10.901  1.3706  0.6510  0.0065
  493TIP3    H222895   1.683   6.413  11.003  0.3091 -0.3948 -0.8885
  494TIP3   OH222896   3.185   4.751   2.355 -0.3983 -0.3132  0.3617
  494TIP3    H122897   3.277   4.738   2.376 -0.6022 -0.4188  1.2202
  494TIP3    H222898   3.186   4.792   2.268  0.6284  2.7777  1.6762
  495TIP3   OH222899   2.743   0.075   6.248 -0.1648  0.4475  0.0055
  495TIP3    H122900   2.830   0.083   6.286 -0.8510 -0.6587  1.9776
  495TIP3    H222901   2.709  -0.008   6.282 -1.5822  0.3210 -1.5792
  496TIP3   OH222902   0.328   1.904   4.847  0.3631  0.5204  0.3020
  496TIP3    H122903   0.253   1.886   4.904 -0.7886  0.0550 -1.3038
  496TIP3    H222904   0.385   1.828   4.859  0.6758  0.9372  1.6360
  497TIP3   OH222905   2.816   3.651   3.602 -0.1194 -0.2196  0.4124
  497TIP3    H122906   2.906   3.640   3.633  0.5180  0.4782 -1.1074
  497TIP3    H222907   2.769   3.689   3.677  1.1588  0.6326  0.8058
  498TIP3   OH222908   4.195   4.954   3.229  0.0603 -0.4909  0.1191
  498TIP3    H122909   4.162   4.878   3.181 -0.7369 -0.8022  1.1133
  498TIP3    H222910   4.243   4.917   3.303  1.6709 -0.0247 -0.6492
  499TIP3   OH222911   6.079   4.172  14.839 -0.1672 -0.8648  0.3347
  499TIP3    H122912   6.164   4.155  14.799  0.3333  0.9869  0.5469
  499TIP3    H222913   6.025   4.098  14.811  0.9069 -0.9981 -1.5818
  500TIP3   OH222914   1.624   4.552   5.068 -0.0927  0.3556  0.1761
  500TIP3    H122915   1.718   4.538   5.066  0.1281  1.5164 -2.2062
  500TIP3    H222916   1.586   4.465   5.057  0.7588  0.0292 -0.2547
  501TIP3   OH222917   4.069   2.220   1.495  0.1415 -0.2837  0.4187
  501TIP3    H122918   4.106   2.179   1.573  1.7974 -0.0229 -0.1941
  501TIP3    H222919   4.028   2.148   1.446  3.9754 -1.6112 -1.2159
  502TIP3   OH222920   5.295   1.314  11.318  0.5354 -0.1804  0.1483
  502TIP3    H122921   5.317   1.302  11.225  1.1443 -1.1984  0.4105
  502TIP3    H222922   5.205   1.348  11.317  1.7824  3.5891 -0.9374
  503TIP3   OH222923   4.190   6.544   3.152  0.2620  0.1516 -0.4717
  503TIP3    H122924   4.095   6.535   3.144  0.1418  1.3139 -0.5788
  503TIP3    H222925   4.225   6.483   3.087 -0.3551 -1.2184  0.4243
  504TIP3   OH222926   5.299   5.690  14.995 -0.4244  0.2478  0.6409
  504TIP3    H122927   5.394   5.680  14.993 -0.4149  0.3428 -0.2975
  504TIP3    H222928   5.267   5.617  15.047 -0.0261 -1.6361 -1.6027
  505TIP3   OH222929   3.765   3.426  16.584  0.2226 -0.6513  0.2746
  505TIP3    H122930   3.684   3.416  16.534 -1.8374  1.1823  2.9284
  505TIP3    H222931   3.745   3.388  16.670  0.8256  2.9308  2.1879
  506TIP3   OH222932   6.687   3.548   6.778 -0.0191  0.2840  0.2048
  506TIP3    H122933   6.727   3.537   6.692  0.0441 -1.3085  0.4039
  506TIP3    H222934   6.644   3.634   6.775  3.3763  2.1385 -0.0160
  507TIP3   OH222935   4.183   3.295  14.311 -0.1902 -0.1775 -0.1293
  507TIP3    H122936   4.105   3.271  14.260  0.8719 -0.6261 -1.6211
  507TIP3    H222937   4.255   3.290  14.248  0.7569  2.4634  0.6223
  508TIP3   OH222938   4.695   5.933   1.173 -0.8288  0.2076 -0.2341
  508TIP3    H122939   4.779   5.942   1.128 -0.7581 -1.6051 -0.5470
  508TIP3    H222940   4.716   5.948   1.266 -0.3585  0.7461 -0.4207
  509TIP3   OH222941   3.337   6.157   1.317 -0.2921  0.0069 -1.0116
  509TIP3    H122942   3.342   6.081   1.376  1.6663  0.7343 -0.1567
  509TIP3    H222943   3.427   6.169   1.286 -0.8374  1.1286 -2.2690
  510TIP3   OH222944   2.305   4.129   0.180  0.2467 -0.2440  0.1568
  510TIP3    H122945   2.214   4.102   0.193  0.4627 -0.8047  0.5020
  510TIP3    H222946   2.357   4.056   0.213  0.8301 -0.8382 -1.9039
  511TIP3   OH222947   5.381   5.039   3.946  0.1533  0.3640  0.0351
  511TIP3    H122948   5.314   4.978   3.975  0.5598 -0.1755 -0.1341
  511TIP3    H222949   5.335   5.099   3.887 -0.1272 -0.1652 -0.2907
  512TIP3   OH222950   2.240   3.528  17.092  0.4129 -0.4260 -0.1487
  512TIP3    H122951   2.272   3.563  17.175 -0.6599 -1.3373  0.6904
  512TIP3    H222952   2.232   3.604  17.035  0.2943  0.3610  0.8855
  513TIP3   OH222953   3.836   0.621   5.330  0.2550  0.1331  0.3582
  513TIP3    H122954   3.743   0.645   5.331  0.6329  1.7526 -0.4567
  513TIP3    H222955   3.850   0.586   5.242  0.9603  2.3901 -0.4910
  514TIP3   OH222956   3.156   2.325  17.116  0.0789 -0.7702 -0.1285
  514TIP3    H122957   3.187   2.257  17.057 -1.6728 -1.5015 -0.2610
  514TIP3    H222958   3.209   2.402  17.094  0.1413 -1.2982 -1.9817
  515TIP3   OH222959   2.388   1.245  14.018  0.1314 -0.4524  0.5414
  515TIP3    H122960   2.465   1.271  13.969 -0.1731 -1.3832 -0.4872
  515TIP3    H222961   2.317   1.298  13.982  0.3607  0.7618  1.8326
  516TIP3   OH222962   4.091   1.469  13.931 -0.0714  0.8342  0.1270
  516TIP3    H122963   4.105   1.442  14.022 -0.7679  1.8245  0.5431
  516TIP3    H222964   4.069   1.562  13.936 -0.3061  0.8602 -1.0423
  517TIP3   OH222965   5.089   6.328  16.971  0.6430  0.1059  0.1860
  517TIP3    H122966   5.052   6.377  16.897  0.3520  0.1121  0.3325
  517TIP3    H222967   5.014   6.311  17.028  0.3735 -2.0971 -0.7198
  518TIP3   OH222968   6.282   6.136  13.440  0.4186 -0.1553  1.0996
  518TIP3    H122969   6.246   6.051  13.416 -0.1994  0.3825  0.0457
  518TIP3    H222970   6.368   6.116  13.475 -0.7119 -1.4417  3.3437
  519TIP3   OH222971   2.186   2.371   1.782 -0.6776 -0.2379  1.0378
  519TIP3    H122972   2.224   2.447   1.826  0.2651 -0.3182  0.3872
  519TIP3    H222973   2.121   2.408   1.722  0.0147  0.0863  0.4775
  520TIP3   OH222974   4.937   3.290   3.169 -0.2904 -0.0268 -0.5896
  520TIP3    H122975   4.922   3.385   3.163 -0.3879 -0.0419 -0.5815
  520TIP3    H222976   5.006   3.281   3.235  0.5292  0.1142 -1.3974
  521TIP3   OH222977   6.301   4.761  11.644 -0.3075 -0.3695  0.4720
  521TIP3    H122978   6.218   4.753  11.598 -0.9638  0.7819  1.3986
  521TIP3    H222979   6.285   4.723  11.730  0.1923 -0.3387  0.5842
  522TIP3   OH222980   3.905   1.183   3.342  0.4260  0.7307 -0.2732
  522TIP3    H122981   3.899   1.256   3.281 -2.2607  0.8461 -0.0108
  522TIP3    H222982   3.983   1.201   3.395  2.9708  0.5364 -3.6566
  523TIP3   OH222983   0.684   2.222  14.149 -0.3207  0.5995  0.0720
  523TIP3    H122984   0.720   2.305  14.177  0.6479 -0.0560  0.8210
  523TIP3    H222985   0.650   2.239  14.060  1.7600  1.2589 -0.6435
  524TIP3   OH222986   3.820   4.821   0.453 -0.6295 -0.4907 -0.0545
  524TIP3    H122987   3.796   4.800   0.543 -1.4363  0.2871 -0.0774
  524TIP3    H222988   3.737   4.831   0.407 -0.2253 -0.7365 -0.8565
  525TIP3   OH222989   0.845   2.432   2.746 -0.5334 -0.2910 -0.5355
  525TIP3    H122990   0.817   2.342   2.731 -1.0500 -0.4067  0.9257
  525TIP3    H222991   0.914   2.425   2.812 -2.0228  0.4930  1.1922
  526TIP3   OH222992   0.488   5.590  13.050  0.1786  0.1049  0.2057
  526TIP3    H122993   0.470   5.591  12.956  1.8154 -0.5400 -0.1470
  526TIP3    H222994   0.437   5.516  13.083 -0.5026  0.4080 -0.1391
  527TIP3   OH222995   5.846   3.594   2.611  0.4817 -0.1243 -0.1813
  527TIP3    H122996   5.898   3.565   2.687  1.1427  1.6603  0.0998
  527TIP3    H222997   5.911   3.604   2.541 -0.0059 -0.9916 -0.7638
  528TIP3   OH222998   4.616   2.282   1.981 -0.9539  0.3387 -0.0646
  528TIP3    H122999   4.556   2.217   2.017  1.8897 -1.7687  1.2020
  528TIP3    H223000   4.636   2.340   2.055 -0.0179 -0.1110  0.0448
  529TIP3   OH223001   5.415   3.671  14.962  0.3516  1.0230  0.2675
  529TIP3    H123002   5.396   3.756  14.922  0.1650  1.7922  1.9070
  529TIP3    H223003   5.509   3.658  14.948  0.3172  1.3533 -0.2742
  530TIP3   OH223004   5.962   5.084   3.529 -0.0920  0.2216 -0.4780
  530TIP3    H123005   5.956   4.988   3.531  2.3997 -0.0512  2.9604
  530TIP3    H223006   5.894   5.113   3.590  0.2428  0.5264 -0.2497
  531TIP3   OH223007   1.380   4.170   0.211  0.3202 -0.8335 -0.0224
  531TIP3    H123008   1.322   4.100   0.242  0.6985  0.1353  3.3767
  531TIP3    H223009   1.330   4.250   0.224  0.8942 -0.2610 -1.1969
  532TIP3   OH223010   3.989   6.731  13.192  0.0956  0.1124 -0.2415
  532TIP3    H123011   3.929   6.782  13.246 -1.4514 -0.5958 -1.2282
  532TIP3    H223012   4.027   6.667  13.253 -0.3912  0.3649  0.3359
  533TIP3   OH223013   5.526   0.330   1.665 -0.4218  0.3601 -0.5021
  533TIP3    H123014   5.455   0.362   1.610  0.1425  0.1356 -1.3736
  533TIP3    H223015   5.527   0.389   1.740 -0.8636  0.9907 -0.9858
  534TIP3   OH223016   1.362   4.260  14.530  0.1428 -0.0128  0.2195
  534TIP3    H123017   1.341   4.168  14.546 -2.1335  0.4242  0.0498
  534TIP3    H223018   1.449   4.272  14.570  1.3941 -2.6511 -1.4458
  535TIP3   OH223019   1.066   4.083   2.533 -0.2962  0.2138  0.2033
  535TIP3    H123020   1.000   4.014   2.532 -0.2263  0.1315 -1.1063
  535TIP3    H223021   1.140   4.045   2.581 -0.7479 -0.1295  0.6363
  536TIP3   OH223022   4.786   2.917  17.035  0.5821  0.2598  0.3945
  536TIP3    H123023   4.749   3.005  17.032 -0.8249 -0.3002 -2.6660
  536TIP3    H223024   4.715   2.862  17.069  0.7656  0.0302  0.4108
  537TIP3   OH223025   0.637   5.759  14.429 -0.1451 -0.5591 -0.3929
  537TIP3    H123026   0.639   5.793  14.518 -0.0235 -1.7871  0.1019
  537TIP3    H223027   0.550   5.782  14.397  0.2650  1.0118 -0.4393
  538TIP3   OH223028   0.219   6.141  13.081  0.1813 -0.7058 -0.1038
  538TIP3    H123029   0.214   6.096  13.165  0.3802  1.5840  1.2200
  538TIP3    H223030   0.144   6.109  13.032 -1.0055 -0.7911  1.6623
  539TIP3   OH223031   6.731   6.543   5.033 -0.0009 -0.2766  0.0744
  539TIP3    H123032   6.648   6.590   5.030 -0.6207 -1.2175  1.4173
  539TIP3    H223033   6.798   6.611   5.035 -0.7537  0.4951 -0.4320
  540TIP3   OH223034   5.511   3.100   4.372 -0.2443 -0.4014 -0.5816
  540TIP3    H123035   5.496   3.189   4.341  0.9468  0.0442  0.0804
  540TIP3    H223036   5.539   3.111   4.463 -2.5289 -1.6026  0.3505
  541TIP3   OH223037   5.404   3.188   5.791 -0.0177  0.4104  0.3725
  541TIP3    H123038   5.498   3.182   5.775 -0.3244 -0.6548 -1.3256
  541TIP3    H223039   5.384   3.111   5.844 -0.0704  0.1037 -0.0867
  542TIP3   OH223040   1.372   0.581  15.472  0.0682  0.0276  0.6184
  542TIP3    H123041   1.329   0.498  15.492  1.7301 -0.5935  1.8972
  542TIP3    H223042   1.376   0.583  15.377 -1.6328 -0.4514  0.4963
  543TIP3   OH223043   2.907   6.530  14.301  0.6909 -0.3515 -0.5407
  543TIP3    H123044   2.883   6.576  14.381  3.3952 -0.1833  0.2650
  543TIP3    H223045   2.824   6.495  14.267 -0.7486  1.0125  1.3861
  544TIP3   OH223046   1.883   3.361  16.250 -0.1201 -0.9236 -0.4487
  544TIP3    H123047   1.806   3.381  16.304 -1.3646 -0.7263 -2.2286
  544TIP3    H223048   1.934   3.301  16.304 -1.1261 -0.4797  1.0854
  545TIP3   OH223049   4.409   5.604   2.984 -0.6426  0.0503 -0.4350
  545TIP3    H123050   4.433   5.522   3.028  0.0873  0.4960  0.0232
  545TIP3    H223051   4.413   5.584   2.891  0.8915 -0.0705 -0.3571
  546TIP3   OH223052   5.471   5.456   3.411  0.0910 -0.5753 -0.1281
  546TIP3    H123053   5.551   5.440   3.463 -0.0686  0.1323  0.3483
  546TIP3    H223054   5.429   5.530   3.455 -1.4588 -1.7075  0.3634
  547TIP3   OH223055   0.232   1.369  15.454 -0.5616  0.3493  0.6577
  547TIP3    H123056   0.275   1.450  15.427  1.2021 -0.4900  0.7806
  547TIP3    H223057   0.196   1.333  15.374  1.1897 -0.1622  0.0682
  548TIP3   OH223058   5.406   3.461   2.327 -0.1904  0.2354 -0.4886
  548TIP3    H123059   5.438   3.409   2.253  0.3422 -0.9633  0.5455
  548TIP3    H223060   5.312   3.443   2.330  0.1525 -1.7306  0.5875
  549TIP3   OH223061   4.073   4.153  12.614  0.1606 -0.3949  0.0295
  549TIP3    H123062   4.090   4.153  12.520 -1.3853 -0.6986 -0.2755
  549TIP3    H223063   4.126   4.226  12.647 -0.5189  0.7940 -1.3408
  550TIP3   OH223064   1.020   2.562  11.125  0.0995 -0.0385 -0.0868
  550TIP3    H123065   0.928   2.548  11.149  0.1668  0.9664  0.7911
  550TIP3    H223066   1.066   2.569  11.208  0.8003  0.5969 -0.5220
  551TIP3   OH223067   0.287   2.018  14.775  0.2299 -0.4259  0.2591
  551TIP3    H123068   0.224   2.014  14.846  0.9299 -1.3135  0.8431
  551TIP3    H223069   0.372   2.023  14.818  0.7028 -1.5495 -0.4959
  552TIP3   OH223070   4.067   3.452   1.606  0.4137 -0.2187 -0.0906
  552TIP3    H123071   4.109   3.527   1.564  1.4456 -1.4192 -1.2909
  552TIP3    H223072   4.085   3.463   1.699 -0.3218  1.5291 -0.1198
  553TIP3   OH223073   4.428   1.464   0.388 -0.0135 -0.7084  0.4316
  553TIP3    H123074   4.482   1.398   0.344 -0.6215 -0.4547 -0.7250
  553TIP3    H223075   4.420   1.535   0.325  0.4195  0.3832  1.5698
  554TIP3   OH223076   3.874   3.561   6.053  0.4627  0.3469 -0.0826
  554TIP3    H123077   3.870   3.576   5.959 -1.7440 -1.7094 -0.4232
  554TIP3    H223078   3.925   3.480   6.063 -2.4864 -1.6660  0.0148
  555TIP3   OH223079   5.553   1.653  15.818 -0.3875  0.1509 -0.3621
  555TIP3    H123080   5.564   1.649  15.723  1.6454 -2.9336 -0.1386
  555TIP3    H223081   5.638   1.681  15.852 -0.5519 -0.4308  0.5922
  556TIP3   OH223082   1.366   5.971  16.113  0.0060  0.3127 -0.2717
  556TIP3    H123083   1.305   6.003  16.179  0.4708  1.5733 -0.4283
  556TIP3    H223084   1.453   5.982  16.152  0.1543 -1.9854  0.1695
  557TIP3   OH223085   1.120   5.543   5.384 -0.2183 -0.2734  0.1773
  557TIP3    H123086   1.043   5.505   5.425 -0.1788 -1.7840 -1.0602
  557TIP3    H223087   1.191   5.529   5.447 -0.5254 -0.8722  0.3919
  558TIP3   OH223088   4.546   6.357   5.769  0.2549 -0.7457  0.1166
  558TIP3    H123089   4.485   6.307   5.824  0.5284  2.3194  3.6169
  558TIP3    H223090   4.628   6.358   5.820  0.8838  1.3906 -0.8506
  559TIP3   OH223091   3.910   2.773  16.042 -0.2135  0.2414 -0.1089
  559TIP3    H123092   3.927   2.831  16.116 -2.9738  0.2655  0.6430
  559TIP3    H223093   3.916   2.828  15.965 -2.8488  1.6989  0.5919
  560TIP3   OH223094   1.512   5.715   1.686  0.2001 -0.0065 -0.0543
  560TIP3    H123095   1.428   5.712   1.641  0.2914 -2.8691 -0.2730
  560TIP3    H223096   1.490   5.717   1.779 -0.2311 -2.0446 -0.0570
  561TIP3   OH223097   3.412   5.939  12.574  0.0635 -0.6349 -0.0975
  561TIP3    H123098   3.347   5.890  12.625 -0.7059 -2.2567 -2.4725
  561TIP3    H223099   3.443   6.007  12.634 -2.0306 -1.3320  1.9292
  562TIP3   OH223100   0.211   3.000  13.890  0.3541 -0.0057 -0.0863
  562TIP3    H123101   0.117   2.998  13.910  0.4392  0.2450  0.3538
  562TIP3    H223102   0.252   2.949  13.960  0.6609  0.9516  0.4549
  563TIP3   OH223103   3.400   6.148   2.509 -0.2614 -0.2633 -0.7068
  563TIP3    H123104   3.447   6.142   2.592  0.5531 -1.2393 -1.2261
  563TIP3    H223105   3.320   6.096   2.523 -1.1525  1.2652  0.1204
  564TIP3   OH223106   5.535   6.685  13.102  0.5589  0.6210  0.2378
  564TIP3    H123107   5.470   6.623  13.067  0.7294  0.5350  0.0750
  564TIP3    H223108   5.603   6.629  13.140  1.0354  0.6939 -0.4844
  565TIP3   OH223109   4.267   6.329   1.054  0.0806  0.2400  0.4020
  565TIP3    H123110   4.266   6.318   1.149  1.6661 -1.5178  0.2769
  565TIP3    H223111   4.354   6.297   1.027 -1.1278 -1.4052 -1.8645
  566TIP3   OH223112   5.843   4.151  12.322  0.1216  0.5664  0.5715
  566TIP3    H123113   5.808   4.237  12.297  0.5436  0.5256 -0.1871
  566TIP3    H223114   5.778   4.088  12.290  0.7813  0.4982 -0.7183
  567TIP3   OH223115   5.140   4.611   0.385  0.4102  0.1509  0.5973
  567TIP3    H123116   5.112   4.702   0.393 -2.4230 -0.6610  0.9380
  567TIP3    H223117   5.139   4.577   0.474  1.1593 -0.3078  0.4408
  568TIP3   OH223118   4.115   2.101  12.250 -0.3986 -0.0019  0.1909
  568TIP3    H123119   4.033   2.150  12.244  0.3436  1.1850 -1.0822
  568TIP3    H223120   4.145   2.116  12.340 -1.5477 -0.4325  0.6654
  569TIP3   OH223121   4.417   0.938   5.237  0.1202 -0.0308  0.4725
  569TIP3    H123122   4.432   0.844   5.230  1.8815  0.3111 -1.1428
  569TIP3    H223123   4.474   0.976   5.170 -1.5568  2.1049  0.1518
  570TIP3   OH223124   0.992   1.549   1.726 -0.6399  0.1863  0.4389
  570TIP3    H123125   0.911   1.582   1.688 -2.5968 -2.3281  2.1310
  570TIP3    H223126   0.997   1.590   1.812 -1.6803 -1.6914  1.4615
  571TIP3   OH223127   2.572   0.504   2.633 -0.1562  0.0092  0.3261
  571TIP3    H123128   2.575   0.482   2.539  2.7150  2.5521 -0.3460
  571TIP3    H223129   2.535   0.592   2.636  0.4261  0.2295  1.4784
  572TIP3   OH223130   2.359   4.462  12.479  0.6076  0.7137 -0.7785
  572TIP3    H123131   2.301   4.511  12.420  0.2817 -1.2578 -2.1917
  572TIP3    H223132   2.445   4.468  12.438  0.3479 -0.8106 -1.5875
  573TIP3   OH223133   3.698   4.642  14.963  0.1825  0.0091  0.0465
  573TIP3    H123134   3.641   4.699  14.912 -0.8048 -1.0000 -0.0252
  573TIP3    H223135   3.732   4.698  15.032 -1.2766  0.5403  0.3723
  574TIP3   OH223136   0.940   0.146   2.186 -0.2620 -0.5895  0.5868
  574TIP3    H123137   0.935   0.133   2.281  2.8697 -0.2784  0.9191
  574TIP3    H223138   0.863   0.198   2.164 -3.0393 -3.5906  2.2873
  575TIP3   OH223139   0.744   5.928  12.438 -0.1644 -0.3105 -0.5491
  575TIP3    H123140   0.677   5.884  12.491  1.3896 -2.6683 -0.4191
  575TIP3    H223141   0.817   5.866  12.434  1.5539  1.6548 -1.7230
  576TIP3   OH223142   1.402   2.814   3.604  0.4269  0.6494  0.3613
  576TIP3    H123143   1.434   2.735   3.561  1.5636  1.8464 -1.0817
  576TIP3    H223144   1.449   2.816   3.688  1.1341  0.3281 -0.0217
  577TIP3   OH223145   1.986   5.427  13.834  0.4266  0.2321  0.3179
  577TIP3    H123146   1.925   5.477  13.888  0.5229  1.1401 -0.3990
  577TIP3    H223147   1.937   5.348  13.811  0.9285 -0.9888  3.0271
  578TIP3   OH223148   0.056   3.660   4.672  0.7926  0.3453 -0.2000
  578TIP3    H123149   0.037   3.746   4.709  0.3355 -0.2604  1.0226
  578TIP3    H223150   0.046   3.600   4.745 -0.8409 -0.9958 -1.4628
  579TIP3   OH223151   1.491   3.495   3.216 -0.1503 -0.0029  0.1390
  579TIP3    H123152   1.584   3.475   3.226  0.4044 -0.2433 -3.7638
  579TIP3    H223153   1.481   3.583   3.251  1.0538 -0.6931  2.3753
  580TIP3   OH223154   1.386   3.718   3.933 -0.6419  0.6523 -0.3843
  580TIP3    H123155   1.297   3.721   3.967 -0.7991  0.9652 -0.8122
  580TIP3    H223156   1.403   3.624   3.918  0.0411  0.3131  2.0855
  581TIP3   OH223157   3.227   6.608  16.463  0.5679  0.1500  0.3269
  581TIP3    H123158   3.273   6.671  16.519  2.6453 -0.2654 -0.8173
  581TIP3    H223159   3.269   6.524  16.482  0.1139 -0.2939 -0.5762
  582TIP3   OH223160   1.786   4.302   3.399  0.3980  0.5630  0.0029
  582TIP3    H123161   1.848   4.363   3.359  0.4766 -0.1623 -1.0111
  582TIP3    H223162   1.704   4.351   3.404  0.5207  0.8295 -0.5674
  583TIP3   OH223163   0.686   1.910   4.828  0.5347 -0.2105 -0.0332
  583TIP3    H123164   0.615   1.916   4.764 -1.1189 -1.6735  1.5563
  583TIP3    H223165   0.665   1.975   4.895 -0.7959 -2.2738  1.7065
  584TIP3   OH223166   0.158   3.923  16.350  0.6227  0.2368 -0.3823
  584TIP3    H123167   0.247   3.896  16.326  1.8759  2.9543  0.7822
  584TIP3    H223168   0.151   4.012  16.317 -0.8808  0.8356  1.3886
  585TIP3   OH223169   1.323   1.808   1.249 -0.0807  0.0372  0.4921
  585TIP3    H123170   1.329   1.827   1.343  0.6618 -2.0338  0.9136
  585TIP3    H223171   1.411   1.825   1.216 -0.2701  0.4851  0.1973
  586TIP3   OH223172   6.582   4.125  14.247 -0.3243 -0.4312 -0.4653
  586TIP3    H123173   6.540   4.072  14.180  2.8470 -1.7623 -1.5849
  586TIP3    H223174   6.558   4.215  14.225  0.3696 -0.8410 -3.2802
  587TIP3   OH223175   6.750   3.958   2.520 -0.3472  0.1566  0.3059
  587TIP3    H123176   6.725   4.029   2.461 -0.8640 -1.0074 -0.9464
  587TIP3    H223177   6.836   3.930   2.488 -1.1097 -1.2083 -0.6665
  588TIP3   OH223178   1.784   3.073  13.327  0.2757  0.7218  0.0265
  588TIP3    H123179   1.843   3.045  13.257  0.6969  1.3699  0.1193
  588TIP3    H223180   1.756   3.160  13.302 -0.6331  0.4287 -0.0016
  589TIP3   OH223181   5.395   6.694  15.181 -0.0642  0.2136  0.7290
  589TIP3    H123182   5.323   6.747  15.215 -1.1769  2.1914 -3.8908
  589TIP3    H223183   5.354   6.628  15.126  1.5162  0.1223 -0.4423
  590TIP3   OH223184   4.381   1.756  10.938 -0.2483  0.1387 -0.1727
  590TIP3    H123185   4.296   1.770  10.980  0.1022 -0.7606  0.8782
  590TIP3    H223186   4.444   1.758  11.010  0.5120 -0.1792 -0.8178
  591TIP3   OH223187   5.875   1.897  15.338 -0.4018  0.2304  0.1016
  591TIP3    H123188   5.857   1.827  15.275 -1.2323 -0.2070  0.8072
  591TIP3    H223189   5.908   1.852  15.415  0.4026  0.7452  0.0670
  592TIP3   OH223190   1.847   2.181   5.453  0.0954 -0.4678  0.7124
  592TIP3    H123191   1.889   2.101   5.422  2.3766  1.1556 -0.6214
  592TIP3    H223192   1.916   2.229   5.498 -1.1393  0.9091  1.2274
  593TIP3   OH223193   1.297   3.750   1.270 -0.0268  0.3914 -0.3541
  593TIP3    H123194   1.295   3.725   1.178  0.6435 -2.5126  0.3169
  593TIP3    H223195   1.208   3.734   1.301  0.0427  0.2032 -0.2478
  594TIP3   OH223196   3.173   2.569   1.203 -0.4743  0.1662 -0.1163
  594TIP3    H123197   3.154   2.658   1.174  0.6424  0.1828 -0.8448
  594TIP3    H223198   3.256   2.576   1.250 -0.1884 -0.5534 -0.5015
  595TIP3   OH223199   3.729   2.118  14.807  0.3874  0.6349  0.1586
  595TIP3    H123200   3.791   2.056  14.847  1.1654  0.5661 -1.1082
  595TIP3    H223201   3.752   2.202  14.846  1.8944  0.7683 -0.9286
  596TIP3   OH223202   1.721   4.168   1.395 -0.8434  0.2809 -0.3037
  596TIP3    H123203   1.685   4.131   1.314 -2.2220  0.2495  0.2995
  596TIP3    H223204   1.720   4.263   1.380 -2.2201  0.3499  0.0984
  597TIP3   OH223205   4.593   4.547   1.579  0.2750  0.0033  0.0295
  597TIP3    H123206   4.662   4.583   1.523  0.6343 -2.0637 -0.9575
  597TIP3    H223207   4.640   4.501   1.648 -0.1745  1.4528  1.3517
  598TIP3   OH223208   4.325   1.896  15.967 -0.1536  0.0145  0.0066
  598TIP3    H123209   4.298   1.922  15.879 -1.6342  1.1368  0.7543
  598TIP3    H223210   4.278   1.955  16.026  0.3005 -1.1227  1.5951
  599TIP3   OH223211   2.433   3.192  13.484 -0.3211  0.3024 -0.1139
  599TIP3    H123212   2.376   3.178  13.559 -0.4996  0.4442 -0.2206
  599TIP3    H223213   2.487   3.267  13.509 -0.2064  0.1897 -0.0269
  600TIP3   OH223214   3.021   3.465   2.567  0.2080  0.0203  0.4724
  600TIP3    H123215   3.077   3.494   2.496  0.6618 -0.3181  0.6858
  600TIP3    H223216   2.988   3.546   2.606  0.2238  0.2136  0.0906
  601TIP3   OH223217   2.845   5.287   3.840 -0.0312  0.6199 -0.1670
  601TIP3    H123218   2.794   5.322   3.913  0.4141  0.4248  0.2427
  601TIP3    H223219   2.857   5.361   3.781 -0.9861  0.6097 -0.3824
  602TIP3   OH223220   0.517   3.756  16.660 -0.5111  0.2207  0.1374
  602TIP3    H123221   0.465   3.769  16.740 -0.1038  1.3943  0.2413
  602TIP3    H223222   0.570   3.678  16.678 -1.3823 -0.3049  0.4817
  603TIP3   OH223223   5.617   6.448   1.990  0.4736 -0.2866 -0.4905
  603TIP3    H123224   5.649   6.524   1.941 -0.1409  0.1869 -0.1844
  603TIP3    H223225   5.611   6.378   1.926 -1.1182  0.5445 -1.3265
  604TIP3   OH223226   5.571   5.899   6.147 -0.4736 -0.0287  0.5339
  604TIP3    H123227   5.604   5.962   6.210  1.3397 -1.5459  1.1602
  604TIP3    H223228   5.538   5.826   6.199 -1.8856  0.0306 -0.2033
  605TIP3   OH223229   1.594   6.476  15.230 -0.2416 -0.0340 -0.0924
  605TIP3    H123230   1.638   6.554  15.196 -0.9084  0.1094 -0.6709
  605TIP3    H223231   1.584   6.419  15.154 -0.2996 -0.4243  0.2040
  606TIP3   OH223232   0.343   3.981  14.849 -0.3521 -0.2197 -0.2579
  606TIP3    H123233   0.319   4.073  14.842  0.1466 -0.1782 -2.3087
  606TIP3    H223234   0.414   3.979  14.912  0.3384  0.9884 -0.9530
  607TIP3   OH223235   5.700   0.013   1.473  0.5487 -0.0614 -0.1374
  607TIP3    H123236   5.710   0.097   1.429  0.3225  0.7037  1.2441
  607TIP3    H223237   5.750  -0.048   1.419  0.0797  0.7820 -1.5900
  608TIP3   OH223238   0.084   4.810  11.138 -0.2299 -0.3922 -0.2550
  608TIP3    H123239   0.074   4.788  11.231 -0.9619  0.7888 -0.0259
  608TIP3    H223240   0.178   4.810  11.123 -0.1433 -1.6152  0.2218
  609TIP3   OH223241   5.856   5.689   4.930 -0.1335 -0.5655 -0.8157
  609TIP3    H123242   5.908   5.755   4.976 -0.6499 -0.6041 -0.1603
  609TIP3    H223243   5.801   5.739   4.870 -1.6650 -0.2065  0.7771
  610TIP3   OH223244   0.736   2.667  14.017  0.0546 -0.1425  0.2545
  610TIP3    H123245   0.705   2.604  13.952  0.8836 -0.1509 -0.1540
  610TIP3    H223246   0.762   2.744  13.966 -0.0552  0.1614  0.6546
  611TIP3   OH223247   0.972   4.491  16.763  0.7035 -0.2893  0.7431
  611TIP3    H123248   1.045   4.506  16.703  1.0851 -1.7712  0.7990
  611TIP3    H223249   1.007   4.430  16.829 -0.6144 -1.1532  0.6786
  612TIP3   OH223250   4.015   6.743   0.897 -0.1369 -0.7100 -0.3067
  612TIP3    H123251   4.016   6.703   0.810 -1.3822 -0.1523 -0.5965
  612TIP3    H223252   4.006   6.837   0.880  2.1011 -0.3179  0.3774
  613TIP3   OH223253   1.117   6.373  14.179 -0.1412 -0.3354  0.6751
  613TIP3    H123254   1.127   6.373  14.274 -0.4363 -0.5177  0.7086
  613TIP3    H223255   1.029   6.408  14.164 -1.0744 -2.5012  0.5996
  614TIP3   OH223256   2.363   2.408  16.366  0.3089 -0.3120 -0.1427
  614TIP3    H123257   2.372   2.484  16.309 -0.4730  0.6158  0.9210
  614TIP3    H223258   2.289   2.359  16.331  1.1950 -0.9677 -1.2004
  615TIP3   OH223259   1.477   3.273  12.296  0.0068 -0.1042 -0.0988
  615TIP3    H123260   1.425   3.193  12.300 -0.6358  0.3228  0.2029
  615TIP3    H223261   1.471   3.301  12.205  1.1250 -0.9646 -0.4703
  616TIP3   OH223262   3.015   5.938   6.201  0.0043 -0.8062  0.4172
  616TIP3    H123263   3.073   5.987   6.260 -0.2370  1.1407 -0.8958
  616TIP3    H223264   2.938   5.919   6.254  0.0191  0.4352  0.9066
  617TIP3   OH223265   6.046   3.974   0.551 -0.0323 -0.2504  0.1604
  617TIP3    H123266   6.064   3.932   0.467 -0.5877 -2.2196  0.9504
  617TIP3    H223267   6.127   3.964   0.601 -0.3372 -0.9302  0.5413
  618TIP3   OH223268   3.887   3.667  12.900  0.0593 -0.0211  0.0259
  618TIP3    H123269   3.950   3.685  12.970 -0.5665  1.1601  0.3183
  618TIP3    H223270   3.802   3.690  12.938 -0.3406  0.1753 -0.9526
  619TIP3   OH223271   4.986   6.726   0.676 -0.2205 -0.6584 -0.2826
  619TIP3    H123272   5.004   6.667   0.749  1.1651 -0.0797 -0.1356
  619TIP3    H223273   4.950   6.669   0.608  0.8480 -1.6482 -0.0493
  620TIP3   OH223274   3.773   1.478  16.918  0.2724 -0.0025 -0.3883
  620TIP3    H123275   3.681   1.483  16.944  0.4331 -1.2882  0.5499
  620TIP3    H223276   3.806   1.568  16.925 -0.3164  0.1002  1.6486
  621TIP3   OH223277   0.002   6.052  17.344  0.1871  0.1938  0.5485
  621TIP3    H123278   0.019   6.020  17.256 -0.0746  1.4769  0.0189
  621TIP3    H223279  -0.077   6.004  17.372 -0.9398  1.2474 -0.7157
  622TIP3   OH223280   4.192   5.844  15.566 -0.6845  0.0301 -0.0227
  622TIP3    H123281   4.247   5.891  15.504  1.5202 -1.2665  0.8055
  622TIP3    H223282   4.196   5.753  15.537 -0.7879 -0.3703  1.1583
  623TIP3   OH223283   0.067   5.716   4.050 -0.0067 -0.1197 -0.2882
  623TIP3    H123284   0.058   5.660   3.974 -3.1857 -0.8378  0.5045
  623TIP3    H223285   0.078   5.656   4.124 -0.2778  0.4254  0.2104
  624TIP3   OH223286   5.862   3.747   1.874 -0.1364  0.0061  0.6854
  624TIP3    H123287   5.885   3.790   1.956  0.1731  2.0680 -0.4185
  624TIP3    H223288   5.766   3.755   1.869 -0.1572 -0.1358  0.8520
  625TIP3   OH223289   3.894   5.786   1.032  0.2606  0.0630  0.6175
  625TIP3    H123290   3.920   5.698   1.005  0.9725  0.5840 -0.4560
  625TIP3    H223291   3.919   5.791   1.125 -1.2563 -1.3880  1.1471
  626TIP3   OH223292   2.952   1.606  13.724 -0.2466  0.9116 -0.8819
  626TIP3    H123293   2.948   1.583  13.631  0.3389 -1.1307 -0.4631
  626TIP3    H223294   2.971   1.523  13.768 -0.0634  1.9109  1.0296
  627TIP3   OH223295   1.818   4.086  15.419  0.0659  1.0983 -0.2940
  627TIP3    H123296   1.899   4.109  15.373 -0.1890  0.9745 -0.8138
  627TIP3    H223297   1.845   4.075  15.511  1.2021 -1.7601 -0.8578
  628TIP3   OH223298   4.447   5.213  12.808 -0.8263 -0.0261  0.0271
  628TIP3    H123299   4.362   5.219  12.850 -1.2616 -3.1460 -0.1971
  628TIP3    H223300   4.502   5.277  12.854 -3.4597  2.8108 -0.4914
  629TIP3   OH223301   3.921   3.904  12.439 -0.0273  0.3674  0.0172
  629TIP3    H123302   3.933   3.957  12.518  1.3181 -1.5451  1.1781
  629TIP3    H223303   3.970   3.824  12.457 -0.8231 -0.6850 -2.2402
  630TIP3   OH223304   5.462   3.088   1.694 -0.4378 -0.0795  0.1036
  630TIP3    H123305   5.462   3.179   1.662 -0.9495  0.1122  0.6287
  630TIP3    H223306   5.554   3.063   1.697 -0.1116  1.1434  1.9644
  631TIP3   OH223307   5.624   5.616  12.132 -0.4165  0.3124  0.3986
  631TIP3    H123308   5.661   5.633  12.218 -0.6826 -0.7217  0.7308
  631TIP3    H223309   5.533   5.647  12.138  0.1801  2.3803 -0.2596
  632TIP3   OH223310   4.414   6.003  12.632 -0.6822  0.1970  0.0999
  632TIP3    H123311   4.384   5.912  12.630  2.1597 -0.8333 -0.8194
  632TIP3    H223312   4.381   6.041  12.551  0.1781 -0.8037 -0.7476
  633TIP3   OH223313   6.729   5.071  16.533 -0.0618  0.2496 -0.2017
  633TIP3    H123314   6.687   4.997  16.577  0.0957 -0.9060 -1.9075
  633TIP3    H223315   6.697   5.148  16.581 -0.6052 -0.8610  1.3226
  634TIP3   OH223316   3.100   6.424  16.214  0.8737  0.4724 -0.0969
  634TIP3    H123317   3.062   6.345  16.252  2.0402 -1.1868 -2.1707
  634TIP3    H223318   3.025   6.483  16.204 -0.6913 -1.5767 -1.3930
  635TIP3   OH223319   4.980   3.880   4.663 -1.4015  0.3318  0.4083
  635TIP3    H123320   4.887   3.869   4.643 -1.5894  1.9379  0.2324
  635TIP3    H223321   4.983   3.955   4.722 -0.2980 -0.4195  1.3536
  636TIP3   OH223322   2.322   4.135  14.561 -1.1291 -0.1792 -0.2181
  636TIP3    H123323   2.309   4.151  14.654  1.0559 -0.7062  0.2266
  636TIP3    H223324   2.411   4.165  14.543 -0.9105 -1.5805 -1.7605
  637TIP3   OH223325   2.623   0.757   1.378  0.1110  0.0956 -0.2866
  637TIP3    H123326   2.609   0.735   1.470 -1.0685  0.4779 -0.3661
  637TIP3    H223327   2.669   0.681   1.342 -0.3747 -0.5151  0.3623
  638TIP3   OH223328   6.627   5.449   0.045  0.6501 -0.2058  0.2485
  638TIP3    H123329   6.621   5.369  -0.007  0.3743 -0.7936  1.1666
  638TIP3    H223330   6.602   5.422   0.134 -1.1303  1.2356  0.2426
  639TIP3   OH223331   6.437   1.593   4.769 -0.6884 -0.4693  0.2226
  639TIP3    H123332   6.515   1.642   4.795 -0.9255 -0.3907  0.7956
  639TIP3    H223333   6.408   1.548   4.849 -2.5150  1.2685  0.6397
  640TIP3   OH223334   5.291   6.189  12.650 -0.0635  0.2397  0.7766
  640TIP3    H123335   5.300   6.283  12.666 -0.1592  0.3034  0.4736
  640TIP3    H223336   5.198   6.172  12.659 -0.5490  0.7672 -2.1194
  641TIP3   OH223337   3.706   6.550  15.644  0.4898 -0.2832 -0.6361
  641TIP3    H123338   3.637   6.531  15.709  0.7617 -0.4600 -0.3962
  641TIP3    H223339   3.725   6.465  15.605 -0.9392  0.0749 -2.2471
  642TIP3   OH223340   1.459   3.176   6.932 -0.3296 -0.1844 -0.7121
  642TIP3    H123341   1.523   3.197   6.865 -0.0541 -1.8017 -0.9868
  642TIP3    H223342   1.378   3.160   6.884 -0.4599 -0.0571 -0.5358
  643TIP3   OH223343   6.494   1.547   2.927  0.0104 -0.0847 -0.7006
  643TIP3    H123344   6.503   1.621   2.986 -0.5687  2.0364 -3.0883
  643TIP3    H223345   6.401   1.546   2.904  0.1882 -0.9647 -1.4601
  644TIP3   OH223346   2.192   0.880  12.634  0.2428 -0.6230 -0.1050
  644TIP3    H123347   2.215   0.905  12.545 -0.2761  0.3977  0.0292
  644TIP3    H223348   2.241   0.799  12.650  0.0365 -1.0415 -1.4458
  645TIP3   OH223349   3.410   3.135   2.950  0.2594 -0.4100 -0.2491
  645TIP3    H123350   3.339   3.078   2.921  0.7533 -0.2360 -1.8724
  645TIP3    H223351   3.490   3.084   2.934  0.5822 -0.1118  0.3724
  646TIP3   OH223352   0.930   0.661  15.407  0.4792 -0.0824 -0.2019
  646TIP3    H123353   0.977   0.597  15.352 -2.0828 -0.5698 -1.9893
  646TIP3    H223354   0.926   0.740  15.353 -0.3941  0.0745  0.0873
  647TIP3   OH223355   6.480   2.995  14.003 -0.0498 -0.3700 -0.0427
  647TIP3    H123356   6.416   3.022  14.069 -1.0834 -0.5498 -0.9398
  647TIP3    H223357   6.513   2.911  14.036  0.2602  0.0650  0.7831
  648TIP3   OH223358   2.469   1.368  13.330 -0.1088 -0.0169  0.5367
  648TIP3    H123359   2.389   1.335  13.289  0.9273 -1.7737 -0.1705
  648TIP3    H223360   2.502   1.433  13.269  0.3659 -1.1923 -0.5197
  649TIP3   OH223361   4.144   0.275  17.366  0.1893 -0.7106  0.2564
  649TIP3    H123362   4.202   0.287  17.291  1.0499  0.6599  1.0844
  649TIP3    H223363   4.057   0.298  17.334  0.8356  1.9349  0.1156
  650TIP3   OH223364   5.230   1.836   4.275  0.3993 -0.4753 -0.1779
  650TIP3    H123365   5.249   1.800   4.361 -0.8552 -1.1116 -0.1481
  650TIP3    H223366   5.185   1.918   4.293  0.2290 -0.5580 -0.2254
  651TIP3   OH223367   2.942   3.143  11.691  0.2025  0.7127 -0.6638
  651TIP3    H123368   2.901   3.120  11.608  0.7135 -1.6950 -0.3208
  651TIP3    H223369   2.869   3.158  11.751 -0.3133 -2.3877 -0.3551
  652TIP3   OH223370   4.561   3.194  15.816 -0.2084  0.0644  0.4575
  652TIP3    H123371   4.577   3.132  15.887 -1.5659 -0.4052  0.3825
  652TIP3    H223372   4.597   3.277  15.848 -0.2197 -0.2866  1.4186
  653TIP3   OH223373   0.220   3.560   1.727  0.2081  0.3122  0.0909
  653TIP3    H123374   0.264   3.493   1.674  0.3569 -0.3050  0.9776
  653TIP3    H223375   0.246   3.643   1.686 -1.1967 -0.1943 -1.9457
  654TIP3   OH223376   0.902   1.994  11.221  0.3491  0.5684  0.4054
  654TIP3    H123377   0.816   1.974  11.258  0.7286 -0.9178  0.5319
  654TIP3    H223378   0.961   1.932  11.263  1.5539  1.7479  0.5300
  655TIP3   OH223379   6.683   4.034   3.350 -0.6067 -0.5457 -0.5580
  655TIP3    H123380   6.693   4.122   3.384  1.1309  0.7471 -3.9618
  655TIP3    H223381   6.750   3.982   3.395 -1.5321 -0.1710  1.3418
  656TIP3   OH223382   4.886   3.231  16.699  0.2466  0.0532  0.2548
  656TIP3    H123383   4.799   3.208  16.733 -0.2772  0.3084 -0.8631
  656TIP3    H223384   4.905   3.164  16.634 -0.2976  1.4099 -1.3933
  657TIP3   OH223385   0.423   3.753  16.918  0.1628 -0.1530  0.0365
  657TIP3    H123386   0.373   3.781  16.994  0.4555  2.4797 -0.6548
  657TIP3    H223387   0.507   3.724  16.954 -0.8752 -2.2741  0.9580
  658TIP3   OH223388   0.885   0.425   4.009 -0.0846 -0.1428 -0.2778
  658TIP3    H123389   0.897   0.362   3.937  1.8822 -1.1248  0.8147
  658TIP3    H223390   0.974   0.451   4.032 -0.7565  1.2266  0.8983
  659TIP3   OH223391   6.564   0.508   0.965  0.0554  0.2419  0.6685
  659TIP3    H123392   6.656   0.521   0.988  0.5168  1.4471 -1.5891
  659TIP3    H223393   6.565   0.434   0.904 -0.2003  1.3609 -0.7373
  660TIP3   OH223394   2.706   0.183  14.798  0.0772  0.2290 -0.1671
  660TIP3    H123395   2.689   0.115  14.863  1.6169 -0.2955 -0.2611
  660TIP3    H223396   2.631   0.178  14.738 -2.1437  1.7277  2.2830
  661TIP3   OH223397   0.559   0.273  15.424 -0.3067  0.2623  0.2006
  661TIP3    H123398   0.651   0.285  15.401 -0.8183  1.9766 -1.1587
  661TIP3    H223399   0.558   0.194  15.478  1.7782 -0.5257 -0.8109
  662TIP3   OH223400   4.786   2.591  11.343 -0.2235  0.9659 -0.0041
  662TIP3    H123401   4.720   2.633  11.288  0.5659  2.1040 -0.1431
  662TIP3    H223402   4.769   2.498  11.336 -1.8113  1.2377 -0.0181
  663TIP3   OH223403   6.055   4.445  13.032  0.4336 -0.1286  0.0645
  663TIP3    H123404   5.986   4.378  13.039 -0.2098  0.5124  0.0292
  663TIP3    H223405   6.062   4.481  13.120 -0.4697  0.9529 -0.2873
  664TIP3   OH223406   5.932   3.918   4.751  0.0759 -0.4301  0.2105
  664TIP3    H123407   5.985   3.838   4.747  1.3044  0.3916 -0.6286
  664TIP3    H223408   5.909   3.927   4.843  0.5612 -1.3518  0.4328
  665TIP3   OH223409   3.629   3.166  10.969 -0.3678  0.3030  0.4263
  665TIP3    H123410   3.555   3.172  10.909  0.1581  0.5018 -0.2140
  665TIP3    H223411   3.704   3.149  10.913 -0.1056 -1.2098  1.1847
  666TIP3   OH223412   3.467   4.481   4.876  0.6722 -0.3234 -0.0842
  666TIP3    H123413   3.457   4.576   4.866  0.1215 -0.4534 -0.8100
  666TIP3    H223414   3.553   4.462   4.838  1.5132  0.0904  1.5225
  667TIP3   OH223415   3.553   3.895   2.072  0.5490  0.2039  0.0215
  667TIP3    H123416   3.559   3.827   2.139 -1.5315  0.0476  0.1389
  667TIP3    H223417   3.615   3.868   2.005  2.0017 -0.1368  1.4415
  668TIP3   OH223418   3.287   4.675   0.462 -0.1341  0.1646 -0.2778
  668TIP3    H123419   3.317   4.758   0.426 -0.9523  1.3460  1.5975
  668TIP3    H223420   3.211   4.698   0.516  1.7781 -1.1185  3.3470
  669TIP3   OH223421   3.940   1.639  14.367  0.1336 -0.0899  0.1975
  669TIP3    H123422   3.873   1.692  14.322  0.2854  0.5553  0.7285
  669TIP3    H223423   3.890   1.570  14.411 -0.1188 -0.0352  0.0004
  670TIP3   OH223424   2.617   1.036  13.982 -0.2920 -0.2873  0.1209
  670TIP3    H123425   2.670   1.070  14.054  2.4740  0.5116 -2.0919
  670TIP3    H223426   2.654   1.076  13.904 -4.0470  0.0142 -1.7283
  671TIP3   OH223427   3.198   3.681   6.938  0.3314 -0.5081  0.0269
  671TIP3    H123428   3.207   3.656   6.846 -0.0414 -0.1448 -0.1133
  671TIP3    H223429   3.239   3.767   6.944 -1.2385  0.3021 -0.2115
  672TIP3   OH223430   4.961   2.942   0.094  0.1188  0.1096 -0.3422
  672TIP3    H123431   5.035   2.964   0.150 -0.7576  0.9528  0.5504
  672TIP3    H223432   4.964   3.007   0.024 -0.0361  0.4347 -0.0500
  673TIP3   OH223433   3.693   1.910   3.484  0.0640 -0.7865 -0.0821
  673TIP3    H123434   3.769   1.877   3.436  1.9454  1.2823  1.3306
  673TIP3    H223435   3.688   1.854   3.562 -1.3993 -2.4397 -1.2678
  674TIP3   OH223436   2.654   6.478   0.333  0.4274 -0.0361 -0.4361
  674TIP3    H123437   2.572   6.452   0.374 -0.5326  1.8497 -1.0156
  674TIP3    H223438   2.672   6.408   0.270 -1.8787  0.4028 -1.7521
  675TIP3   OH223439   5.778   0.742   4.679  0.3002 -0.6301  0.5519
  675TIP3    H123440   5.819   0.786   4.753  0.8733 -2.1837  1.2058
  675TIP3    H223441   5.810   0.788   4.602  0.6915  0.2210  1.2134
  676TIP3   OH223442   5.291   1.614  12.751  0.0871  0.2058 -0.0404
  676TIP3    H123443   5.323   1.543  12.696  1.2797  0.4931  0.2539
  676TIP3    H223444   5.198   1.621  12.730  0.8556  1.6572 -3.5779
  677TIP3   OH223445   6.208   4.391   4.186 -0.1704  0.0476 -0.0452
  677TIP3    H123446   6.231   4.483   4.171  0.4280 -0.3838 -2.0514
  677TIP3    H223447   6.216   4.380   4.281 -1.1477  2.2725  0.3608
  678TIP3   OH223448   4.928   2.439   0.605 -0.3864  0.6626 -0.1311
  678TIP3    H123449   5.016   2.476   0.609 -0.8122  1.6868 -0.0520
  678TIP3    H223450   4.877   2.504   0.557 -1.0083 -0.1178 -0.5483
  679TIP3   OH223451   1.405   6.392   1.449 -0.2511 -0.4847  0.7064
  679TIP3    H123452   1.329   6.450   1.452 -0.3479 -0.6020  3.7457
  679TIP3    H223453   1.472   6.438   1.499  1.7563 -0.4342 -1.8191
  680TIP3   OH223454   6.685   0.974   0.802 -0.0241 -0.3513  0.4976
  680TIP3    H123455   6.726   0.888   0.794 -0.8596 -0.9321  2.0651
  680TIP3    H223456   6.755   1.036   0.781  1.1204 -1.3676  1.1993
  681TIP3   OH223457   5.871   1.530  15.689 -0.1593 -0.9526  1.0540
  681TIP3    H123458   5.810   1.581  15.636 -0.4869  0.4523  2.6785
  681TIP3    H223459   5.887   1.450  15.638 -0.1055  0.4733 -1.3089
  682TIP3   OH223460   2.271   6.231   4.325 -0.3616  0.4112  0.0108
  682TIP3    H123461   2.298   6.163   4.264  0.9840  0.6236  0.3366
  682TIP3    H223462   2.255   6.184   4.407  0.6111  0.4624  0.2476
  683TIP3   OH223463   0.700   6.543  11.785  0.2133 -0.5642  0.4218
  683TIP3    H123464   0.763   6.601  11.742 -0.8692  0.6328  0.3825
  683TIP3    H223465   0.707   6.461  11.737  3.1185 -1.1608  1.6347
  684TIP3   OH223466   4.504   1.914  16.989 -0.4056 -0.2422 -0.2632
  684TIP3    H123467   4.461   1.918  17.074  0.4327 -1.7467  0.2630
  684TIP3    H223468   4.584   1.967  17.000  0.0991 -1.0694  0.1523
  685TIP3   OH223469   3.783   1.521  11.685 -0.3441 -0.3177 -0.2848
  685TIP3    H123470   3.875   1.536  11.708 -0.2794  0.1850 -0.8306
  685TIP3    H223471   3.787   1.471  11.603 -0.5636 -2.0938  0.7371
  686TIP3   OH223472   3.229   6.263  16.034  0.4019 -0.4627 -0.1773
  686TIP3    H123473   3.221   6.301  15.946  1.1993  1.3820  0.5004
  686TIP3    H223474   3.167   6.312  16.087  2.0705  0.5641  0.9186
  687TIP3   OH223475   5.117   6.292  11.617 -0.0348  0.1002  0.3811
  687TIP3    H123476   5.158   6.226  11.673  0.5172  1.1168  1.2118
  687TIP3    H223477   5.056   6.338  11.675 -0.0661  0.6257 -0.0606
  688TIP3   OH223478   0.900   3.999  15.288 -0.4407 -0.2624 -0.1458
  688TIP3    H123479   0.838   4.071  15.296  1.7102  1.9188 -1.5995
  688TIP3    H223480   0.966   4.017  15.355  0.7622 -0.1122 -1.3283
  689TIP3   OH223481   3.222   5.418  14.820  0.3731 -0.2258  0.5581
  689TIP3    H123482   3.255   5.377  14.900  0.1235  1.4380  1.5788
  689TIP3    H223483   3.261   5.506  14.821  1.9793 -0.7922 -2.2198
  690TIP3   OH223484   3.095   6.256   5.321 -0.0056  0.9079 -0.2021
  690TIP3    H123485   3.108   6.164   5.297  0.8721  0.9001  0.2614
  690TIP3    H223486   3.157   6.304   5.267 -1.0779  1.3338 -1.0879
  691TIP3   OH223487   0.741   0.651   2.409  0.1439  0.3958  0.2994
  691TIP3    H123488   0.787   0.695   2.338  0.0983 -0.1275 -0.0563
  691TIP3    H223489   0.743   0.714   2.481 -1.2568  1.6047 -0.6774
  692TIP3   OH223490   4.627   1.230  13.791 -0.2828 -0.3211 -0.1684
  692TIP3    H123491   4.712   1.186  13.802 -0.0789  0.3708  1.3535
  692TIP3    H223492   4.584   1.219  13.876 -2.1910 -1.5641 -1.2418
  693TIP3   OH223493   1.792   2.683  13.813  0.5090  0.0505  0.2887
  693TIP3    H123494   1.795   2.776  13.789  0.4652 -0.3846 -1.5586
  693TIP3    H223495   1.786   2.637  13.729  1.2958 -1.6673  1.1270
  694TIP3   OH223496   0.842   0.197   3.077 -0.3672 -0.3494 -0.4958
  694TIP3    H123497   0.888   0.128   3.029 -0.2712 -1.1784  0.7641
  694TIP3    H223498   0.763   0.156   3.110  0.3596 -0.2719  1.4462
  695TIP3   OH223499   5.135   0.494   0.589  0.3275  0.2011 -0.3602
  695TIP3    H123500   5.196   0.465   0.521 -0.6094 -3.4778  0.1249
  695TIP3    H223501   5.065   0.537   0.541  1.0099  0.1612 -1.4376
  696TIP3   OH223502   2.909   6.536   3.521 -0.7885 -0.1742 -0.3254
  696TIP3    H123503   2.971   6.584   3.577 -1.8608  0.7662  0.0862
  696TIP3    H223504   2.890   6.456   3.569 -0.2063 -0.2810 -0.2676
  697TIP3   OH223505   0.802   5.194   1.297 -0.2955 -0.2115 -0.0502
  697TIP3    H123506   0.871   5.146   1.343 -0.1004  0.2523  0.1482
  697TIP3    H223507   0.819   5.179   1.204 -0.1989 -0.4730  0.0106
  698TIP3   OH223508   3.683   1.101   0.708  0.3434  0.1066 -0.1052
  698TIP3    H123509   3.778   1.103   0.724  0.0187  0.8769  2.0216
  698TIP3    H223510   3.665   1.184   0.664  0.5952  0.1459 -0.1397
  699TIP3   OH223511   2.267   2.472   2.990  0.7149  0.5695  0.3311
  699TIP3    H123512   2.242   2.484   3.081 -0.5435  2.4049 -0.2029
  699TIP3    H223513   2.281   2.378   2.981  1.3701  0.4131  2.5138
  700TIP3   OH223514   4.987   4.292   3.044 -0.1286 -0.0487 -0.1134
  700TIP3    H123515   5.079   4.268   3.032 -0.1289  0.2231 -0.6808
  700TIP3    H223516   4.945   4.212   3.076  0.3117 -0.1620  0.1970
  701TIP3   OH223517   2.288   6.578   5.841 -0.0513  0.3429 -0.4093
  701TIP3    H123518   2.304   6.579   5.747  2.2032 -0.0833 -0.1043
  701TIP3    H223519   2.217   6.515   5.854  1.5170 -1.8276 -1.6377
  702TIP3   OH223520   3.442   2.693  14.876 -0.0309  0.2409  0.0597
  702TIP3    H123521   3.451   2.692  14.972 -0.9749  0.2231  0.1591
  702TIP3    H223522   3.476   2.607  14.849 -0.2904  0.0099  0.4385
  703TIP3   OH223523   1.124   3.354   5.253 -0.2409 -0.3084  0.2825
  703TIP3    H123524   1.134   3.302   5.333  1.2286  0.4539  0.6143
  703TIP3    H223525   1.178   3.431   5.267 -1.2778  0.6475 -0.7893
  704TIP3   OH223526   0.589   2.345   2.303  0.1429  0.7702 -0.4128
  704TIP3    H123527   0.547   2.404   2.365  0.4294 -1.3103  1.9362
  704TIP3    H223528   0.517   2.306   2.254 -0.5976 -0.7699  1.7295
  705TIP3   OH223529   2.750   3.278   0.088  0.2638  0.2239  0.2468
  705TIP3    H123530   2.820   3.335   0.058  0.4381 -0.5189 -0.8193
  705TIP3    H223531   2.682   3.337   0.118  2.3681  1.0401  4.0355
  706TIP3   OH223532   0.668   3.195   6.083 -0.6825 -0.0297  0.4066
  706TIP3    H123533   0.628   3.237   6.159 -1.2254 -0.5098  0.3994
  706TIP3    H223534   0.646   3.102   6.093  1.5788 -0.5539  1.1091
  707TIP3   OH223535   1.531   1.730  11.956 -0.0540 -0.2329 -0.5117
  707TIP3    H123536   1.498   1.741  11.867  0.0688 -0.0974 -0.5411
  707TIP3    H223537   1.452   1.731  12.010 -0.0293  4.3858 -0.1222
  708TIP3   OH223538   2.690   0.722   4.769 -0.2981  0.0173 -0.2080
  708TIP3    H123539   2.645   0.795   4.727  0.8215  1.2628  0.6812
  708TIP3    H223540   2.651   0.716   4.856 -0.9696 -1.0189 -0.5617
  709TIP3   OH223541   0.701   4.181   3.659 -0.0380 -0.0328 -0.1405
  709TIP3    H123542   0.761   4.116   3.624  0.0648 -0.6259  1.1045
  709TIP3    H223543   0.719   4.184   3.752 -0.4532  1.3632 -0.0767
  710TIP3   OH223544   3.749   3.044   5.299 -0.2468 -0.3179 -0.5145
  710TIP3    H123545   3.820   3.084   5.249 -1.2864  0.0411 -1.7511
  710TIP3    H223546   3.775   2.953   5.309  0.8706  0.0361 -0.0354
  711TIP3   OH223547   1.109   5.861  13.033  0.0211 -0.3081 -0.1452
  711TIP3    H123548   1.075   5.823  13.114  0.2433 -0.2552 -0.0272
  711TIP3    H223549   1.031   5.892  12.987 -0.0991 -0.2538  0.0924
  712TIP3   OH223550   1.699   1.826  10.776 -0.4383  0.3747 -0.0893
  712TIP3    H123551   1.773   1.844  10.834  0.7902  1.3992 -1.8779
  712TIP3    H223552   1.703   1.894  10.709 -2.3376 -0.2264 -0.9056
  713TIP3   OH223553   3.006   5.895   2.410  0.0772 -0.0224  0.2303
  713TIP3    H123554   2.984   5.915   2.501  0.5474  0.9283  0.1434
  713TIP3    H223555   3.098   5.871   2.412 -0.4585 -2.4054  0.3445
  714TIP3   OH223556   0.253   3.346   3.241 -0.4763  0.1590  0.3519
  714TIP3    H123557   0.201   3.318   3.316 -1.1415  0.5875  0.0517
  714TIP3    H223558   0.210   3.306   3.165 -0.0624  0.0863  0.1491
  715TIP3   OH223559   0.026   2.314   1.978 -0.3101  0.5999  0.4903
  715TIP3    H123560   0.053   2.404   1.957 -1.4189  1.3602  2.1515
  715TIP3    H223561  -0.067   2.321   1.996 -0.7567 -1.1945 -0.8599
  716TIP3   OH223562   2.011   6.539  12.540  0.2672  0.4137  0.5699
  716TIP3    H123563   2.033   6.572  12.453  1.1479 -1.2031  0.1380
  716TIP3    H223564   1.926   6.496  12.528  0.6863 -0.3819  0.3133
  717TIP3   OH223565   5.360   5.024  12.447  0.4381  0.5649  0.1886
  717TIP3    H123566   5.373   5.018  12.353  1.7074 -1.3659  0.4191
  717TIP3    H223567   5.378   5.115  12.469 -0.0633  1.0826 -1.4317
  718TIP3   OH223568   6.101   5.038  12.030 -0.5343 -0.3220 -0.5449
  718TIP3    H123569   6.082   4.973  11.963 -0.4884 -1.8227  0.8352
  718TIP3    H223570   6.177   5.003  12.077 -0.6939  0.5681  0.4110
  719TIP3   OH223571   6.673   1.915  14.192 -0.3962 -0.1491 -0.1343
  719TIP3    H123572   6.754   1.947  14.231 -0.0103 -0.5371 -0.5970
  719TIP3    H223573   6.604   1.967  14.233  0.0846  0.1641  0.2866
  720TIP3   OH223574   2.914   5.865   0.359 -0.4385 -0.0292 -0.1939
  720TIP3    H123575   2.920   5.780   0.402 -0.3000  0.2173  0.2719
  720TIP3    H223576   2.929   5.845   0.266 -2.1119 -0.7589 -0.3429
  721TIP3   OH223577   0.770   0.489   4.276  0.6028 -0.1005  0.0899
  721TIP3    H123578   0.763   0.585   4.278 -2.0899 -0.0538 -2.7304
  721TIP3    H223579   0.831   0.472   4.204 -0.9880 -0.4030 -1.2476
  722TIP3   OH223580   4.359   1.464   1.426  0.0304  0.5280  0.4866
  722TIP3    H123581   4.286   1.522   1.447  1.0095  1.3226  1.8350
  722TIP3    H223582   4.348   1.388   1.483  0.2421  0.6349  0.6704
  723TIP3   OH223583   3.323   3.700   0.991 -1.0559 -0.6193  0.2533
  723TIP3    H123584   3.377   3.631   0.951  0.4537  0.1211  0.9425
  723TIP3    H223585   3.373   3.729   1.067 -0.1103  3.3444 -1.6256
  724TIP3   OH223586   6.736   5.534  14.332  0.1492  0.2959 -0.3422
  724TIP3    H123587   6.713   5.466  14.395 -0.8045 -0.0159 -1.0005
  724TIP3    H223588   6.754   5.611  14.384 -1.1968  0.2034  0.2879
  725TIP3   OH223589   5.295   3.090   5.009 -0.4804 -0.1715 -0.5652
  725TIP3    H123590   5.202   3.070   5.019 -0.1924 -0.3544  5.1035
  725TIP3    H223591   5.336   3.004   5.000 -0.6780 -0.7616  2.7938
  726TIP3   OH223592   0.390   0.854   3.834  0.3244  0.0932 -0.3739
  726TIP3    H123593   0.330   0.780   3.830  0.1498  0.2714 -1.7899
  726TIP3    H223594   0.473   0.819   3.802 -0.2550  0.9048 -3.0231
  727TIP3   OH223595   5.651   0.392  15.592 -0.2836  0.0568 -0.1043
  727TIP3    H123596   5.700   0.328  15.540 -1.5728 -0.6448 -0.5221
  727TIP3    H223597   5.602   0.443  15.526  1.6684  2.3599  0.1190
  728TIP3   OH223598   4.240   0.590  16.230 -0.1440 -0.6074 -0.4330
  728TIP3    H123599   4.288   0.622  16.307 -0.6968 -1.3863  0.2513
  728TIP3    H223600   4.309   0.562  16.170  0.3252  1.0299 -0.6954
  729TIP3   OH223601   4.951   5.206   4.975 -0.6472  0.4760 -0.2899
  729TIP3    H123602   5.038   5.207   4.934 -0.9282  1.0243 -0.8866
  729TIP3    H223603   4.890   5.217   4.903 -1.2031  0.4248  0.1662
  730TIP3   OH223604   0.506   2.157   2.643  0.1183 -0.1617 -0.4229
  730TIP3    H123605   0.426   2.168   2.591  0.0528  1.3385 -0.0454
  730TIP3    H223606   0.497   2.220   2.715  1.8308  0.3344 -0.6075
  731TIP3   OH223607   4.602   5.352   1.760 -0.1209 -0.3838 -0.6216
  731TIP3    H123608   4.568   5.314   1.841 -0.8924  1.0052 -0.2590
  731TIP3    H223609   4.524   5.373   1.708  0.2088  1.2736 -0.5210
  732TIP3   OH223610   5.584   0.114  12.253  0.3742  0.1247  0.3779
  732TIP3    H123611   5.539   0.186  12.297 -3.5845 -0.9345 -1.5055
  732TIP3    H223612   5.638   0.156  12.186  0.8446  1.4038  1.5139
  733TIP3   OH223613   0.557   4.764   2.065  0.4429  0.1252 -0.1595
  733TIP3    H123614   0.603   4.680   2.064 -1.5711 -1.0647 -2.0154
  733TIP3    H223615   0.599   4.815   1.996 -0.5646 -0.7379 -1.4514
  734TIP3   OH223616   0.050   4.909  14.158  0.2785 -0.1251  1.1205
  734TIP3    H123617   0.020   4.963  14.231  0.8301  2.7610 -0.6340
  734TIP3    H223618   0.044   4.819  14.191 -3.2148  0.7223  3.3397
  735TIP3   OH223619   3.466   5.570   1.808  0.1064 -0.4601 -0.1317
  735TIP3    H123620   3.383   5.532   1.781  0.8456 -0.8030 -2.0936
  735TIP3    H223621   3.479   5.538   1.898 -0.9076 -2.0512 -0.5075
  736TIP3   OH223622   1.943   1.349   4.468 -0.0320 -0.5673 -0.8845
  736TIP3    H123623   1.987   1.311   4.392 -0.9483 -1.7544 -0.8594
  736TIP3    H223624   1.908   1.273   4.516 -2.0878  0.2959 -0.9159
  737TIP3   OH223625   0.105   4.098  15.554  0.2178 -0.1601 -0.2709
  737TIP3    H123626   0.064   4.019  15.518 -0.7446  0.6798 -1.0789
  737TIP3    H223627   0.079   4.099  15.646 -3.2987  1.3087 -1.1179
  738TIP3   OH223628   6.705   1.368   1.185  0.0615 -0.3271 -0.4738
  738TIP3    H123629   6.721   1.318   1.265 -0.7051 -0.8084 -0.6141
  738TIP3    H223630   6.634   1.428   1.208  2.8013  2.8492  0.6032
  739TIP3   OH223631   0.259   5.379  12.715 -0.1418  0.2949  0.2327
  739TIP3    H123632   0.185   5.437  12.694  0.3225  0.0964 -2.3113
  739TIP3    H223633   0.273   5.329  12.634  2.4170 -0.0838  0.8476
  740TIP3   OH223634   1.515   2.098  15.649  0.1263 -0.2017 -0.1396
  740TIP3    H123635   1.432   2.122  15.608  0.2976  0.7186  0.0522
  740TIP3    H223636   1.561   2.048  15.581 -0.9598 -1.5493  0.0709
  741TIP3   OH223637   4.364   3.798  11.987 -0.2014 -0.1784  0.2857
  741TIP3    H123638   4.347   3.822  11.896 -1.6979  0.7066  0.7727
  741TIP3    H223639   4.292   3.740  12.010 -0.0639 -0.0579  1.0299
  742TIP3   OH223640   4.247   1.899  16.940 -0.0884 -0.5065 -0.4145
  742TIP3    H123641   4.338   1.910  16.913 -0.2991 -0.0783 -0.9791
  742TIP3    H223642   4.242   1.810  16.975  0.4563 -0.6679 -0.7382
  743TIP3   OH223643   3.445   1.113  15.193  0.4403  0.3194 -0.0841
  743TIP3    H123644   3.516   1.136  15.253 -0.1099  0.3123  0.5823
  743TIP3    H223645   3.484   1.120  15.106  1.5909 -0.8185  0.3117
  744TIP3   OH223646   3.023   2.454  15.475 -0.2332 -0.4919 -0.1965
  744TIP3    H123647   3.015   2.468  15.381  1.9513 -0.7161 -0.4710
  744TIP3    H223648   2.962   2.382  15.494 -0.7212 -0.4230 -1.4175
  745TIP3   OH223649   1.300   0.221  13.648  0.0276  0.5264  0.2803
  745TIP3    H123650   1.380   0.183  13.611 -0.3091  0.5533 -0.4765
  745TIP3    H223651   1.258   0.266  13.575 -0.4265  0.9516  0.7905
  746TIP3   OH223652   1.220   0.741   6.079  0.7657  0.0693  0.0200
  746TIP3    H123653   1.282   0.669   6.068  2.4544  1.3473  0.7067
  746TIP3    H223654   1.267   0.818   6.047 -1.2879  0.8110 -1.4993
  747TIP3   OH223655   4.547   0.800   4.683  0.1879  0.4807 -0.4320
  747TIP3    H123656   4.507   0.843   4.758 -1.2709 -1.2595 -0.1416
  747TIP3    H223657   4.482   0.735   4.655  0.9837  0.6077 -2.7727
  748TIP3   OH223658   0.042   6.395   1.508  0.0700  0.0661 -0.5063
  748TIP3    H123659   0.105   6.461   1.478  0.2460  0.2715  0.2973
  748TIP3    H223660   0.089   6.345   1.575 -0.4471 -0.1181 -0.2724
  749TIP3   OH223661   6.125   2.548   1.230 -0.4922 -0.0600 -0.2923
  749TIP3    H123662   6.083   2.490   1.293  0.9341 -0.2439  0.5231
  749TIP3    H223663   6.066   2.624   1.225 -1.7487 -1.0260 -0.4559
  750TIP3   OH223664   0.200   4.516  15.770  0.1016 -0.2717 -0.2818
  750TIP3    H123665   0.280   4.562  15.796  0.7347 -1.6467  0.3039
  750TIP3    H223666   0.229   4.427  15.750 -0.8984 -0.1292 -2.5950
  751TIP3   OH223667   2.596   5.491   5.307  0.2565  0.1128 -0.4399
  751TIP3    H123668   2.550   5.505   5.390 -0.2843 -0.9093 -0.5557
  751TIP3    H223669   2.606   5.579   5.270 -1.2153  0.4053 -0.2022
  752TIP3   OH223670   2.086   2.190  13.514  0.1068  0.5165 -0.3689
  752TIP3    H123671   2.063   2.280  13.538 -0.7848  0.4788 -1.0179
  752TIP3    H223672   2.171   2.175  13.556  1.3291  2.3961 -1.9484
  753TIP3   OH223673   1.526   1.036  11.525 -0.0384  0.0989  0.0436
  753TIP3    H123674   1.485   1.077  11.449  1.0125 -0.1580 -0.6842
  753TIP3    H223675   1.584   0.969  11.489  1.3166  0.7069  0.9988
  754TIP3   OH223676   3.037   3.702   2.699  0.0534 -0.5111  0.4389
  754TIP3    H123677   3.081   3.742   2.774 -0.8487  0.1407  0.6308
  754TIP3    H223678   3.033   3.772   2.634  1.1677 -1.1727 -0.3878
  755TIP3   OH223679   2.842   3.593  11.888 -0.7461 -0.6015 -0.3563
  755TIP3    H123680   2.770   3.647  11.920 -1.3526 -1.8917  0.5391
  755TIP3    H223681   2.864   3.631  11.803 -0.9655  1.1881  0.3407
  756TIP3   OH223682   6.719   4.107  12.803 -0.2572 -0.0885  0.5552
  756TIP3    H123683   6.633   4.122  12.763 -0.4754  0.4641  1.2069
  756TIP3    H223684   6.767   4.188  12.789  0.2177 -0.4494  0.0644
  757TIP3   OH223685   5.126   5.382   1.100 -0.0116 -0.1568 -0.1487
  757TIP3    H123686   5.075   5.302   1.114 -0.0773 -0.4105 -1.6246
  757TIP3    H223687   5.142   5.417   1.188 -3.1705  0.2224  0.3954
  758TIP3   OH223688   6.270   2.324   2.308  0.0793  0.4677  0.5183
  758TIP3    H123689   6.237   2.235   2.299  1.7753 -0.3655  1.9985
  758TIP3    H223690   6.299   2.331   2.399  1.2558  2.0746  0.0815
  759TIP3   OH223691   6.694   1.088  11.517 -0.2452 -0.2293 -0.1116
  759TIP3    H123692   6.662   1.111  11.429 -0.6080  0.5877  0.2239
  759TIP3    H223693   6.701   0.993  11.515  0.9189 -0.1619 -1.4234
  760TIP3   OH223694   4.901   5.165  14.075 -0.2304  0.4333  0.1335
  760TIP3    H123695   4.928   5.120  14.155  0.4510  0.7345  0.0796
  760TIP3    H223696   4.841   5.233  14.104  0.0665  0.5843  0.3970
  761TIP3   OH223697   0.517   5.250  13.456 -0.0108 -0.1736 -0.1885
  761TIP3    H123698   0.603   5.209  13.443  0.6614  1.1118  0.0850
  761TIP3    H223699   0.533   5.344  13.446 -1.0968  0.2180  1.3551
  762TIP3   OH223700   0.241   5.182  14.150 -0.0469 -0.0846 -0.1332
  762TIP3    H123701   0.216   5.273  14.139 -1.0011 -0.2385  0.6061
  762TIP3    H223702   0.311   5.183  14.216 -1.5446 -0.0377  1.5340
  763TIP3   OH223703   2.578   6.417  15.143  0.6838  0.3208  0.0754
  763TIP3    H123704   2.576   6.479  15.215  0.2832  1.2401 -0.7057
  763TIP3    H223705   2.548   6.467  15.067  1.9485 -0.3784 -0.9213
  764TIP3   OH223706   2.489   6.390   3.950  0.4847 -0.1905  0.3533
  764TIP3    H123707   2.510   6.365   4.040  0.3315  1.1939  0.8034
  764TIP3    H223708   2.424   6.460   3.959 -0.3668 -0.7843 -0.8764
  765TIP3   OH223709   1.774   2.779   3.553 -0.3722 -0.7103 -0.1674
  765TIP3    H123710   1.735   2.729   3.625  2.3304  0.4009  2.2636
  765TIP3    H223711   1.840   2.721   3.516 -0.7830 -0.7663 -0.8239
  766TIP3   OH223712   3.852   5.750  11.334  0.4724 -0.3441 -0.0097
  766TIP3    H123713   3.944   5.729  11.349  0.6941  0.2016 -0.5330
  766TIP3    H223714   3.812   5.749  11.421  1.6157  2.3306  0.6331
  767TIP3   OH223715   6.004   6.227  12.754  0.1600  0.3909 -0.8276
  767TIP3    H123716   5.936   6.239  12.688 -0.4822 -0.3431 -0.3144
  767TIP3    H223717   5.973   6.155  12.809  2.0447 -0.9914 -1.4566
  768TIP3   OH223718   2.732   5.569   5.939  0.0493  0.7754 -0.2911
  768TIP3    H123719   2.708   5.556   5.847 -1.0299  0.9128 -0.0452
  768TIP3    H223720   2.697   5.491   5.983  0.0138  1.0054  0.0872
  769TIP3   OH223721   3.028   5.555   0.900  0.0039 -0.0423 -0.2062
  769TIP3    H123722   3.023   5.633   0.844 -0.4171  0.0244 -0.0737
  769TIP3    H223723   2.944   5.511   0.888 -0.6075  0.6372  1.3567
  770TIP3   OH223724   2.846   0.707  15.526  0.3824  0.1920 -0.4499
  770TIP3    H123725   2.795   0.721  15.446 -0.8986 -1.3107  0.0479
  770TIP3    H223726   2.790   0.743  15.595  1.5721  1.6792 -0.2012
  771TIP3   OH223727   3.686   5.254  14.492  0.1550 -0.0300 -0.2797
  771TIP3    H123728   3.768   5.292  14.463 -0.8431  1.8029 -0.8828
  771TIP3    H223729   3.673   5.178  14.436  1.4539 -0.3752 -0.1286
  772TIP3   OH223730   6.070   5.298   3.386 -0.7256 -0.5960  0.1802
  772TIP3    H123731   6.143   5.259   3.340  0.3443  0.7318  0.6745
  772TIP3    H223732   6.021   5.224   3.422  1.4879 -1.5108  1.5367
  773TIP3   OH223733   2.371   3.844  14.052  0.3051  0.3594 -0.6353
  773TIP3    H123734   2.419   3.925  14.068 -0.2435  0.3538  1.1311
  773TIP3    H223735   2.314   3.833  14.127  1.5851 -2.5522  0.0659
  774TIP3   OH223736   0.034   3.388   3.517  0.7700 -0.4399  0.1560
  774TIP3    H123737   0.076   3.455   3.463 -3.6432  0.4895 -2.6170
  774TIP3    H223738  -0.004   3.437   3.590  0.9393 -0.6039  0.3551
  775TIP3   OH223739   4.427   3.058   0.614 -0.4110  0.2052 -0.7709
  775TIP3    H123740   4.443   3.092   0.702 -1.0560 -1.4938  0.0512
  775TIP3    H223741   4.399   3.134   0.564  1.9180  1.6072 -0.0820
  776TIP3   OH223742   3.174   4.212   1.953 -0.0308  0.0476  0.2615
  776TIP3    H123743   3.202   4.140   2.010 -0.3536 -1.1696 -1.0601
  776TIP3    H223744   3.233   4.207   1.877 -0.4295  0.8051 -0.1114
  777TIP3   OH223745   0.471   2.663   4.334 -0.4099  0.3156  0.0487
  777TIP3    H123746   0.384   2.651   4.372  0.2571 -0.8072  1.3533
  777TIP3    H223747   0.515   2.724   4.394  0.5353 -1.1919  0.9729
  778TIP3   OH223748   0.669   0.847  12.900  0.2046  0.2309 -0.5283
  778TIP3    H123749   0.710   0.882  12.979  0.2546 -0.1339 -0.3957
  778TIP3    H223750   0.594   0.796  12.932  0.6216 -0.4809 -0.6725
  779TIP3   OH223751   0.572   4.717  16.064 -0.2049 -0.1777  0.0104
  779TIP3    H123752   0.621   4.797  16.046  0.1786 -0.5030 -0.4312
  779TIP3    H223753   0.636   4.660  16.107  0.2665 -1.1473 -1.8573
  780TIP3   OH223754   4.790   3.431  11.924 -0.0435  0.1825 -0.1644
  780TIP3    H123755   4.821   3.341  11.932  1.2865  0.6803  0.7174
  780TIP3    H223756   4.806   3.454  11.833  0.2005 -0.2702 -0.2387
  781TIP3   OH223757   1.977   5.559  11.597  0.3118 -0.2024 -0.4088
  781TIP3    H123758   1.960   5.522  11.510 -0.2194 -0.9425 -0.0007
  781TIP3    H223759   1.920   5.635  11.602  0.4492 -0.0700 -0.7520
  782TIP3   OH223760   2.565   2.326  12.415  0.2387 -0.8123 -0.1328
  782TIP3    H123761   2.556   2.384  12.340  0.4733  0.7769  1.0104
  782TIP3    H223762   2.596   2.243  12.379  0.9796  0.1161 -1.7017
  783TIP3   OH223763   5.647   2.335   2.680  0.3836 -0.1782  0.2272
  783TIP3    H123764   5.555   2.360   2.681  0.2086 -0.6290 -1.5950
  783TIP3    H223765   5.647   2.243   2.656  1.3269 -0.1729  0.1537
  784TIP3   OH223766   2.200   3.704   5.215  0.1325  0.4930  0.5974
  784TIP3    H123767   2.192   3.753   5.133  0.4470 -1.0070 -0.3744
  784TIP3    H223768   2.111   3.700   5.250 -0.2470  0.0394 -0.3671
  785TIP3   OH223769   3.987   5.253  14.387 -0.7067 -0.3872  0.0434
  785TIP3    H123770   4.067   5.232  14.340  0.9248  2.1552  1.4077
  785TIP3    H223771   3.918   5.209  14.338  1.3679 -1.7078 -1.9048
  786TIP3   OH223772   2.690   4.420  11.482 -0.3044 -0.2746  0.1238
  786TIP3    H123773   2.694   4.324  11.476  1.0335 -0.1749 -1.1795
  786TIP3    H223774   2.744   4.442  11.558 -0.3983 -0.5379  0.2682
  787TIP3   OH223775   2.685   4.187   0.055  0.6366  0.0074 -0.6694
  787TIP3    H123776   2.706   4.125   0.124  1.8639  0.1865 -0.8517
  787TIP3    H223777   2.635   4.137  -0.009 -2.7881  0.3891  1.4098
  788TIP3   OH223778   1.219   3.122  13.775  0.4037  0.2459 -0.1008
  788TIP3    H123779   1.161   3.103  13.849 -1.5303  1.1127 -1.3030
  788TIP3    H223780   1.220   3.218  13.770  1.0068  0.2069 -0.8204
  789TIP3   OH223781   5.914   4.693  17.272  0.6795 -0.2532  0.0668
  789TIP3    H123782   5.885   4.756  17.206  0.6460 -1.5679 -1.2272
  789TIP3    H223783   6.008   4.709  17.280  0.6204  0.1574 -0.0196
  790TIP3   OH223784   4.073   0.985  16.640  0.1940  0.2572 -0.7503
  790TIP3    H123785   4.159   0.946  16.625 -0.2076 -0.7492 -0.5310
  790TIP3    H223786   4.090   1.063  16.692  0.8001 -1.2427  1.4436
  791TIP3   OH223787   0.096   5.181  11.521  0.0313 -0.2021  0.1555
  791TIP3    H123788   0.158   5.121  11.478 -1.1530 -1.8854  0.6691
  791TIP3    H223789   0.043   5.217  11.450 -0.9207 -1.7950  0.0063
  792TIP3   OH223790   3.690   2.114   4.429 -0.3390  0.6937  0.4286
  792TIP3    H123791   3.737   2.113   4.512 -0.8615  0.0786  0.7281
  792TIP3    H223792   3.661   2.024   4.416  0.2501  0.6513 -0.7288
  793TIP3   OH223793   2.783   0.005  15.136 -0.3051 -0.3914 -0.4145
  793TIP3    H123794   2.815  -0.084  15.152 -1.1470 -1.2679 -3.1390
  793TIP3    H223795   2.688  -0.002  15.140 -0.3849  0.3492 -0.8410
  794TIP3   OH223796   1.358   2.574  15.747  0.3468 -0.1560 -0.5100
  794TIP3    H123797   1.344   2.517  15.822 -0.6751 -0.1684 -0.6968
  794TIP3    H223798   1.271   2.585  15.709  0.8211  0.0251 -1.5670
  795TIP3   OH223799   4.528   4.173   7.201  0.2604 -0.0907 -0.5833
  795TIP3    H123800   4.595   4.107   7.213 -1.2228 -1.6417 -0.4498
  795TIP3    H223801   4.575   4.256   7.207  1.6614 -0.9301  3.2767
  796TIP3   OH223802   3.754   3.638  15.390 -0.1691  0.0708  0.0639
  796TIP3    H123803   3.680   3.631  15.330  0.1904  0.5699 -0.4463
  796TIP3    H223804   3.732   3.712  15.447 -0.3405 -0.1687  0.3112
  797TIP3   OH223805   4.100   1.290  15.737 -0.0422 -0.1734 -0.8681
  797TIP3    H123806   4.142   1.267  15.820 -0.7146  0.5450 -0.3232
  797TIP3    H223807   4.170   1.279  15.672 -0.1190 -3.1323 -0.6014
  798TIP3   OH223808   4.106   3.500  13.561  0.4489  0.4134 -0.2955
  798TIP3    H123809   4.041   3.479  13.494 -0.3714  1.4313  0.1502
  798TIP3    H223810   4.165   3.561  13.517 -0.8686  2.1601  0.2515
  799TIP3   OH223811   0.289   3.034  12.442  0.2851 -0.1938 -0.4917
  799TIP3    H123812   0.253   2.948  12.422  0.9379 -0.2039 -1.7200
  799TIP3    H223813   0.357   3.017  12.508 -0.7838 -0.3696  0.6060
  800TIP3   OH223814   2.766   4.026   5.933  0.7424  1.1583 -0.2615
  800TIP3    H123815   2.706   4.094   5.901 -1.5397 -0.1421  1.0323
  800TIP3    H223816   2.756   3.954   5.871  1.2179  1.0322 -0.1967
  801TIP3   OH223817   4.035   0.619  15.868 -0.1050 -0.2107 -0.7919
  801TIP3    H123818   4.069   0.702  15.899 -1.8905  1.7374 -3.5840
  801TIP3    H223819   3.948   0.612  15.908  1.0405 -2.2610  1.6506
  802TIP3   OH223820   1.948   1.145   2.265  0.4815  0.6524  0.5402
  802TIP3    H123821   2.022   1.184   2.312  1.5913  0.1482 -0.7264
  802TIP3    H223822   1.873   1.157   2.324  1.3852  1.9514  1.4908
  803TIP3   OH223823   6.195   3.951   3.014 -0.1658 -0.1874 -0.2156
  803TIP3    H123824   6.255   3.914   3.079 -1.2172 -1.0317  0.3101
  803TIP3    H223825   6.226   3.916   2.930  2.6055  2.6997 -0.5897
  804TIP3   OH223826   5.803   0.126   3.956 -0.1001 -0.2145  0.0238
  804TIP3    H123827   5.898   0.130   3.952 -0.1868  1.3695 -1.0293
  804TIP3    H223828   5.783   0.033   3.950  1.4280 -0.7539  2.1330
  805TIP3   OH223829   3.713   5.834   1.361 -0.4734 -0.2392  0.4603
  805TIP3    H123830   3.696   5.757   1.415 -2.0698 -1.1703 -1.2852
  805TIP3    H223831   3.786   5.808   1.305 -1.1585 -0.5892 -0.2845
  806TIP3   OH223832   6.366   6.304  11.407 -0.1435 -0.0906  0.2495
  806TIP3    H123833   6.282   6.341  11.380  0.2899  1.1065  0.4773
  806TIP3    H223834   6.343   6.234  11.467 -1.1075 -2.2460 -2.4303
  807TIP3   OH223835   4.321   0.812   4.930  0.2939  0.9138 -0.1936
  807TIP3    H123836   4.239   0.825   4.977  0.5846  1.2308  0.2331
  807TIP3    H223837   4.318   0.721   4.900 -0.9225  1.3587 -1.5788
  808TIP3   OH223838   3.591   6.380   3.889 -0.1496 -0.1046 -0.1746
  808TIP3    H123839   3.662   6.326   3.923 -0.0348 -0.0954 -0.3947
  808TIP3    H223840   3.591   6.458   3.944 -0.4507 -0.4176  0.2789
  809TIP3   OH223841   4.359   4.677  12.158  0.2426 -0.0133 -0.5221
  809TIP3    H123842   4.306   4.669  12.237  1.1362  1.0886  0.2182
  809TIP3    H223843   4.353   4.591  12.116 -1.2893 -0.2178  0.0531
  810TIP3   OH223844   3.078   3.403   1.330 -0.1116  0.3628  0.1987
  810TIP3    H123845   3.071   3.487   1.376  1.8532  2.6311 -3.2494
  810TIP3    H223846   3.162   3.367   1.359 -0.2893  0.2653  0.6044
  811TIP3   OH223847   2.841   3.758   0.707 -0.6166  0.0910 -0.5668
  811TIP3    H123848   2.795   3.683   0.744 -0.7831  0.2238 -0.5039
  811TIP3    H223849   2.772   3.820   0.683 -0.4369  0.6706  0.3530
  812TIP3   OH223850   0.888   4.351   2.794  0.4700  0.1380  0.6576
  812TIP3    H123851   0.932   4.299   2.861 -2.2914 -0.7443  1.9383
  812TIP3    H223852   0.887   4.295   2.716  1.2328  0.0118  0.7365
  813TIP3   OH223853   6.306   6.658  11.514  0.5569 -0.5230  0.1281
  813TIP3    H123854   6.338   6.604  11.587  0.2776  0.0992  0.7208
  813TIP3    H223855   6.287   6.595  11.445 -0.9644 -1.3342  1.2315
  814TIP3   OH223856   1.477   1.146   2.689  0.1309 -0.2821  0.2047
  814TIP3    H123857   1.418   1.160   2.614  0.2070 -0.5995  0.0870
  814TIP3    H223858   1.420   1.116   2.759  0.2293 -1.1375 -0.0730
  815TIP3   OH223859   0.347   1.593   0.228 -0.0061  0.1865  0.5238
  815TIP3    H123860   0.258   1.570   0.203  0.2897 -0.9744  0.4760
  815TIP3    H223861   0.386   1.510   0.256  1.6937  0.2691 -1.3570
  816TIP3   OH223862   4.485   0.328  16.301 -0.5132 -0.0140 -0.1139
  816TIP3    H123863   4.478   0.418  16.269  0.6418  0.1794  0.1209
  816TIP3    H223864   4.457   0.333  16.393  2.4321  0.7556  0.8450
  817TIP3   OH223865   2.538   0.657  16.159  0.0581 -0.2965 -0.4449
  817TIP3    H123866   2.547   0.575  16.111 -1.8402  0.1637 -1.6804
  817TIP3    H223867   2.569   0.724  16.098 -3.3471  0.4081 -1.6006
  818TIP3   OH223868   4.389   0.825   3.844  0.3103  0.4651 -0.2277
  818TIP3    H123869   4.403   0.795   3.754 -0.2452  1.9707 -0.8389
  818TIP3    H223870   4.410   0.748   3.898  0.5803 -0.4853 -1.6304
  819TIP3   OH223871   4.566   3.738   0.736 -0.6853  0.0402 -0.3233
  819TIP3    H123872   4.581   3.758   0.828 -1.9840  0.3131 -0.1478
  819TIP3    H223873   4.576   3.823   0.692 -1.1328  0.1186 -0.2787
  820TIP3   OH223874   2.027   6.522  17.292 -0.3211  0.4358  0.0514
  820TIP3    H123875   1.989   6.434  17.288  0.4594  0.0946 -0.1367
  820TIP3    H223876   2.001   6.564  17.211 -0.4358  0.2685  0.0006
  821TIP3   OH223877   3.539   2.347   0.327 -0.6204 -0.2070  0.6132
  821TIP3    H123878   3.537   2.441   0.347  0.5458 -0.1783  0.6759
  821TIP3    H223879   3.527   2.304   0.411 -1.0519 -0.1139  0.6005
  822TIP3   OH223880   0.721   2.019   3.509 -0.1922  0.1111  0.0090
  822TIP3    H123881   0.737   2.107   3.475  1.1303  0.4020  1.2533
  822TIP3    H223882   0.636   2.025   3.553 -0.9911  0.2390 -1.5067
  823TIP3   OH223883   5.871   5.814  16.360 -0.0404 -0.2472 -0.1397
  823TIP3    H123884   5.793   5.823  16.306  0.6541 -1.1099 -1.3336
  823TIP3    H223885   5.839   5.823  16.450 -1.7270 -1.8331 -0.5228
  824TIP3   OH223886   0.493   6.181   2.839 -0.6458 -0.6641  0.0807
  824TIP3    H123887   0.556   6.253   2.838 -1.1493 -0.1065  2.2866
  824TIP3    H223888   0.409   6.223   2.855 -1.4291 -1.5197 -1.5244
  825TIP3   OH223889   5.968   1.559   3.037  0.3347 -0.6768 -0.1638
  825TIP3    H123890   5.985   1.634   2.980 -0.2608 -0.0280  0.4890
  825TIP3    H223891   5.880   1.529   3.013 -0.0516 -0.1999  0.6144
  826TIP3   OH223892   1.644   2.079   5.825 -0.5593  0.8006 -0.2078
  826TIP3    H123893   1.588   2.134   5.879 -0.5676 -1.2036  1.9709
  826TIP3    H223894   1.733   2.097   5.855 -0.3296  1.3928 -1.2008
  827TIP3   OH223895   5.399   2.730   1.722 -0.0316 -0.0238  0.3029
  827TIP3    H123896   5.391   2.808   1.778  0.4774  0.6902 -0.5998
  827TIP3    H223897   5.429   2.661   1.782 -2.5452 -0.1163  1.5604
  828TIP3   OH223898   0.620   0.794  11.615  0.4838  0.0552 -0.6205
  828TIP3    H123899   0.656   0.823  11.531  1.5582 -0.9152 -0.5152
  828TIP3    H223900   0.639   0.866  11.676  0.3319  0.4584 -1.0461
  829TIP3   OH223901   2.869   1.863  12.465  0.5342  0.0819 -0.1621
  829TIP3    H123902   2.791   1.846  12.412 -0.3916  0.5915  0.9808
  829TIP3    H223903   2.912   1.778  12.472 -3.2004 -1.8931  4.2404
  830TIP3   OH223904   0.864   5.177  11.451 -0.0490 -0.2975 -0.5169
  830TIP3    H123905   0.849   5.239  11.380  0.8775  0.2924 -0.2214
  830TIP3    H223906   0.921   5.110  11.413 -0.1387 -0.3701 -0.5241
  831TIP3   OH223907   0.236   1.249   2.783 -0.1496 -0.1373 -0.5503
  831TIP3    H123908   0.235   1.326   2.840 -2.2580  0.1336 -0.8685
  831TIP3    H223909   0.171   1.190   2.822  1.5773 -1.8894 -0.1839
  832TIP3   OH223910   6.602   3.687   0.889 -0.2144 -0.2804  0.0495
  832TIP3    H123911   6.667   3.627   0.925 -0.1928  0.9523  2.2678
  832TIP3    H223912   6.617   3.686   0.794  0.9359 -2.3580  0.2005
  833TIP3   OH223913   6.574   5.417  12.654  0.0790 -0.6367 -0.0838
  833TIP3    H123914   6.617   5.346  12.703 -0.2869 -1.9701 -1.6139
  833TIP3    H223915   6.486   5.421  12.692  0.8108  0.6262  1.5834
  834TIP3   OH223916   0.503   2.861   0.164  0.2096  0.0765  0.0696
  834TIP3    H123917   0.523   2.846   0.071 -0.5132 -0.0544 -0.0762
  834TIP3    H223918   0.588   2.874   0.205  0.6819 -1.5818 -0.3059
  835TIP3   OH223919   4.097   4.862  14.008 -0.5174 -0.2801  0.5235
  835TIP3    H123920   4.093   4.779  14.054 -0.2625 -0.5022  0.1487
  835TIP3    H223921   4.053   4.847  13.924  2.2282 -0.9848 -0.9368
  836TIP3   OH223922   5.933   3.697  16.669 -0.7429  0.5477 -0.1055
  836TIP3    H123923   6.024   3.713  16.643 -0.6173  0.6054  0.3682
  836TIP3    H223924   5.881   3.748  16.606 -0.4552  0.3848 -0.4743
  837TIP3   OH223925   1.107   1.374   5.358  0.3195  0.5204 -0.1250
  837TIP3    H123926   1.040   1.442   5.359  0.3832  0.5873 -0.3394
  837TIP3    H223927   1.155   1.386   5.439 -0.3635  0.0336  0.3679
  838TIP3   OH223928   3.460   6.086  16.823 -0.3910 -0.1631 -0.3515
  838TIP3    H123929   3.532   6.025  16.808 -0.4027 -0.7910  1.7961
  838TIP3    H223930   3.439   6.121  16.736  3.3317  1.0638 -0.9308
  839TIP3   OH223931   5.977   6.481  11.957  0.9511  0.0076  0.5993
  839TIP3    H123932   6.055   6.532  11.933  2.7276 -1.6945  2.4179
  839TIP3    H223933   5.918   6.546  11.994  1.4103  1.3599 -0.8825
  840TIP3   OH223934   5.953   1.327   5.883  0.2094 -0.3383 -0.2649
  840TIP3    H123935   5.879   1.379   5.914  0.6176 -0.3319  0.7244
  840TIP3    H223936   5.994   1.293   5.962  0.7323 -1.0908 -0.8405
  841TIP3   OH223937   5.331   2.383   4.380  0.5029  0.1804  0.6651
  841TIP3    H123938   5.390   2.377   4.455  0.8693  0.6263  0.4152
  841TIP3    H223939   5.368   2.451   4.325 -1.0972  1.6104  1.2684
  842TIP3   OH223940   1.134   1.342   3.892 -0.7071 -0.4216 -0.6461
  842TIP3    H123941   1.181   1.292   3.825 -0.5639 -2.0964  0.6358
  842TIP3    H223942   1.167   1.307   3.975 -0.5011  1.9329  0.3386
  843TIP3   OH223943   1.572   3.775  16.761 -0.4171 -0.2729 -0.2567
  843TIP3    H123944   1.541   3.741  16.845 -0.6961  0.2159 -0.1576
  843TIP3    H223945   1.557   3.704  16.699 -1.5198 -0.1318 -0.1643
  844TIP3   OH223946   4.846   0.091   3.278 -0.2921  0.0956 -0.6306
  844TIP3    H123947   4.935   0.122   3.263  0.4805  0.6796  3.7174
  844TIP3    H223948   4.854  -0.004   3.281  0.2447  0.1442 -0.2262
  845TIP3   OH223949   2.722   6.095   5.094 -0.1836  0.4989 -0.2903
  845TIP3    H123950   2.663   6.146   5.149 -0.1676 -0.4096  0.5899
  845TIP3    H223951   2.681   6.094   5.007 -0.8588  0.8562  0.0258
  846TIP3   OH223952   6.619   1.081  13.969 -0.2454 -0.8093  0.1498
  846TIP3    H123953   6.553   1.065  14.037 -0.5900 -0.0841 -0.0100
  846TIP3    H223954   6.679   1.144  14.009 -1.1431  0.5932 -0.6419
  847TIP3   OH223955   6.626   0.405  11.975 -0.0936  0.2101 -0.3541
  847TIP3    H123956   6.550   0.458  12.001  1.8178  1.7867  2.4972
  847TIP3    H223957   6.657   0.447  11.894 -0.2451  1.7704  0.3612
  848TIP3   OH223958   0.328   0.293  11.236  0.5803  0.1548 -0.6581
  848TIP3    H123959   0.320   0.385  11.212 -0.6644  0.8116  1.9616
  848TIP3    H223960   0.245   0.254  11.209 -0.8707  0.9200  2.3116
  849TIP3   OH223961   6.113   5.575  13.738  0.6529  0.3425 -0.2421
  849TIP3    H123962   6.186   5.597  13.681  0.5256  0.3625 -0.4012
  849TIP3    H223963   6.112   5.480  13.741 -0.0643  0.2934 -1.2483
  850TIP3   OH223964   4.314   0.866  14.943  0.1569  0.3672 -0.7215
  850TIP3    H123965   4.240   0.901  14.992  1.0459  0.6309  0.4800
  850TIP3    H223966   4.363   0.814  15.007  1.1382  0.3860 -1.4270
  851TIP3   OH223967   3.394   0.520  13.495  0.7512 -0.3434  0.1551
  851TIP3    H123968   3.475   0.541  13.448  0.4332  0.2028 -0.1630
  851TIP3    H223969   3.420   0.517  13.587  1.3629 -1.3235 -0.0422
  852TIP3   OH223970   5.329   5.633  11.816 -0.3176  0.0398  0.2795
  852TIP3    H123971   5.286   5.682  11.746  1.6146  1.2861 -0.1046
  852TIP3    H223972   5.308   5.542  11.797 -0.6763  0.4208 -1.3369
  853TIP3   OH223973   3.489   5.353   1.304  0.1841  0.4226  0.5572
  853TIP3    H123974   3.510   5.411   1.231  0.4981  1.8750  1.7575
  853TIP3    H223975   3.398   5.372   1.324 -0.1424 -0.5606  0.0401
  854TIP3   OH223976   6.588   3.727   0.079 -0.4259  0.4656  0.4825
  854TIP3    H123977   6.566   3.639   0.047 -0.2758  0.2323  1.0045
  854TIP3    H223978   6.645   3.763   0.011  1.1701 -0.6192  1.1657
  855TIP3   OH223979   2.165   3.135  12.240 -0.7318 -0.6448 -0.3264
  855TIP3    H123980   2.120   3.110  12.320  1.1664 -0.4253  0.8643
  855TIP3    H223981   2.192   3.051  12.202  1.5577 -0.6945  1.2354
  856TIP3   OH223982   4.155   5.810   6.656 -0.4203  0.2094  0.0756
  856TIP3    H123983   4.090   5.744   6.631 -0.6316  0.5788 -0.3557
  856TIP3    H223984   4.108   5.869   6.715  0.0077 -0.5121  1.1862
  857TIP3   OH223985   3.808   3.540  11.120 -0.2586  0.5411  0.4294
  857TIP3    H123986   3.765   3.536  11.034  1.1696  0.2019 -0.2948
  857TIP3    H223987   3.901   3.527  11.101  0.1085  0.6749  2.0167
  858TIP3   OH223988   1.862   1.502  10.599 -0.0827  0.2858  0.0644
  858TIP3    H123989   1.777   1.544  10.585  1.4620  3.0396 -2.1780
  858TIP3    H223990   1.901   1.549  10.673 -0.0297 -0.1272  0.3013
  859TIP3   OH223991   0.218   1.792   0.588  0.0858  0.7027  0.2001
  859TIP3    H123992   0.188   1.703   0.572  1.2706  0.6286 -1.9026
  859TIP3    H223993   0.147   1.848   0.557 -1.2977  0.5806  2.8551
  860TIP3   OH223994   6.410   0.994  16.730 -0.0712 -0.0263 -0.3015
  860TIP3    H123995   6.395   0.927  16.664 -0.2302  0.6405 -0.9587
  860TIP3    H223996   6.357   1.069  16.701 -0.2018  0.2472  0.6244
  861TIP3   OH223997   0.186   3.571  11.936 -0.3628 -0.3831 -0.0053
  861TIP3    H123998   0.169   3.502  12.000 -3.1239  0.3499  0.1924
  861TIP3    H223999   0.131   3.644  11.964  2.0748  1.7926 -0.4813
  862TIP3   OH224000   1.012   6.692  15.508  0.3197  0.3744 -0.0964
  862TIP3    H124001   1.007   6.762  15.574  0.4245 -0.9517  1.3656
  862TIP3    H224002   1.098   6.703  15.468  1.0035  0.1330  1.2510
  863TIP3   OH224003   1.309   5.081   1.026  0.3464  0.0657  0.1823
  863TIP3    H124004   1.287   5.116   0.939 -0.8371 -0.7771  0.1063
  863TIP3    H224005   1.327   4.988   1.010 -1.5829 -0.5110  1.0270
  864TIP3   OH224006   3.566   0.786   3.491  0.5884 -0.0010 -0.3660
  864TIP3    H124007   3.553   0.756   3.401 -1.1242  1.6451 -0.7132
  864TIP3    H224008   3.605   0.873   3.481 -1.4061  1.0293  0.3820
  865TIP3   OH224009   3.014   2.147   1.606 -0.6159 -0.2549  0.3621
  865TIP3    H124010   2.984   2.066   1.649 -0.9278 -0.2118  0.2261
  865TIP3    H224011   3.032   2.121   1.516 -0.9600 -0.1145  0.2548
  866TIP3   OH224012   0.920   4.215  16.446 -0.0800 -0.5502 -0.2053
  866TIP3    H124013   1.013   4.238  16.442 -0.5806  1.6679 -0.3487
  866TIP3    H224014   0.900   4.179  16.360  0.5678 -0.7413 -0.2833
  867TIP3   OH224015   5.919   1.986   0.148 -0.2321 -0.6031 -0.3564
  867TIP3    H124016   5.860   2.053   0.113  0.7424  0.2678 -0.3847
  867TIP3    H224017   5.897   1.980   0.241  1.4447  1.7480  0.2800
  868TIP3   OH224018   5.233   0.092  13.218  0.2595  0.4002  0.0619
  868TIP3    H124019   5.186   0.137  13.148 -1.5370  0.0273  0.9706
  868TIP3    H224020   5.266   0.012  13.177  1.0725  1.1791 -0.8592
  869TIP3   OH224021   6.133   1.711  17.169 -0.4436  0.4329 -0.6459
  869TIP3    H124022   6.060   1.768  17.143 -2.3335  0.0464  3.1579
  869TIP3    H224023   6.152   1.736  17.259  1.2863 -2.3829 -0.1277
  870TIP3   OH224024   1.635   0.923  15.509  0.3112 -0.4518  1.1608
  870TIP3    H124025   1.567   0.871  15.551  0.3447 -0.2048  1.5320
  870TIP3    H224026   1.641   0.888  15.420 -0.5714 -0.2280  0.9951
  871TIP3   OH224027   3.810   6.488  13.031 -0.2043 -0.1869  0.2533
  871TIP3    H124028   3.824   6.433  13.108  0.4764  0.5002  0.6288
  871TIP3    H224029   3.897   6.497  12.992 -0.5146 -0.3832 -0.5053
  872TIP3   OH224030   1.981   5.933  15.847 -0.1736  0.2217  0.1029
  872TIP3    H124031   1.943   5.857  15.890  0.4744  0.2682  0.7769
  872TIP3    H224032   1.906   5.987  15.822 -0.5768  0.1269  1.0559
  873TIP3   OH224033   2.759   3.049   1.574  0.4333  0.4420 -0.5630
  873TIP3    H124034   2.853   3.042   1.555 -0.0458  0.0033 -3.1357
  873TIP3    H224035   2.727   3.113   1.511 -1.0017  0.7080  0.4017
  874TIP3   OH224036   2.420   4.904   5.748 -0.7915  0.2246 -0.0965
  874TIP3    H124037   2.401   4.923   5.656  0.4144 -1.8994 -0.8542
  874TIP3    H224038   2.384   4.979   5.796 -2.2881  0.9346 -2.1925
  875TIP3   OH224039   6.472   1.839   1.258  0.0682  0.3626 -0.1453
  875TIP3    H124040   6.487   1.779   1.331  3.4199  1.2099  0.0405
  875TIP3    H224041   6.555   1.886   1.249 -0.4973  0.8990 -3.9671
  876TIP3   OH224042   1.573   2.941  15.120  0.0423  0.3102  0.1978
  876TIP3    H124043   1.632   2.927  15.045  0.2914 -2.8298  0.8479
  876TIP3    H224044   1.620   2.904  15.194 -1.1806  1.2890  1.5101
  877TIP3   OH224045   2.526   3.191   0.457 -0.3826 -0.1371  0.5364
  877TIP3    H124046   2.547   3.145   0.375  0.8981  0.8589  0.2722
  877TIP3    H224047   2.440   3.230   0.441  0.5748  1.4815 -1.0338
  878TIP3   OH224048   6.240   3.664  12.937  0.2960  0.3246 -0.2193
  878TIP3    H124049   6.165   3.675  12.879  0.5125 -1.0465 -0.7791
  878TIP3    H224050   6.205   3.683  13.024 -0.4586  0.6711 -0.5866
  879TIP3   OH224051   2.631   2.623  13.458  0.2265 -0.0286  0.9291
  879TIP3    H124052   2.717   2.634  13.417 -0.2348 -1.6066 -0.5974
  879TIP3    H224053   2.650   2.590  13.546  1.1997 -2.2927 -0.0633
  880TIP3   OH224054   4.519   3.197  16.594 -0.5581  0.3404  0.0738
  880TIP3    H124055   4.580   3.157  16.531  0.9892  0.5465  1.3897
  880TIP3    H224056   4.527   3.143  16.672 -0.9417  1.2713  0.7719
  881TIP3   OH224057   0.998   5.585  17.088  0.2109 -0.6973  0.2689
  881TIP3    H124058   0.990   5.564  17.181 -2.1625 -1.5232 -0.0433
  881TIP3    H224059   0.937   5.657  17.074  2.2669  1.0318 -0.2721
  882TIP3   OH224060   3.116   0.297   5.771  0.2509  0.3530 -0.2478
  882TIP3    H124061   3.107   0.388   5.801  2.5014  0.3076  0.7177
  882TIP3    H224062   3.026   0.269   5.756 -0.7362  1.8147  2.2087
  883TIP3   OH224063   2.400   5.157   0.701  0.1478 -0.3339  0.2625
  883TIP3    H124064   2.361   5.152   0.613 -0.7899 -2.7890  0.7415
  883TIP3    H224065   2.388   5.249   0.727  0.5977  0.5037 -2.2015
  884TIP3   OH224066   4.706   4.017   4.571 -0.4760  0.2775 -0.2559
  884TIP3    H124067   4.757   4.080   4.520  1.0759 -1.4053 -0.9016
  884TIP3    H224068   4.717   4.045   4.662  0.9639  0.4091 -0.4508
  885TIP3   OH224069   3.740   3.306  15.678  0.3463 -0.5609  0.0452
  885TIP3    H124070   3.752   3.239  15.612  1.2681 -0.7532  0.3819
  885TIP3    H224071   3.730   3.258  15.760 -0.6592 -0.3223  0.0748
  886TIP3   OH224072   0.237   1.200   5.635  0.5612 -0.6101 -0.0096
  886TIP3    H124073   0.208   1.109   5.643 -0.9280 -0.0610  1.2410
  886TIP3    H224074   0.227   1.237   5.723  0.2324  1.0176 -0.6916
  887TIP3   OH224075   3.049   2.587  12.018  0.1011  0.8611  0.5348
  887TIP3    H124076   3.094   2.649  12.075  0.5755 -0.1222  1.2639
  887TIP3    H224077   2.956   2.603  12.033  0.1747 -0.5630  2.9997
  888TIP3   OH224078   3.412   5.569  13.212 -0.2492  0.7784  0.2982
  888TIP3    H124079   3.381   5.658  13.194 -3.2782  0.2194  2.0878
  888TIP3    H224080   3.382   5.517  13.138 -0.1644  0.8945  0.1819
  889TIP3   OH224081   3.881   0.537   5.579  0.5249  0.4155 -0.2006
  889TIP3    H124082   3.796   0.504   5.608  0.7895  1.4996  2.0880
  889TIP3    H224083   3.868   0.561   5.487 -1.0637 -1.2158 -0.4485
  890TIP3   OH224084   5.530   1.406  13.650  0.3061 -0.4943 -0.0728
  890TIP3    H124085   5.586   1.446  13.583  0.4662  0.8814  0.8499
  890TIP3    H224086   5.586   1.341  13.692  0.6446 -0.3871 -0.3526
  891TIP3   OH224087   3.650   4.178   1.329 -0.1328  0.3833 -0.5226
  891TIP3    H124088   3.575   4.238   1.323  0.2619  1.0202  0.6756
  891TIP3    H224089   3.623   4.102   1.277 -1.7448  0.4682  0.1142
  892TIP3   OH224090   6.489   4.697   1.512 -0.0458  0.4685 -0.3901
  892TIP3    H124091   6.472   4.785   1.547  0.6425 -0.5708  2.9331
  892TIP3    H224092   6.584   4.694   1.501 -0.1641  0.4333 -1.4910
  893TIP3   OH224093   3.940   1.724   2.914  0.5216  0.4241  0.1728
  893TIP3    H124094   3.988   1.644   2.937 -0.4415  0.5084  2.9116
  893TIP3    H224095   3.873   1.696   2.852 -0.1127 -1.0699  1.4535
  894TIP3   OH224096   2.644   4.391   1.496 -0.5804 -0.2974  0.0103
  894TIP3    H124097   2.569   4.447   1.514 -1.5654 -1.4050 -0.5424
  894TIP3    H224098   2.639   4.322   1.562  0.0800 -0.2585  0.1058
  895TIP3   OH224099   0.865   4.446  14.898  0.8388 -0.4730 -0.9305
  895TIP3    H124100   0.912   4.511  14.949 -0.2794  0.3525 -0.9149
  895TIP3    H224101   0.884   4.469  14.807 -0.7843  0.8921 -0.9805
  896TIP3   OH224102   0.682   6.379  15.850 -0.1482  0.2365 -0.1009
  896TIP3    H124103   0.720   6.431  15.779  0.1077  0.5932  0.2965
  896TIP3    H224104   0.745   6.309  15.865  0.1804  0.6176  0.3102
  897TIP3   OH224105   5.268   3.161   1.142 -0.0936 -0.8456  0.0060
  897TIP3    H124106   5.303   3.247   1.122  0.3940 -0.8157  0.9644
  897TIP3    H224107   5.345   3.105   1.153 -0.3789 -1.1925  0.2785
  898TIP3   OH224108   5.348   0.559   5.357 -0.1564 -0.0210 -0.1047
  898TIP3    H124109   5.297   0.507   5.420 -0.0558 -0.6271 -0.5143
  898TIP3    H224110   5.286   0.579   5.287  0.1888 -0.8610 -0.6615
  899TIP3   OH224111   1.041   6.113   2.812 -0.3975 -0.0438 -0.3902
  899TIP3    H124112   0.958   6.117   2.858 -0.4834  0.4796 -0.5903
  899TIP3    H224113   1.039   6.029   2.767 -1.1974  0.3539 -1.1150
  900TIP3   OH224114   0.367   1.182  13.568 -0.1835 -0.0659  0.1386
  900TIP3    H124115   0.434   1.171  13.501 -0.1798  1.0675 -0.0650
  900TIP3    H224116   0.369   1.100  13.618  0.3713 -0.5991 -0.7375
  901TIP3   OH224117   4.159   3.034  14.063  0.5119  0.0921 -0.0657
  901TIP3    H124118   4.249   3.032  14.031  0.4468 -1.0442 -0.2066
  901TIP3    H224119   4.142   2.945  14.094 -0.6592  0.2155 -0.3062
  902TIP3   OH224120   2.229   3.535   6.597  0.1596 -0.1284  0.1369
  902TIP3    H124121   2.210   3.623   6.628 -1.7957 -0.1418 -0.8613
  902TIP3    H224122   2.291   3.548   6.525 -0.3223  0.4716 -0.1820
  903TIP3   OH224123   0.817   3.603   0.345  0.1292  0.7377 -0.3028
  903TIP3    H124124   0.783   3.648   0.422  1.2292  0.5051  0.3494
  903TIP3    H224125   0.818   3.510   0.370  3.3853  0.9015  0.6684
  904TIP3   OH224126   1.893   6.632   5.417 -0.0422  0.1639  0.0340
  904TIP3    H124127   1.847   6.582   5.349 -0.2395 -0.0797  0.3461
  904TIP3    H224128   1.823   6.664   5.474  0.2118 -0.7898  0.9094
  905TIP3   OH224129   5.435   2.725  13.056 -0.0093  0.5396 -0.2370
  905TIP3    H124130   5.508   2.736  13.116 -1.0307 -0.7339  1.3575
  905TIP3    H224131   5.382   2.803  13.068 -1.1980 -0.5081  2.1028
  906TIP3   OH224132   3.291   3.873   4.328 -0.1456  0.5801  0.0084
  906TIP3    H124133   3.198   3.881   4.349 -0.2444 -1.9047  0.8821
  906TIP3    H224134   3.294   3.814   4.253  0.7244  1.3553 -0.5918
  907TIP3   OH224135   5.999   0.870  11.759  0.3070 -0.2459  0.0375
  907TIP3    H124136   5.997   0.900  11.668 -0.8931 -0.2449  0.0452
  907TIP3    H224137   6.075   0.913  11.797  0.2294  0.5701 -0.6998
  908TIP3   OH224138   0.631   1.710  12.408 -0.2411 -0.0825 -0.4985
  908TIP3    H124139   0.637   1.794  12.454  0.9505 -1.0223  1.1496
  908TIP3    H224140   0.721   1.683  12.395 -0.6070 -0.9849 -1.2743
  909TIP3   OH224141   5.335   2.543   5.922  0.5997 -0.8131 -0.1345
  909TIP3    H124142   5.411   2.594   5.892  0.8619 -0.7336  0.6377
  909TIP3    H224143   5.296   2.598   5.990  0.7161 -1.5203  0.5073
  910TIP3   OH224144   2.249   6.187  16.389 -0.7006  0.2985  0.5686
  910TIP3    H124145   2.199   6.121  16.438  1.0495  0.3533  2.5904
  910TIP3    H224146   2.260   6.259  16.451 -0.4572  1.4555 -0.7714
  911TIP3   OH224147   6.243   6.247  16.985 -0.1115 -0.1354  0.0924
  911TIP3    H124148   6.152   6.223  17.000 -0.3499  0.4070 -0.4433
  911TIP3    H224149   6.264   6.210  16.899  0.3025 -0.6156  0.3983
  912TIP3   OH224150   3.594   4.034   4.358  0.8532  0.5862  0.5592
  912TIP3    H124151   3.596   4.099   4.287  1.6609 -1.0604 -0.9942
  912TIP3    H224152   3.501   4.013   4.369  0.8089 -0.1012 -0.9530
  913TIP3   OH224153   3.244   5.264   6.442 -0.1170 -0.1449 -0.1880
  913TIP3    H124154   3.197   5.183   6.426  0.9199 -0.9471  0.6731
  913TIP3    H224155   3.217   5.291   6.530 -1.2922  1.0626 -0.8792
  914TIP3   OH224156   1.993   6.534   5.656  0.1444  0.3953 -0.0439
  914TIP3    H124157   1.978   6.527   5.562  0.3932  0.0585 -0.0608
  914TIP3    H224158   1.953   6.455   5.693  2.3750 -0.8527 -0.1609
  915TIP3   OH224159   6.006   1.924  13.110 -0.0184 -0.8080  0.2176
  915TIP3    H124160   6.080   1.907  13.168  0.4497  0.8657  0.1517
  915TIP3    H224161   5.932   1.939  13.170  0.2979  0.1697  0.3766
  916TIP3   OH224162   2.457   0.992  16.157 -0.6541  0.3639  0.0513
  916TIP3    H124163   2.476   0.930  16.227 -1.1340  0.7282  0.5136
  916TIP3    H224164   2.420   0.939  16.086 -2.2557  0.2494  0.9126
  917TIP3   OH224165   4.107   5.870   2.651 -0.1170 -0.0229  0.1118
  917TIP3    H124166   4.146   5.815   2.720  0.7286  2.3129  1.5985
  917TIP3    H224167   4.110   5.959   2.686 -0.7523  1.1220 -2.5069
  918TIP3   OH224168   3.499   6.547   1.589  0.0900  0.3817  0.3963
  918TIP3    H124169   3.516   6.472   1.532  0.3090  0.4356  0.3906
  918TIP3    H224170   3.554   6.617   1.554 -1.0198  0.9192 -0.3530
  919TIP3   OH224171   5.678   5.443   5.242  0.2991  0.5432  0.0131
  919TIP3    H124172   5.736   5.371   5.267 -0.6380 -0.5535 -0.8723
  919TIP3    H224173   5.695   5.456   5.149  1.6271  2.6034  0.4881
  920TIP3   OH224174   0.800   4.794  12.569 -0.5775  0.7205 -0.8728
  920TIP3    H124175   0.722   4.762  12.523 -1.6689  1.8742  0.1187
  920TIP3    H224176   0.868   4.795  12.502 -1.7221  0.8588 -2.0711
  921TIP3   OH224177   3.360   1.792   4.267  0.4180  0.0758 -0.1518
  921TIP3    H124178   3.268   1.777   4.245 -0.1661  0.4659  1.8499
  921TIP3    H224179   3.393   1.706   4.292 -0.1863  0.3523  1.7319
  922TIP3   OH224180   1.598   6.429   5.043 -0.0211 -0.2148  0.3101
  922TIP3    H124181   1.523   6.370   5.039  1.8112 -2.6488 -1.9623
  922TIP3    H224182   1.620   6.446   4.951  1.0587  2.0748  0.9113
  923TIP3   OH224183   5.594   2.937   3.911 -0.7360  0.1603  0.0732
  923TIP3    H124184   5.577   2.970   3.823  0.4853  0.1130 -0.1898
  923TIP3    H224185   5.674   2.981   3.939 -1.1839  0.2874  1.2296
  924TIP3   OH224186   3.692   1.144  12.528 -0.1196  0.8345  0.5776
  924TIP3    H124187   3.704   1.222  12.474 -0.6290 -0.4143 -1.4565
  924TIP3    H224188   3.665   1.178  12.614 -0.2336  2.8764 -0.2096
  925TIP3   OH224189   3.143   5.325  14.551 -0.1908  0.4125  0.9035
  925TIP3    H124190   3.091   5.404  14.561  0.3606  0.8796  0.1368
  925TIP3    H224191   3.185   5.312  14.636  0.0458  1.1772  0.9024
  926TIP3   OH224192   0.256   3.443   2.006  0.0197 -0.0328 -0.2668
  926TIP3    H124193   0.270   3.513   1.943  2.0114 -1.1132 -1.1117
  926TIP3    H224194   0.267   3.362   1.955 -1.2128 -0.9688  0.8828
  927TIP3   OH224195   3.062   1.640   2.346  0.5495 -0.2725 -0.1879
  927TIP3    H124196   3.016   1.572   2.298 -0.2839  0.7583 -0.8894
  927TIP3    H224197   3.060   1.716   2.289  2.0431  0.1734  0.3027
  928TIP3   OH224198   0.905   1.138  13.004  0.4680 -0.1357 -0.0795
  928TIP3    H124199   0.992   1.140  12.964  1.0395 -1.6990  0.9794
  928TIP3    H224200   0.846   1.113  12.933  1.0983 -0.4322 -0.5057
  929TIP3   OH224201   2.668   1.298  15.695 -0.5004 -0.5041  0.4973
  929TIP3    H124202   2.758   1.281  15.720 -0.4784 -0.7518  0.2625
  929TIP3    H224203   2.632   1.350  15.766 -0.3752 -0.9915  0.9233
  930TIP3   OH224204   2.008   4.204  11.504 -0.3328  0.2271 -0.3672
  930TIP3    H124205   1.987   4.298  11.503  2.2316  0.8766 -0.6042
  930TIP3    H224206   2.104   4.201  11.503 -0.3476 -2.4197 -0.3783
  931TIP3   OH224207   5.953   3.242   0.970  0.4448 -0.5454 -0.0781
  931TIP3    H124208   5.917   3.179   0.907 -0.0271 -1.1758  0.8035
  931TIP3    H224209   6.035   3.202   0.999  0.9881  0.0498 -0.7525
  932TIP3   OH224210   3.373   1.088  12.853 -0.1171 -0.0591 -0.1324
  932TIP3    H124211   3.305   1.113  12.790 -0.4431 -1.9581 -0.5982
  932TIP3    H224212   3.358   1.146  12.928  0.1721  2.1351 -1.6844
  933TIP3   OH224213   5.573   1.207  15.569  0.6566  0.4229 -0.4323
  933TIP3    H124214   5.646   1.232  15.513 -0.8111 -0.2056 -2.7991
  933TIP3    H224215   5.550   1.287  15.616  1.9273  1.0048 -0.7661
  934TIP3   OH224216   0.526   4.018   4.617 -0.3943  0.0153  0.3287
  934TIP3    H124217   0.600   4.031   4.677 -0.6806 -1.5219  1.0524
  934TIP3    H224218   0.567   4.005   4.532  0.0546  1.3461  0.3070
  935TIP3   OH224219   5.071   5.316   5.442 -0.4349 -0.0631 -0.1247
  935TIP3    H124220   5.096   5.366   5.364  1.8256 -0.0613  0.5536
  935TIP3    H224221   5.152   5.280   5.475 -1.6126 -1.6761  1.1788
  936TIP3   OH224222   6.161   5.477   1.955 -0.1561 -0.2077 -0.0445
  936TIP3    H124223   6.251   5.504   1.934 -0.4421 -0.0095 -1.0871
  936TIP3    H224224   6.112   5.559   1.959 -0.3985 -0.3509 -0.0585
  937TIP3   OH224225   4.198   3.727   4.565 -0.3186  0.2369  0.4499
  937TIP3    H124226   4.286   3.700   4.589 -1.0890 -2.2851  0.7123
  937TIP3    H224227   4.211   3.791   4.495  1.7178  0.4962  1.0008
  938TIP3   OH224228   5.728   0.028   3.013 -0.4861  0.2760 -0.0910
  938TIP3    H124229   5.651   0.035   3.070 -0.6703 -2.2274  0.1120
  938TIP3    H224230   5.697   0.052   2.926 -0.8524  1.6437  0.3990
  939TIP3   OH224231   6.360   3.869   3.197  0.2448 -0.4615 -0.2656
  939TIP3    H124232   6.398   3.956   3.204  1.5681 -1.0445 -0.0347
  939TIP3    H224233   6.433   3.809   3.210 -0.9774 -1.6334  1.8357
  940TIP3   OH224234   1.253   2.643   2.852 -0.4917 -0.5398 -0.2745
  940TIP3    H124235   1.247   2.734   2.822  1.5502  0.5226  2.1523
  940TIP3    H224236   1.169   2.605   2.828 -2.1523  2.5101  0.1369
  941TIP3   OH224237   0.163   3.747   1.483 -0.2928  0.4544 -0.6765
  941TIP3    H124238   0.191   3.809   1.550 -0.9561 -0.5298  0.5700
  941TIP3    H224239   0.151   3.800   1.404  2.2166  1.3773 -0.5392
  942TIP3   OH224240   0.790   1.733   5.952 -0.0110  0.3564 -0.4410
  942TIP3    H124241   0.702   1.768   5.966 -1.1484 -2.2783 -0.5028
  942TIP3    H224242   0.825   1.720   6.040  0.3334  1.3665 -0.4162
  943TIP3   OH224243   4.774   6.155  11.246 -0.2091 -0.3340 -0.3937
  943TIP3    H124244   4.744   6.232  11.199 -1.8884 -0.3990  0.5209
  943TIP3    H224245   4.854   6.183  11.290  0.0653  0.4090 -1.3369
  944TIP3   OH224246   3.921   1.119  17.357  0.3261  0.1094 -0.5954
  944TIP3    H124247   3.917   1.024  17.340  0.4614 -0.1975  0.9621
  944TIP3    H224248   3.835   1.140  17.393  0.6858  0.3462  0.1439
  945TIP3   OH224249   4.170   3.978   0.577 -0.7457 -0.5706  0.3400
  945TIP3    H124250   4.232   3.993   0.505  0.2424 -0.2687  1.2347
  945TIP3    H224251   4.087   4.014   0.544 -0.0755  0.4850 -0.2701
  946TIP3   OH224252   2.392   1.145  16.645  0.1706 -0.6423  0.1255
  946TIP3    H124253   2.360   1.092  16.718 -0.7174  0.5049  0.6102
  946TIP3    H224254   2.427   1.082  16.582 -2.4555 -1.9557 -0.1455
  947TIP3   OH224255   0.678   5.530  15.735 -0.0291  0.3417 -0.1065
  947TIP3    H124256   0.598   5.556  15.780  0.0988 -0.7873  0.8287
  947TIP3    H224257   0.725   5.612  15.719 -1.0000  0.9420  0.0356
  948TIP3   OH224258   1.467   0.472   1.591  0.0059  0.5750 -0.2971
  948TIP3    H124259   1.448   0.389   1.634  1.2191 -0.8465 -2.3458
  948TIP3    H224260   1.563   0.479   1.596  0.0330  1.1310 -1.3664
  949TIP3   OH224261   0.609   3.923  15.941  0.3300  0.4814  0.4459
  949TIP3    H124262   0.582   3.850  15.997  1.0486 -2.3765 -2.5850
  949TIP3    H224263   0.539   3.929  15.876  1.2229  1.1465 -0.4804
  950TIP3   OH224264   1.780   2.071   3.598 -0.0187  0.2707 -0.6254
  950TIP3    H124265   1.710   2.126   3.562 -1.9483 -0.3086  1.9068
  950TIP3    H224266   1.769   1.986   3.555  0.3802  0.6955 -1.6014
  951TIP3   OH224267   4.650   6.044   0.378  0.4992 -0.6662  0.0321
  951TIP3    H124268   4.622   6.134   0.395  1.3081 -0.3508 -0.2586
  951TIP3    H224269   4.705   6.021   0.452 -1.4676 -1.7378  1.2538
  952TIP3   OH224270   2.183   4.525  14.503  0.1137 -0.1868  0.0271
  952TIP3    H124271   2.270   4.564  14.496  0.3436 -0.8984 -1.1520
  952TIP3    H224272   2.166   4.486  14.418 -0.8530 -1.1447  0.6284
  953TIP3   OH224273   6.499   5.276  15.459 -0.3507 -0.1491  0.0300
  953TIP3    H124274   6.591   5.279  15.487 -0.1479  0.0875 -0.6317
  953TIP3    H224275   6.452   5.320  15.529 -0.1905 -1.7431  1.1928
  954TIP3   OH224276   3.759   2.717   5.226  0.1307  0.3829  0.1073
  954TIP3    H124277   3.763   2.766   5.144 -2.7947 -0.1267 -0.4466
  954TIP3    H224278   3.795   2.632   5.205 -1.4199 -0.0543 -0.9916
  955TIP3   OH224279   0.055   1.166   3.310  0.6153 -0.5919  0.0768
  955TIP3    H124280   0.006   1.092   3.272  0.8250 -0.1871 -1.0114
  955TIP3    H224281   0.045   1.236   3.246  0.6597  0.2455  0.9719
  956TIP3   OH224282   5.386   0.811  14.048  0.5078 -0.3623  0.3156
  956TIP3    H124283   5.392   0.906  14.060  1.8147 -0.4380  0.3842
  956TIP3    H224284   5.470   0.777  14.078 -0.0177 -1.5725  0.4812
  957TIP3   OH224285   1.581   6.473  12.825 -0.5239 -0.2527 -0.5899
  957TIP3    H124286   1.625   6.528  12.761  1.9597 -1.8588 -0.4287
  957TIP3    H224287   1.624   6.388  12.817 -2.0145 -1.2879  1.3367
  958TIP3   OH224288   2.305   5.219  14.781  0.2026  0.4765 -0.5513
  958TIP3    H124289   2.250   5.161  14.833 -0.6026  2.5424  1.0506
  958TIP3    H224290   2.245   5.258  14.717  0.3983  0.6798 -0.6144
  959TIP3   OH224291   1.928   4.852   2.831 -0.0668 -0.2135 -0.2147
  959TIP3    H124292   1.975   4.879   2.752  2.1009 -1.3219  0.5978
  959TIP3    H224293   1.966   4.904   2.901 -2.2021  1.0008  0.1247
  960TIP3   OH224294   0.850   4.924  14.046 -0.5066 -0.1602  0.0891
  960TIP3    H124295   0.771   4.941  13.994  0.6449 -1.1598 -2.1215
  960TIP3    H224296   0.923   4.943  13.986  1.0223  1.8524  2.4101
  961TIP3   OH224297   2.970   1.854   0.599 -0.6842 -0.3018 -0.2126
  961TIP3    H124298   2.888   1.804   0.604 -0.5597 -0.7707 -2.1284
  961TIP3    H224299   2.969   1.894   0.512 -1.1115  3.7741  1.4681
  962TIP3   OH224300   3.418   2.222  14.028  0.1601  0.0058 -0.2459
  962TIP3    H124301   3.347   2.283  14.049  0.6294  0.3320  0.4189
  962TIP3    H224302   3.374   2.149  13.985 -0.3473  1.0761 -1.6538
  963TIP3   OH224303   5.572   2.915   0.567 -0.3407  0.0881  0.3087
  963TIP3    H124304   5.592   2.995   0.617  0.3487 -0.2080  0.5298
  963TIP3    H224305   5.649   2.859   0.581 -0.9571 -0.7444  0.4203
  964TIP3   OH224306   4.002   1.759  13.908  0.7115  0.0874 -0.1377
  964TIP3    H124307   4.073   1.811  13.945 -0.7184  0.3608  2.4506
  964TIP3    H224308   3.924   1.813  13.920 -0.0912 -0.5184 -2.2272
  965TIP3   OH224309   4.609   1.957   0.468  1.0522 -0.3888 -0.2471
  965TIP3    H124310   4.579   1.870   0.443 -1.4482  0.5893 -0.9400
  965TIP3    H224311   4.603   1.958   0.564 -0.7667 -0.4127 -0.3277
  966TIP3   OH224312   0.582   5.563   3.070  0.4440 -0.1723 -0.0369
  966TIP3    H124313   0.581   5.594   2.979 -1.1878  1.2363  0.4004
  966TIP3    H224314   0.668   5.522   3.081  0.1986 -1.5992 -2.5892
  967TIP3   OH224315   1.149   3.701   4.093  0.5625  0.5535  0.4113
  967TIP3    H124316   1.135   3.759   4.168  0.3628 -0.6343  1.3315
  967TIP3    H224317   1.097   3.739   4.023  0.8866  1.7889  0.8273
  968TIP3   OH224318   5.851   5.324  13.879  0.1286  0.3819  0.2465
  968TIP3    H124319   5.836   5.324  13.784  0.4654  1.1187  0.1818
  968TIP3    H224320   5.864   5.233  13.902  0.0247  0.1948 -0.4154
  969TIP3   OH224321   1.228   6.108   5.576  0.5353 -0.5214  0.6872
  969TIP3    H124322   1.172   6.038   5.542  0.5194  0.2984 -1.0551
  969TIP3    H224323   1.217   6.103   5.671 -1.1734 -1.4635  0.4812
  970TIP3   OH224324   0.092   6.708  14.672 -0.1422  0.1940 -0.0794
  970TIP3    H124325   0.144   6.649  14.727 -2.0520  0.7877  2.5614
  970TIP3    H224326   0.151   6.780  14.653  1.0445 -0.7473 -0.1157
  971TIP3   OH224327   4.490   4.206  17.261 -0.1368  0.4442  0.7953
  971TIP3    H124328   4.444   4.152  17.325 -0.9363 -0.7241 -0.6972
  971TIP3    H224329   4.449   4.185  17.177  1.1275  1.6248 -0.1803
  972TIP3   OH224330   4.385   5.637  17.184  0.0266 -0.1287 -0.1823
  972TIP3    H124331   4.416   5.627  17.274  1.9529 -0.1907 -0.8026
  972TIP3    H224332   4.409   5.726  17.160 -0.7947  0.0065 -0.5335
  973TIP3   OH224333   3.499   2.578   5.044  0.2531  0.0595  0.1714
  973TIP3    H124334   3.571   2.533   5.088  1.6180 -0.7201 -2.6129
  973TIP3    H224335   3.422   2.555   5.095  1.4619 -2.2173  1.1403
  974TIP3   OH224336   6.154   0.211   0.899  1.0677 -0.0156  0.1546
  974TIP3    H124337   6.062   0.193   0.918  1.1914 -0.4151  0.3854
  974TIP3    H224338   6.154   0.244   0.809  0.9414 -2.2340 -0.7054
  975TIP3   OH224339   1.584   2.597   5.496 -0.2632 -0.6351  0.0545
  975TIP3    H124340   1.583   2.509   5.535  1.3419 -0.9629 -0.5715
  975TIP3    H224341   1.581   2.581   5.402  2.6117 -0.1960 -0.1994
  976TIP3   OH224342   2.458   0.059  14.665 -0.0953 -0.1565 -0.4116
  976TIP3    H124343   2.409   0.135  14.696 -1.0528 -0.2574 -1.5755
  976TIP3    H224344   2.484   0.013  14.745 -0.7343  0.6352  0.2743
  977TIP3   OH224345   2.679   4.715  10.907 -0.4394 -0.0015 -0.1191
  977TIP3    H124346   2.682   4.619  10.903  0.6399 -0.0511  0.9781
  977TIP3    H224347   2.757   4.739  10.958 -0.6562  1.4695 -0.4234
  978TIP3   OH224348   3.816   2.311   4.256  0.0545  0.1014 -0.7257
  978TIP3    H124349   3.776   2.265   4.330  2.6209 -2.4593 -0.7574
  978TIP3    H224350   3.753   2.300   4.185 -0.3840 -1.5984 -0.1378
  979TIP3   OH224351   5.155   0.761  14.963  0.4828 -0.3556 -0.1454
  979TIP3    H124352   5.226   0.825  14.973 -0.0544  0.2986 -0.4567
  979TIP3    H224353   5.111   0.787  14.882  0.0560 -0.9232 -0.0963
  980TIP3   OH224354   4.128   6.617   1.579 -0.1231  0.4425 -0.0845
  980TIP3    H124355   4.080   6.674   1.639 -1.6037 -1.5653  0.7774
  980TIP3    H224356   4.209   6.596   1.625 -1.1873 -0.9702  1.2475
  981TIP3   OH224357   3.585   6.661  15.434  0.4327  0.4029  0.4035
  981TIP3    H124358   3.564   6.747  15.470 -1.2476  0.0747  0.2929
  981TIP3    H224359   3.649   6.624  15.495 -1.4833  0.3270  2.4898
  982TIP3   OH224360   0.080   4.914   3.806 -0.5905 -0.7929 -0.1015
  982TIP3    H124361   0.087   4.831   3.853  0.1963 -0.9062 -0.3974
  982TIP3    H224362   0.170   4.947   3.804 -0.4399 -1.1985 -2.2593
  983TIP3   OH224363   4.209   0.883  15.251 -0.2839 -0.0967  0.1930
  983TIP3    H124364   4.185   0.958  15.197  0.2139 -1.0960 -1.4973
  983TIP3    H224365   4.126   0.841  15.272 -0.4996  0.4256  0.4240
  984TIP3   OH224366   6.543   1.529   1.611  0.2717 -0.1115  0.2510
  984TIP3    H124367   6.462   1.569   1.642 -0.1508 -1.3316  0.7875
  984TIP3    H224368   6.579   1.485   1.688  1.4185  0.3601  0.0043
  985TIP3   OH224369   1.491   2.134   4.008 -0.1304 -0.6160  0.1745
  985TIP3    H124370   1.572   2.131   4.059 -0.2940 -0.4866  0.4437
  985TIP3    H224371   1.459   2.223   4.019 -0.3397 -0.6835  0.1113
  986TIP3   OH224372   2.630   0.119   2.284 -0.4970  0.1418  0.1646
  986TIP3    H124373   2.708   0.094   2.334  0.2362 -0.3480 -1.1608
  986TIP3    H224374   2.560   0.064   2.318  0.4274 -1.6143 -0.6262
  987TIP3   OH224375   2.184   2.727   4.191  0.1811 -0.6476  0.8735
  987TIP3    H124376   2.101   2.681   4.176  1.0146 -2.3770  1.2712
  987TIP3    H224377   2.217   2.745   4.103 -2.1607  3.2703  0.5506
  988TIP3   OH224378   4.401   6.565   0.085 -0.1876  0.1941  0.2858
  988TIP3    H124379   4.471   6.560   0.150  0.1291 -1.3271 -0.1404
  988TIP3    H224380   4.417   6.492   0.026 -0.2267  1.7862 -1.8090
  989TIP3   OH224381   2.698   3.235  14.228 -0.3652  0.4093  0.5671
  989TIP3    H124382   2.752   3.219  14.150 -0.3332  1.7020  0.2993
  989TIP3    H224383   2.753   3.290  14.284 -0.5088 -0.2507  1.3777
  990TIP3   OH224384   0.273   5.958   3.929  0.2931  0.0449 -1.0247
  990TIP3    H124385   0.278   6.001   3.844 -0.3900 -0.7681 -1.4914
  990TIP3    H224386   0.281   5.864   3.910 -0.1591 -0.1720 -0.2305
  991TIP3   OH224387   2.881   2.364  16.818 -0.2391 -0.1296  0.0218
  991TIP3    H124388   2.964   2.372  16.770  0.6589 -0.1426  1.5101
  991TIP3    H224389   2.827   2.435  16.784  0.3379 -0.1682 -1.0286
  992TIP3   OH224390   3.592   0.174  16.765 -0.3667 -0.0133  0.3194
  992TIP3    H124391   3.601   0.201  16.856  0.1062 -0.0072  0.2765
  992TIP3    H224392   3.590   0.079  16.768 -1.1646  0.0031  0.4017
  993TIP3   OH224393   0.101   5.495   4.606 -0.1461  0.3602 -0.7702
  993TIP3    H124394   0.034   5.479   4.539  0.1027  0.5319 -1.0665
  993TIP3    H224395   0.055   5.542   4.675 -0.9099 -1.6757  0.1692
  994TIP3   OH224396   0.515   6.065  11.735  0.0106 -0.3453  0.4550
  994TIP3    H124397   0.460   6.091  11.661  0.8894 -0.6057 -0.3113
  994TIP3    H224398   0.490   6.126  11.805 -0.8628 -0.1154 -0.0338
  995TIP3   OH224399   5.767   1.184  13.241 -0.2863 -0.1424 -0.0226
  995TIP3    H124400   5.776   1.184  13.336 -0.0278 -0.0167 -0.0451
  995TIP3    H224401   5.857   1.189  13.209 -0.3254 -0.9777 -0.2787
  996TIP3   OH224402   3.064   1.444   2.077 -0.0297 -0.0974 -0.5591
  996TIP3    H124403   3.017   1.369   2.041 -1.5523 -0.1274  1.3458
  996TIP3    H224404   3.006   1.478   2.145  1.8725  1.0865  0.5507
  997TIP3   OH224405   5.507   4.890  11.908  0.7157 -0.3181 -0.2086
  997TIP3    H124406   5.494   4.822  11.842 -1.6534 -0.5466  0.4312
  997TIP3    H224407   5.581   4.859  11.960  0.7115 -1.6021 -0.9256
  998TIP3   OH224408   3.887   5.834  12.311  0.6348  0.1309  0.0539
  998TIP3    H124409   3.888   5.911  12.253  0.9594 -0.6670 -1.0284
  998TIP3    H224410   3.962   5.846  12.369  1.7563 -0.2213 -1.2802
  999TIP3   OH224411   3.509   4.175  10.990 -0.2643  0.0229  0.0726
  999TIP3    H124412   3.543   4.224  11.066  0.5167  0.1714 -0.3589
  999TIP3    H224413   3.452   4.236  10.945  0.9593  0.6832 -0.6443
 1000TIP3   OH224414   1.962   1.745   1.187  0.3846  0.3961 -0.0060
 1000TIP3    H124415   1.960   1.832   1.226  1.5253 -0.3724  1.8463
 1000TIP3    H224416   1.897   1.695   1.236  0.6909 -0.1687 -0.1678
 1001TIP3   OH224417   6.034   2.582  13.603  0.4533 -0.0749  0.5154
 1001TIP3    H124418   5.959   2.606  13.548  1.5518  3.0539  0.1396
 1001TIP3    H224419   6.110   2.619  13.557  1.8026 -0.1532  2.5466
 1002TIP3   OH224420   0.788   2.277   3.436  0.1331 -0.1044 -0.8048
 1002TIP3    H124421   0.797   2.243   3.347 -0.2354  2.1410 -1.7562
 1002TIP3    H224422   0.876   2.306   3.459 -0.1689  1.2621 -1.3012
 1003TIP3   OH224423   4.519   2.705  11.489  0.1111 -0.0764 -0.2748
 1003TIP3    H124424   4.525   2.750  11.573  0.8372  1.3500 -1.0344
 1003TIP3    H224425   4.585   2.748  11.435  0.6053 -1.8906 -1.1716
 1004TIP3   OH224426   1.875   4.375   2.091  0.2498  0.5998 -0.3003
 1004TIP3    H124427   1.890   4.284   2.115 -0.1659  1.2291  2.6907
 1004TIP3    H224428   1.817   4.370   2.015  0.2249 -1.6210 -0.2083
 1005TIP3   OH224429   0.949   2.073   2.795 -0.3566 -0.9708  0.0742
 1005TIP3    H124430   0.873   2.114   2.753 -0.5823 -1.5362 -0.0844
 1005TIP3    H224431   1.024   2.124   2.764 -0.4541 -1.7350 -1.5333
 1006TIP3   OH224432   5.864   3.223   1.317 -0.4184 -0.5179 -0.3884
 1006TIP3    H124433   5.884   3.130   1.310 -0.1294 -0.9948  4.0473
 1006TIP3    H224434   5.784   3.227   1.370  0.3407  1.7033  0.7646
 1007TIP3   OH224435   1.652   2.929  15.910  0.3975  0.2508 -0.1940
 1007TIP3    H124436   1.612   2.935  15.823  0.4259  0.7202 -0.1758
 1007TIP3    H224437   1.640   2.837  15.935 -0.0282  0.2221 -0.4915
 1008TIP3   OH224438   4.373   3.120  14.876 -0.1228  0.8462  0.3914
 1008TIP3    H124439   4.413   3.207  14.878 -0.0057  0.7826  1.2361
 1008TIP3    H224440   4.448   3.060  14.871 -0.2454  0.8180 -1.6536
 1009TIP3   OH224441   2.926   1.813   0.311 -0.6759 -0.1373  0.2163
 1009TIP3    H124442   2.875   1.845   0.237  1.0077  0.6631 -0.6730
 1009TIP3    H224443   2.951   1.724   0.287  1.1310  0.6336 -0.9348
 1010TIP3   OH224444   3.429   6.239  11.967  0.0385  0.2834  0.1504
 1010TIP3    H124445   3.523   6.225  11.975  0.5780  1.5685 -2.7030
 1010TIP3    H224446   3.406   6.204  11.881 -2.2981 -0.6826  1.0589
 1011TIP3   OH224447   3.651   0.645   1.411 -0.4154 -0.5130  0.1662
 1011TIP3    H124448   3.712   0.710   1.445 -1.0907  1.3420 -1.8930
 1011TIP3    H224449   3.582   0.639   1.477  1.4498 -1.9418  2.0744
 1012TIP3   OH224450   4.547   6.162   4.300 -0.2528 -0.2054  0.0244
 1012TIP3    H124451   4.550   6.255   4.321  2.0984 -0.7025  2.3901
 1012TIP3    H224452   4.635   6.130   4.319 -1.1662 -3.0505 -0.0837
 1013TIP3   OH224453   6.513   6.117  11.793  0.0766  0.0848  0.2124
 1013TIP3    H124454   6.548   6.203  11.817 -0.7544  0.3367  0.5415
 1013TIP3    H224455   6.431   6.109  11.842 -2.2868  1.0665 -3.1848
 1014TIP3   OH224456   1.578   2.690  11.586  0.4499 -0.3340  0.3613
 1014TIP3    H124457   1.647   2.623  11.577  0.5035 -0.6334  2.4767
 1014TIP3    H224458   1.625   2.770  11.609  0.3022  0.2614 -1.2633
 1015TIP3   OH224459   5.087   4.480   0.139  0.3190  0.3149 -0.6306
 1015TIP3    H124460   5.079   4.506   0.231 -0.4972 -2.3349  0.1116
 1015TIP3    H224461   5.178   4.452   0.130  0.0132 -0.8512 -0.2019
 1016TIP3   OH224462   2.439   0.868   3.236 -0.2559  0.4572  0.9980
 1016TIP3    H124463   2.372   0.882   3.169 -1.0340  1.5688  1.9730
 1016TIP3    H224464   2.504   0.937   3.220 -0.7921  1.1568  1.7990
 1017TIP3   OH224465   6.524   6.589  14.662  0.1991 -0.2957  0.2596
 1017TIP3    H124466   6.445   6.643  14.655 -0.4745 -0.9471  2.2542
 1017TIP3    H224467   6.576   6.630  14.730  0.1947 -1.4795  1.0185
 1018TIP3   OH224468   0.209   4.810  11.651 -0.0445  1.1588 -0.0777
 1018TIP3    H124469   0.225   4.785  11.742 -2.0869  0.7171  0.2016
 1018TIP3    H224470   0.231   4.903  11.648  0.7054  1.0235  0.6692
 1019TIP3   OH224471   3.516   5.757   4.134  0.3861 -0.2384  0.5344
 1019TIP3    H124472   3.516   5.787   4.043  1.5360  0.4111  0.7350
 1019TIP3    H224473   3.447   5.690   4.137 -0.2719  0.3627 -0.5967
 1020TIP3   OH224474   5.694   3.444   1.764 -0.2298 -0.5627 -0.3847
 1020TIP3    H124475   5.769   3.390   1.790 -0.9016 -1.6815 -0.6841
 1020TIP3    H224476   5.733   3.515   1.713  0.8389  0.2016  1.4116
 1021TIP3   OH224477   4.146   2.448   2.799  0.2126 -0.6065  0.2534
 1021TIP3    H124478   4.060   2.452   2.756 -0.0096  0.4776  0.7485
 1021TIP3    H224479   4.202   2.404   2.736 -0.6095 -0.9395 -0.2649
 1022TIP3   OH224480   1.157   2.658   2.306  0.1175 -0.6546  0.0124
 1022TIP3    H124481   1.072   2.677   2.346  0.4073 -0.1544  0.3950
 1022TIP3    H224482   1.214   2.729   2.336  0.9226 -1.5032  0.5364
 1023TIP3   OH224483   1.016   4.554   2.913  0.2626 -0.4549  0.1909
 1023TIP3    H124484   0.953   4.565   2.984 -0.6969 -1.4826 -0.4573
 1023TIP3    H224485   0.976   4.487   2.856  1.3037 -0.1321 -0.9601
 1024TIP3   OH224486   0.472   5.645   4.657 -0.1026  0.6051  0.8019
 1024TIP3    H124487   0.548   5.672   4.607 -0.2017  0.1066  0.3753
 1024TIP3    H224488   0.468   5.707   4.731  1.1183  0.2074  1.2207
 1025TIP3   OH224489   1.376   0.354  14.979 -0.9457 -0.2750  0.3576
 1025TIP3    H124490   1.314   0.322  14.913 -1.7873  0.8218  0.5812
 1025TIP3    H224491   1.453   0.381  14.929 -1.3754  0.0630 -0.1347
 1026TIP3   OH224492   0.453   2.072   5.733 -0.3017  0.2921  0.0247
 1026TIP3    H124493   0.460   2.160   5.695  1.2605 -0.4758 -1.6190
 1026TIP3    H224494   0.369   2.072   5.777 -0.4635  2.5348 -0.1393
 1027TIP3   OH224495   2.709   1.432   2.432 -0.1940  0.8469  0.0489
 1027TIP3    H124496   2.773   1.369   2.466 -1.9643 -1.0521  0.1254
 1027TIP3    H224497   2.686   1.487   2.507 -1.8679 -1.3845  1.3216
 1028TIP3   OH224498   3.936   3.138   0.492  0.2129 -0.1970  0.6372
 1028TIP3    H124499   4.028   3.162   0.499 -0.2497  1.7981  0.3543
 1028TIP3    H224500   3.902   3.191   0.419 -1.3227 -0.3228  1.2171
 1029TIP3   OH224501   4.883   6.337   0.539 -0.0158  0.5010  0.1611
 1029TIP3    H124502   4.825   6.404   0.577  1.0209  1.2177  0.5123
 1029TIP3    H224503   4.885   6.359   0.446 -0.4629  0.3496  0.1115
 1030TIP3   OH224504   4.232   6.336   2.591 -0.1151 -0.5931  0.1319
 1030TIP3    H124505   4.163   6.395   2.560 -0.9679 -1.6999 -0.1334
 1030TIP3    H224506   4.310   6.390   2.594 -0.5236  0.1514 -1.6820
 1031TIP3   OH224507   2.598   2.017  11.658  0.5039 -0.0299 -0.0814
 1031TIP3    H124508   2.597   1.926  11.687  0.0104  0.3687  1.2399
 1031TIP3    H224509   2.506   2.037  11.640  0.1577  0.9835  2.3676
 1032TIP3   OH224510   4.841   0.874  12.249 -0.0050  0.0756  0.0374
 1032TIP3    H124511   4.878   0.908  12.167  1.1220 -0.1247  0.4508
 1032TIP3    H224512   4.915   0.871  12.309 -0.5950 -0.8260  0.7403
 1033TIP3   OH224513   4.349   3.964  13.724 -0.3702 -0.1277  0.3446
 1033TIP3    H124514   4.270   3.913  13.706 -0.2303  0.2209 -1.4039
 1033TIP3    H224515   4.324   4.055  13.709 -0.0830  0.1498  1.4757
 1034TIP3   OH224516   2.740   4.773  16.662 -0.2605 -0.1543  0.3317
 1034TIP3    H124517   2.800   4.728  16.721  0.3530 -0.0947 -0.2413
 1034TIP3    H224518   2.743   4.723  16.580 -1.8914 -0.8414  0.6537
 1035TIP3   OH224519   4.876   6.674  12.635 -0.2759 -0.4076  0.0869
 1035TIP3    H124520   4.919   6.737  12.576 -0.3443 -0.9977 -0.6024
 1035TIP3    H224521   4.784   6.678  12.610 -0.5766  0.5190  1.2536
 1036TIP3   OH224522   5.742   1.590   1.485 -0.6371  0.3852 -0.1211
 1036TIP3    H124523   5.748   1.653   1.557 -1.1073  1.2837 -0.8385
 1036TIP3    H224524   5.757   1.505   1.526  2.0557  1.1004  0.5555
 1037TIP3   OH224525   4.411   2.457  14.358  0.2139 -0.6453  0.6269
 1037TIP3    H124526   4.416   2.382  14.299  0.4233 -0.9957  1.0736
 1037TIP3    H224527   4.434   2.420  14.444  2.3216  0.3054  0.5378
 1038TIP3   OH224528   6.378   1.298  12.839 -0.2314  0.6192 -0.4690
 1038TIP3    H124529   6.393   1.253  12.923  1.2494  2.3292  0.2495
 1038TIP3    H224530   6.327   1.375  12.862 -0.3959  0.7443 -1.2474
 1039TIP3   OH224531   2.140   0.059  16.082  0.5792 -0.2193  0.6003
 1039TIP3    H124532   2.082   0.111  16.027  0.4933 -1.0334 -0.1015
 1039TIP3    H224533   2.081   0.011  16.141  0.6753  0.7175  1.4855
 1040TIP3   OH224534   4.404   6.667   1.321 -0.3199  0.0268  0.2356
 1040TIP3    H124535   4.396   6.585   1.369 -0.0362 -1.0734 -1.4873
 1040TIP3    H224536   4.325   6.670   1.266  0.4554  0.0769 -0.9008
 1041TIP3   OH224537   2.945   2.519  14.727  0.6334 -0.0987  0.6482
 1041TIP3    H124538   2.967   2.445  14.671  1.1060  0.4631  0.0889
 1041TIP3    H224539   3.022   2.531  14.783  0.6950  0.2023  0.4958
 1042TIP3   OH224540   5.488   5.647  15.439  0.3897 -0.4602  0.0847
 1042TIP3    H124541   5.429   5.720  15.421 -1.6537 -1.8019  0.9372
 1042TIP3    H224542   5.555   5.684  15.496 -0.4497  0.8248  0.2845
 1043TIP3   OH224543   5.267   1.701   1.897 -0.4381  0.5602  0.1107
 1043TIP3    H124544   5.247   1.672   1.808  0.1462  0.2222  0.0795
 1043TIP3    H224545   5.293   1.792   1.887 -0.1144  0.4481 -0.1088
 1044TIP3   OH224546   2.497   3.618   0.561  0.1532  0.7781 -0.2176
 1044TIP3    H124547   2.527   3.671   0.634  1.6816  1.8595 -1.5474
 1044TIP3    H224548   2.418   3.575   0.593 -0.1637  2.4983  1.5010
 1045TIP3   OH224549   1.370   6.619  12.347 -0.3415 -0.2577  0.6973
 1045TIP3    H124550   1.345   6.648  12.434 -0.3501  0.9856  0.3022
 1045TIP3    H224551   1.288   6.597  12.304 -0.2999 -1.3442  1.1469
 1046TIP3   OH224552   2.878   4.088   3.849 -0.2350  0.4183 -0.2654
 1046TIP3    H124553   2.892   4.182   3.846 -1.1312  0.6968  2.2672
 1046TIP3    H224554   2.964   4.052   3.874  0.0022  0.5848 -0.8246
 1047TIP3   OH224555   3.596   3.514   5.730 -0.1229  0.2782 -0.5281
 1047TIP3    H124556   3.606   3.578   5.800 -2.7874  0.2445 -0.0034
 1047TIP3    H224557   3.567   3.566   5.654  0.0612 -0.0206 -0.8051
 1048TIP3   OH224558   0.017   5.758   0.210  0.0886 -0.6985 -0.0850
 1048TIP3    H124559   0.001   5.843   0.252 -1.5484 -0.7606 -0.5101
 1048TIP3    H224560   0.046   5.701   0.281  3.0622  0.6095 -0.0686
 1049TIP3   OH224561   2.899   5.982  12.793 -0.8234 -0.5919 -0.5179
 1049TIP3    H124562   2.866   6.058  12.746  1.4961  0.4545 -0.5885
 1049TIP3    H224563   2.905   5.913  12.727 -3.9559 -1.2530 -0.2292
 1050TIP3   OH224564   0.026   0.393  15.466 -0.3567  0.1162 -0.1065
 1050TIP3    H124565  -0.065   0.415  15.487 -0.5111  0.9948 -1.5335
 1050TIP3    H224566   0.019   0.335  15.390  0.2860  0.7209 -0.6386
 1051TIP3   OH224567   6.162   6.171  15.694 -0.4149 -0.5145  0.1109
 1051TIP3    H124568   6.194   6.081  15.683 -0.8364 -0.5475 -0.9739
 1051TIP3    H224569   6.075   6.170  15.654 -0.6524  0.2510  0.5885
 1052TIP3   OH224570   3.904   2.258  12.354 -0.0559  0.5885  0.0187
 1052TIP3    H124571   3.820   2.282  12.394  0.1493 -0.8433  1.3807
 1052TIP3    H224572   3.967   2.317  12.396 -0.1750  0.6982  0.0464
 1053TIP3   OH224573   3.668   1.856   1.318 -0.1122  0.0814 -0.7527
 1053TIP3    H124574   3.599   1.795   1.344  0.8850 -0.9321 -0.3979
 1053TIP3    H224575   3.658   1.930   1.377  0.2509 -0.8763  0.5353
 1054TIP3   OH224576   6.077   4.163  13.297  0.3091 -0.2422 -0.0470
 1054TIP3    H124577   6.146   4.105  13.265  0.2158 -0.7302  0.6091
 1054TIP3    H224578   6.008   4.156  13.231  0.8644  0.2246 -0.6878
 1055TIP3   OH224579   6.470   6.641   3.494  0.2297  0.3169  0.2653
 1055TIP3    H124580   6.461   6.564   3.437  2.2006 -0.4444  0.8809
 1055TIP3    H224581   6.422   6.617   3.573 -2.0846  1.1711 -0.8123
 1056TIP3   OH224582   3.131   1.269   5.250 -0.2793 -0.4279  0.2630
 1056TIP3    H124583   3.042   1.263   5.284 -0.2554  1.9268  0.9092
 1056TIP3    H224584   3.146   1.185   5.207 -3.3145 -0.3717 -1.1272
 1057TIP3   OH224585   6.720   6.479  13.214  0.3213 -0.1374  0.1761
 1057TIP3    H124586   6.743   6.485  13.121 -2.1177  0.5481 -0.4718
 1057TIP3    H224587   6.721   6.385  13.233 -0.0026 -0.3482 -0.7995
 1058TIP3   OH224588   2.412   4.081   1.470 -0.2979 -0.1157  0.1790
 1058TIP3    H124589   2.351   4.120   1.407 -2.1908 -1.1825  1.2649
 1058TIP3    H224590   2.377   4.106   1.555  1.3579  0.0378  0.8512
 1059TIP3   OH224591   3.724   4.321   2.359  0.1104  0.3635  0.3777
 1059TIP3    H124592   3.724   4.239   2.407  0.5543  0.8281  1.1987
 1059TIP3    H224593   3.754   4.386   2.423  0.4253  1.0466 -0.4483
 1060TIP3   OH224594   4.147   5.783   1.668  0.1603  0.2472  0.4625
 1060TIP3    H124595   4.204   5.796   1.592 -0.4904 -0.0973 -0.0917
 1060TIP3    H224596   4.140   5.870   1.707  0.1812  0.5038 -0.0994
 1061TIP3   OH224597   2.724   6.604  15.955 -0.3294 -0.2013 -0.1217
 1061TIP3    H124598   2.677   6.683  15.927 -1.1271 -0.2601  1.0251
 1061TIP3    H224599   2.685   6.581  16.039  2.5320  0.4345  1.5074
 1062TIP3   OH224600   4.111   2.592  13.666  0.2412 -0.4616 -1.1805
 1062TIP3    H124601   4.058   2.668  13.689  0.9749 -0.0216 -0.9122
 1062TIP3    H224602   4.062   2.517  13.700  0.8903  0.0893  1.1554
 1063TIP3   OH224603   3.773   5.270  15.571 -0.3729 -0.2904 -0.0138
 1063TIP3    H124604   3.802   5.274  15.480  0.2337  1.2868  0.2231
 1063TIP3    H224605   3.806   5.351  15.611 -3.4195  0.7031  0.7622
 1064TIP3   OH224606   5.674   4.690   4.317 -0.2494 -0.1974  0.1806
 1064TIP3    H124607   5.612   4.658   4.382 -1.8270  0.1852 -1.0577
 1064TIP3    H224608   5.633   4.670   4.233  0.6542  1.3157 -0.6671
 1065TIP3   OH224609   4.626   4.875  16.328 -0.0015  0.3467  0.3787
 1065TIP3    H124610   4.613   4.788  16.292  1.3134  0.3156 -0.0646
 1065TIP3    H224611   4.584   4.934  16.264 -0.5215  0.0718  0.4653
 1066TIP3   OH224612   4.924   0.527  13.326  0.5503  0.0267 -0.2003
 1066TIP3    H124613   4.931   0.461  13.257  0.3321  0.3112 -0.5021
 1066TIP3    H224614   4.842   0.573  13.306 -0.1216 -0.6510  0.9410
 1067TIP3   OH224615   3.878   2.601  15.170 -0.2006 -0.0400 -0.3453
 1067TIP3    H124616   3.953   2.541  15.170  0.1174  0.3157 -1.6083
 1067TIP3    H224617   3.890   2.653  15.250 -0.1237 -1.1981  0.4225
 1068TIP3   OH224618   0.054   4.183  10.822  0.7157 -0.3274  0.3314
 1068TIP3    H124619  -0.010   4.190  10.752  0.1284 -1.7143  0.6947
 1068TIP3    H224620   0.113   4.112  10.794  1.1365 -0.1392  0.7239
 1069TIP3   OH224621   2.947   4.432  15.577 -0.1767 -0.1545 -0.9277
 1069TIP3    H124622   3.028   4.481  15.591 -0.9781  0.9647 -0.0594
 1069TIP3    H224623   2.906   4.476  15.502  0.5364 -1.4338 -2.1031
 1070TIP3   OH224624   4.357   3.614   1.863 -0.1486 -0.3118  0.3019
 1070TIP3    H124625   4.355   3.684   1.929  1.7691  0.0589  0.0103
 1070TIP3    H224626   4.408   3.651   1.791 -2.1651 -0.7193 -1.4424
 1071TIP3   OH224627   0.543   2.840   4.562  0.0956 -0.1431  0.0433
 1071TIP3    H124628   0.480   2.832   4.634  0.7193  1.6845  0.8602
 1071TIP3    H224629   0.500   2.900   4.500  1.1302  1.4913  0.8213
 1072TIP3   OH224630   1.383   6.372   3.221 -0.5045  0.1048 -0.0469
 1072TIP3    H124631   1.410   6.313   3.151 -0.6369  1.7263 -1.5353
 1072TIP3    H224632   1.287   6.366   3.222 -0.5323  0.4471 -0.3603
 1073TIP3   OH224633   5.672   5.348   5.809  0.0329  0.2304  0.4043
 1073TIP3    H124634   5.664   5.256   5.787 -0.1630  0.2943  0.2032
 1073TIP3    H224635   5.582   5.377   5.824  0.0418  0.5234 -0.0884
 1074TIP3   OH224636   2.980   0.330  14.238  0.1443  0.4725  0.0174
 1074TIP3    H124637   2.894   0.295  14.212  0.1016  0.6508 -0.0894
 1074TIP3    H224638   2.959   0.410  14.286  0.2967  1.7541 -1.9108
 1075TIP3   OH224639   0.333   3.976   3.821  0.1729 -0.7546 -0.0525
 1075TIP3    H124640   0.264   4.034   3.790 -0.3176 -0.7654  0.9777
 1075TIP3    H224641   0.323   3.896   3.769 -0.0627 -0.4537 -0.4762
 1076TIP3   OH224642   4.869   0.769   3.886  0.0370 -0.2807  0.4947
 1076TIP3    H124643   4.937   0.836   3.879  0.1327 -0.3241  0.9589
 1076TIP3    H224644   4.787   0.816   3.873  0.1245 -0.1333  0.4741
 1077TIP3   OH224645   5.460   3.447  13.224 -0.4827 -0.6516 -0.4993
 1077TIP3    H124646   5.398   3.504  13.269 -0.5829 -1.3272  0.2499
 1077TIP3    H224647   5.541   3.497  13.220 -0.6802 -0.3056 -0.2252
 1078TIP3   OH224648   4.819   3.297   0.622 -0.2277  0.0031 -0.4464
 1078TIP3    H124649   4.755   3.368   0.615  0.9279  1.0811 -0.4935
 1078TIP3    H224650   4.853   3.287   0.533 -0.6431 -0.8747 -0.5137
 1079TIP3   OH224651   6.538   3.973   3.809 -0.1251 -0.3177 -0.2241
 1079TIP3    H124652   6.457   4.001   3.852 -0.3810 -1.3749  0.0184
 1079TIP3    H224653   6.596   4.049   3.814 -0.4793 -0.1231  1.1768
 1080TIP3   OH224654   1.106   3.132  11.983 -0.1938  0.6954 -0.6311
 1080TIP3    H124655   1.063   3.059  11.939 -0.4861  0.7346 -0.4192
 1080TIP3    H224656   1.176   3.093  12.034 -1.4131  0.3335  0.8592
 1081TIP3   OH224657   4.359   5.403   3.387 -0.5104  0.0107 -0.6824
 1081TIP3    H124658   4.285   5.343   3.389 -0.6920  0.2396 -0.4059
 1081TIP3    H224659   4.336   5.467   3.320  0.5347 -1.2920 -2.3480
 1082TIP3   OH224660   3.438   5.666  12.459 -0.6300 -0.3726  0.3704
 1082TIP3    H124661   3.393   5.737  12.505  0.1233  0.1576  0.3009
 1082TIP3    H224662   3.490   5.710  12.392  2.8072 -0.5586  2.6647
 1083TIP3   OH224663   1.620   2.759   4.846 -0.1830 -0.0538 -0.4319
 1083TIP3    H124664   1.537   2.736   4.890  0.1657 -1.5469 -0.4965
 1083TIP3    H224665   1.603   2.845   4.808 -1.2209  0.3299  0.7876
 1084TIP3   OH224666   4.089   6.164  15.762  0.0495 -0.2648  0.5407
 1084TIP3    H124667   4.052   6.077  15.781 -2.6489  0.8953  1.0985
 1084TIP3    H224668   4.100   6.165  15.667 -1.9909 -0.5288  0.2464
 1085TIP3   OH224669   4.824   5.532  17.296 -0.3221  0.2516 -0.2339
 1085TIP3    H124670   4.798   5.441  17.284  0.7946 -0.0421 -0.5857
 1085TIP3    H224671   4.788   5.557  17.382 -1.1990 -0.2969 -0.4288
 1086TIP3   OH224672   2.678   6.122  16.295 -0.1946  0.5373  0.0996
 1086TIP3    H124673   2.766   6.158  16.307 -0.3918  0.9468  0.3493
 1086TIP3    H224674   2.654   6.087  16.381  0.9133 -2.3489 -0.6691
 1087TIP3   OH224675   0.594   4.874  14.699  0.6527  0.2286  0.5030
 1087TIP3    H124676   0.609   4.959  14.742  0.9854 -0.7456  2.3935
 1087TIP3    H224677   0.681   4.841  14.678  0.5465  0.1261  0.2161
 1088TIP3   OH224678   5.992   2.446  15.415  1.0242 -0.2435  0.2813
 1088TIP3    H124679   5.995   2.462  15.509  0.7468  0.2114  0.2196
 1088TIP3    H224680   6.029   2.359  15.404  0.2643 -0.6538  0.8964
 1089TIP3   OH224681   1.154   6.044   2.115  0.4155  0.5152 -0.0677
 1089TIP3    H124682   1.106   5.976   2.162  2.6996 -0.6780  0.7096
 1089TIP3    H224683   1.137   6.026   2.022  2.0694 -2.1096  0.0394
 1090TIP3   OH224684   6.479   1.992   2.048  0.6003 -0.1514 -0.3488
 1090TIP3    H124685   6.555   1.987   2.107  0.5524  0.4163 -0.2304
 1090TIP3    H224686   6.496   2.069   1.994  1.2999 -1.4115 -2.0310
 1091TIP3   OH224687   5.773   0.829   5.453  0.1020  0.3468 -0.4670
 1091TIP3    H124688   5.839   0.767   5.422 -0.5942 -1.8404  2.0316
 1091TIP3    H224689   5.694   0.776   5.464 -0.6593  1.7547  1.3963
 1092TIP3   OH224690   3.873   3.507   5.444  0.0653  0.2194 -0.3219
 1092TIP3    H124691   3.817   3.465   5.379  0.1624 -0.0707 -0.2229
 1092TIP3    H224692   3.917   3.577   5.397  0.8269 -0.5626 -0.7960
 1093TIP3   OH224693   1.971   5.281   1.997 -0.9806 -0.2649  0.3453
 1093TIP3    H124694   2.015   5.351   1.949 -0.7265  0.1186  1.1113
 1093TIP3    H224695   1.949   5.215   1.931 -1.0094  0.4319 -0.3419
 1094TIP3   OH224696   5.631   0.121   5.876  0.0274 -0.1547  0.2581
 1094TIP3    H124697   5.619   0.155   5.964  1.1063 -1.2504  0.8557
 1094TIP3    H224698   5.681   0.189   5.830  0.8511 -0.2645  0.9780
 1095TIP3   OH224699   4.276   0.444   1.249  0.2234  0.3309 -0.0677
 1095TIP3    H124700   4.223   0.374   1.211 -2.4858  2.2858 -0.2257
 1095TIP3    H224701   4.259   0.439   1.343 -0.1000  0.8264 -0.0945
 1096TIP3   OH224702   0.324   2.676   5.527  0.4719 -0.3230 -0.1581
 1096TIP3    H124703   0.311   2.674   5.622  2.2275  2.5387  0.2784
 1096TIP3    H224704   0.413   2.643   5.515  1.1219  1.4452 -0.4894
 1097TIP3   OH224705   1.115   3.207   3.101  0.0549 -0.2591  0.5958
 1097TIP3    H124706   1.103   3.299   3.126 -0.8348 -0.4649  0.9560
 1097TIP3    H224707   1.057   3.195   3.026  1.2942 -0.1492 -0.4156
 1098TIP3   OH224708   2.622   0.421   0.896  0.0498  0.0295  0.1194
 1098TIP3    H124709   2.691   0.413   0.962 -0.8151  0.7305  1.1279
 1098TIP3    H224710   2.541   0.429   0.946 -0.6438  0.4044 -1.0276
 1099TIP3   OH224711   6.586   3.594  14.281  0.2045  0.5309  0.2605
 1099TIP3    H124712   6.631   3.649  14.217  0.6021 -0.0688  0.0102
 1099TIP3    H224713   6.621   3.506  14.265 -0.7106  0.1312  0.3777
 1100TIP3   OH224714   1.968   3.088  15.654  0.1388 -0.4519 -0.5128
 1100TIP3    H124715   1.989   2.996  15.641  0.5707 -0.3008 -0.8883
 1100TIP3    H224716   2.020   3.135  15.588 -1.2401 -0.0672 -1.3866
 1101TIP3   OH224717   2.052   6.239   2.105 -0.2817 -0.1513 -0.0595
 1101TIP3    H124718   2.083   6.170   2.163 -0.9851 -1.3169 -1.0416
 1101TIP3    H224719   1.977   6.277   2.152  1.1968  1.2206  1.3134
 1102TIP3   OH224720   6.255   2.789  14.155  0.2193 -0.6663 -0.7360
 1102TIP3    H124721   6.275   2.881  14.173 -0.8403 -0.2356 -1.5762
 1102TIP3    H224722   6.203   2.761  14.230  0.4436 -0.5441 -0.5330
 1103TIP3   OH224723   1.295   3.456  12.998 -0.1619 -0.5030  0.1758
 1103TIP3    H124724   1.373   3.512  12.996  0.4009 -1.2691  0.1900
 1103TIP3    H224725   1.236   3.500  13.059  0.5257 -0.2386  0.6722
 1104TIP3   OH224726   6.184   6.552   1.785 -0.8235 -0.6855  0.5146
 1104TIP3    H124727   6.131   6.623   1.822 -0.5057  0.4286 -1.0799
 1104TIP3    H224728   6.206   6.581   1.697 -2.0000 -3.4382 -0.8373
 1105TIP3   OH224729   4.238   2.473  14.698  0.4813 -0.1626  0.4558
 1105TIP3    H124730   4.156   2.499  14.657  0.7857 -0.5823 -0.4384
 1105TIP3    H224731   4.219   2.471  14.792 -0.2366  0.7619  0.3410
 1106TIP3   OH224732   6.369   5.501   1.519  0.1356 -0.0384  0.8156
 1106TIP3    H124733   6.275   5.504   1.502 -0.1220 -1.4509  1.8259
 1106TIP3    H224734   6.408   5.470   1.437 -0.1765  1.2694  0.1518
 1107TIP3   OH224735   6.112   2.640  14.642 -0.0973 -0.1012  0.2421
 1107TIP3    H124736   6.027   2.682  14.628  0.3265  1.0117  0.8726
 1107TIP3    H224737   6.093   2.568  14.703 -0.5207  0.4408  0.7670
 1108TIP3   OH224738   1.434   5.480   4.777  0.4391 -0.2427 -0.9325
 1108TIP3    H124739   1.480   5.403   4.809 -1.5867 -0.9757  0.4404
 1108TIP3    H224740   1.378   5.447   4.706  0.3958  0.1843 -1.1009
 1109TIP3   OH224741   0.071   1.833   5.744  0.0380  0.1160 -0.7346
 1109TIP3    H124742   0.073   1.773   5.670 -0.5525 -0.7444 -0.0800
 1109TIP3    H224743   0.086   1.778   5.821 -3.0332  0.3132  0.1493
 1110TIP3   OH224744   3.260   4.447   2.738  0.3946  0.6309 -0.2242
 1110TIP3    H124745   3.315   4.458   2.816 -0.2511 -0.7178  0.4481
 1110TIP3    H224746   3.171   4.441   2.773  0.1216 -0.2369 -1.0341
 1111TIP3   OH224747   1.797   3.560   3.823  0.6670  0.2657 -0.9343
 1111TIP3    H124748   1.768   3.551   3.914  2.5636  0.9559 -0.2094
 1111TIP3    H224749   1.856   3.635   3.824  0.0488  0.8402 -2.9395
 1112TIP3   OH224750   6.059   4.409  13.794 -0.1061  0.3675  0.1254
 1112TIP3    H124751   6.006   4.427  13.872  0.3544 -2.2971  1.1419
 1112TIP3    H224752   6.015   4.337  13.751  1.0160  0.1566 -0.7164
 1113TIP3   OH224753   3.845   0.251   3.860 -0.3304 -0.4203  0.2001
 1113TIP3    H124754   3.820   0.264   3.768  1.8213  1.7694 -0.1603
 1113TIP3    H224755   3.841   0.156   3.872  1.6334 -1.0325 -2.9086
 1114TIP3   OH224756   4.220   4.921  12.020 -0.2646 -0.0584 -0.0204
 1114TIP3    H124757   4.217   4.825  12.024 -2.9215  0.0176  2.0485
 1114TIP3    H224758   4.265   4.947  12.101 -1.1636  0.4659  0.3194
 1115TIP3   OH224759   4.535   0.533   2.625  0.6138 -0.5709  1.0070
 1115TIP3    H124760   4.595   0.607   2.615 -0.2345 -0.1510 -1.8634
 1115TIP3    H224761   4.578   0.460   2.580 -1.2024 -0.0689 -1.7603
 1116TIP3   OH224762   3.070   2.918  13.334  0.2658 -0.0132 -0.3379
 1116TIP3    H124763   3.157   2.879  13.346  0.2204  0.4302  1.9082
 1116TIP3    H224764   3.076   2.963  13.249  1.8179 -0.9822 -0.7889
 1117TIP3   OH224765   3.899   4.981  13.067  0.3001 -0.5862 -0.0009
 1117TIP3    H124766   3.964   4.953  13.003  1.7470  0.8755  0.7289
 1117TIP3    H224767   3.935   5.063  13.102 -1.2490 -0.4887  1.4737
 1118TIP3   OH224768   4.031   6.021  14.877  0.8247  0.2900 -0.7655
 1118TIP3    H124769   4.053   6.114  14.880 -0.3011  0.5720 -0.7634
 1118TIP3    H224770   4.051   5.995  14.786  0.0083  0.8326 -1.1057
 1119TIP3   OH224771   3.574   5.107  14.042  0.4550 -0.9318 -0.7350
 1119TIP3    H124772   3.509   5.155  14.093 -0.1446 -1.8472 -0.6287
 1119TIP3    H224773   3.553   5.128  13.951  0.4187 -0.7196 -0.6791
 1120TIP3   OH224774   3.482   5.081   2.228 -0.4062  0.2650  0.1116
 1120TIP3    H124775   3.408   5.065   2.287  0.7038  0.0502  1.5060
 1120TIP3    H224776   3.457   5.160   2.179 -0.8798  1.1710  1.7342
 1121TIP3   OH224777   4.434   2.759  11.767  0.4624 -0.0096  0.0617
 1121TIP3    H124778   4.454   2.852  11.782 -0.1424 -0.0300  1.1397
 1121TIP3    H224779   4.339   2.757  11.755  0.6978 -0.2499 -2.1094
 1122TIP3   OH224780   0.401   5.153  13.809  0.2832  0.5197 -0.2972
 1122TIP3    H124781   0.406   5.219  13.878 -0.4512  0.4068 -0.1213
 1122TIP3    H224782   0.361   5.199  13.735  0.0599  0.3544 -0.2793
 1123TIP3   OH224783   0.538   1.130  14.897 -0.2425  0.1364 -0.1003
 1123TIP3    H124784   0.567   1.043  14.870  0.5972  0.1544  0.7111
 1123TIP3    H224785   0.464   1.113  14.956 -0.1523 -0.0172 -0.0317
 1124TIP3   OH224786   5.276   0.617  15.175 -0.1492  0.8565  0.3606
 1124TIP3    H124787   5.341   0.564  15.128  0.6250  1.7541  0.4007
 1124TIP3    H224788   5.210   0.636  15.109 -0.9431 -0.9376  0.5794
 1125TIP3   OH224789   5.380   2.438   2.644  0.0563  0.0718  0.1202
 1125TIP3    H124790   5.328   2.449   2.564 -0.5852 -1.5067  0.2806
 1125TIP3    H224791   5.323   2.471   2.714 -1.0076 -2.0695  0.3529
 1126TIP3   OH224792   4.961   0.756  15.166 -0.1324 -0.5978  0.3353
 1126TIP3    H124793   4.953   0.848  15.191 -0.3136 -0.7792  0.9827
 1126TIP3    H224794   5.031   0.754  15.101  0.5968 -0.1371  1.0871
 1127TIP3   OH224795   1.425   4.286  13.465  0.4465 -0.0045  0.2854
 1127TIP3    H124796   1.451   4.262  13.376 -1.6035 -0.3422 -0.2580
 1127TIP3    H224797   1.360   4.355  13.454 -1.2223 -1.3215  1.4055
 1128TIP3   OH224798   5.004   3.391  15.646  0.0845 -0.4260 -0.1947
 1128TIP3    H124799   5.050   3.409  15.564  1.0641 -3.1115 -0.3385
 1128TIP3    H224800   4.934   3.330  15.621 -1.4325  0.9457  0.5703
 1129TIP3   OH224801   5.694   6.537   5.116 -0.2882  0.9247 -0.2157
 1129TIP3    H124802   5.707   6.617   5.166  0.6785  0.2282  0.6773
 1129TIP3    H224803   5.753   6.473   5.156 -1.3966 -0.3838 -0.5771
 1130TIP3   OH224804   2.702   6.312  17.141 -0.2098  0.2395 -0.0563
 1130TIP3    H124805   2.668   6.388  17.188 -1.5784 -1.5412  2.0898
 1130TIP3    H224806   2.782   6.289  17.188 -1.1307 -1.0389  1.0027
 1131TIP3   OH224807   2.063   3.966   2.534 -0.7737  0.0358  0.1659
 1131TIP3    H124808   2.009   4.042   2.516 -0.8746 -0.5873 -2.5468
 1131TIP3    H224809   2.044   3.905   2.463  1.4532 -1.3343  0.6401
 1132TIP3   OH224810   2.450   3.973   2.287  0.4554  0.3379 -0.1961
 1132TIP3    H124811   2.536   4.011   2.306  1.0585 -0.4441 -1.2607
 1132TIP3    H224812   2.469   3.886   2.252 -0.7722  0.1714 -0.5056
 1133TIP3   OH224813   0.451   0.359  14.099 -0.1041  0.3119  0.0776
 1133TIP3    H124814   0.392   0.351  14.173 -1.3311  0.1267 -0.8897
 1133TIP3    H224815   0.485   0.449  14.105  1.3541 -0.3120  1.9414
 1134TIP3   OH224816   5.199   5.285  11.473 -0.1446 -0.1669  0.3980
 1134TIP3    H124817   5.203   5.245  11.386 -0.6725  2.7451 -1.0985
 1134TIP3    H224818   5.123   5.244  11.514 -0.1257 -1.3341 -0.6514
 1135TIP3   OH224819   2.191   4.360  12.936 -0.0192  0.3943 -0.6527
 1135TIP3    H124820   2.205   4.284  12.879 -1.1311 -0.1025 -0.2931
 1135TIP3    H224821   2.124   4.412  12.891  1.0134  1.3821 -1.0865
 1136TIP3   OH224822   3.710   6.496   6.623 -0.3721  0.4659  0.1095
 1136TIP3    H124823   3.680   6.559   6.559  0.6220  1.3485  0.4815
 1136TIP3    H224824   3.713   6.413   6.576 -1.3510  0.7516 -0.4804
 1137TIP3   OH224825   0.727   2.699  11.607  0.0620 -0.4801  0.4521
 1137TIP3    H124826   0.670   2.664  11.539 -0.3206 -0.0651  0.5526
 1137TIP3    H224827   0.702   2.651  11.686 -0.5160  0.0560  0.6064
 1138TIP3   OH224828   4.652   3.501   2.148 -0.0743  0.2924  0.2068
 1138TIP3    H124829   4.574   3.480   2.096 -0.7480 -0.1575  1.3588
 1138TIP3    H224830   4.617   3.527   2.233  1.0525 -0.1738  0.8288
 1139TIP3   OH224831   6.364   3.672   5.484  0.0460 -0.1212 -0.3242
 1139TIP3    H124832   6.384   3.587   5.445  0.1915 -0.5565  0.6505
 1139TIP3    H224833   6.290   3.655   5.542  0.3525  0.3138  0.2064
 1140TIP3   OH224834   5.995   6.334   0.578  0.1318 -0.1710 -0.6933
 1140TIP3    H124835   5.988   6.368   0.488 -0.3521 -0.7033 -0.8608
 1140TIP3    H224836   5.927   6.268   0.583 -0.3654  0.4025  0.3187
 1141TIP3   OH224837   5.612   1.617  10.936 -0.3381  0.2751 -0.3048
 1141TIP3    H124838   5.582   1.697  10.893 -1.8104  0.7123  1.4104
 1141TIP3    H224839   5.543   1.553  10.918  0.0351 -0.1301 -0.2991
 1142TIP3   OH224840   1.757   3.769   4.696  0.1006  0.0979 -0.1814
 1142TIP3    H124841   1.731   3.860   4.677 -1.8496 -0.2528  0.5225
 1142TIP3    H224842   1.717   3.718   4.626 -1.4681 -0.5011  1.0916
 1143TIP3   OH224843   6.229   1.655  10.862 -0.1065  0.2375 -0.6029
 1143TIP3    H124844   6.230   1.683  10.954  0.3192 -1.1098 -0.1590
 1143TIP3    H224845   6.306   1.599  10.854  0.9113  1.7967 -2.2997
 1144TIP3   OH224846   3.364   6.377   4.767 -0.1884 -0.3459  0.2334
 1144TIP3    H124847   3.297   6.346   4.828 -1.0628 -2.1854 -1.5735
 1144TIP3    H224848   3.442   6.326   4.789 -0.0546  0.0672  0.7503
 1145TIP3   OH224849   4.528   4.351   0.099  0.0403 -0.1574 -0.0541
 1145TIP3    H124850   4.622   4.356   0.120  0.0166  0.5828 -0.0924
 1145TIP3    H224851   4.525   4.305   0.015  0.1719 -2.6402  1.2071
 1146TIP3   OH224852   6.643   3.783  12.241  0.4998 -0.4121  0.2718
 1146TIP3    H124853   6.648   3.874  12.271  0.0036 -1.0957  2.6541
 1146TIP3    H224854   6.549   3.766  12.233  0.5754 -0.8642  0.3508
 1147TIP3   OH224855   0.320   5.318  16.363  0.1161 -0.9378  0.3248
 1147TIP3    H124856   0.294   5.229  16.386 -1.8557 -0.4807  0.0934
 1147TIP3    H224857   0.304   5.324  16.268  0.5980 -0.4562  0.2694
 1148TIP3   OH224858   4.963   6.584  16.502 -0.4538 -0.1192 -0.6012
 1148TIP3    H124859   4.893   6.520  16.485 -0.6081 -0.2852  0.5807
 1148TIP3    H224860   4.918   6.669  16.503 -1.2903 -0.4357  3.1748
 1149TIP3   OH224861   4.321   5.411   2.234 -0.0808  0.4438  0.0138
 1149TIP3    H124862   4.366   5.408   2.318  2.1585 -0.6346 -1.1249
 1149TIP3    H224863   4.304   5.504   2.219  0.6721  0.7650  1.0558
 1150TIP3   OH224864   6.028   4.201  10.584 -0.0559  0.1991 -0.4596
 1150TIP3    H124865   6.022   4.295  10.602  2.2280  0.1006  1.2484
 1150TIP3    H224866   5.965   4.161  10.644 -1.4036  0.6128 -1.5415
 1151TIP3   OH224867   3.043   3.394   0.214 -0.3453 -0.3064  0.0529
 1151TIP3    H124868   2.989   3.466   0.247 -0.1334 -0.6164  1.0954
 1151TIP3    H224869   3.040   3.328   0.282  0.2610 -0.8907 -0.4684
 1152TIP3   OH224870   6.359   1.503   5.047 -0.0118 -0.5066 -0.0658
 1152TIP3    H124871   6.364   1.410   5.023  2.6568 -0.4183 -0.1703
 1152TIP3    H224872   6.436   1.518   5.103 -1.7216  1.1239  2.0191
 1153TIP3   OH224873   2.256   4.006  17.304  0.1862 -0.4467  0.6262
 1153TIP3    H124874   2.349   3.988  17.288  0.2242  0.0940  0.1941
 1153TIP3    H224875   2.255   4.063  17.381  0.2789  0.2670  0.1109
 1154TIP3   OH224876   5.365   3.459   5.366  0.2112 -0.0370 -0.2679
 1154TIP3    H124877   5.355   3.445   5.460  0.2008 -0.0320 -0.2684
 1154TIP3    H224878   5.360   3.371   5.328 -0.7351  0.0426 -0.3507
 1155TIP3   OH224879   1.591   2.435  12.208  0.3619  0.2958 -0.1549
 1155TIP3    H124880   1.600   2.529  12.189  1.7919  0.2020 -0.0799
 1155TIP3    H224881   1.596   2.393  12.123  0.6696  0.2453 -0.1150
 1156TIP3   OH224882   6.756   3.918  14.924  0.3206 -0.3030  0.3221
 1156TIP3    H124883   6.821   3.863  14.880  0.0920  0.7581 -1.4186
 1156TIP3    H224884   6.678   3.910  14.870 -0.2282  0.4240  0.9930
 1157TIP3   OH224885   3.825   0.762   1.593  0.3380  0.2088  0.1651
 1157TIP3    H124886   3.920   0.766   1.590  0.2921  0.8085 -0.8490
 1157TIP3    H224887   3.801   0.818   1.667  0.7079  1.6533 -0.7650
 1158TIP3   OH224888   5.864   3.520   0.487 -0.1161 -0.4006 -0.1721
 1158TIP3    H124889   5.770   3.536   0.495  0.0690 -0.0351  2.0914
 1158TIP3    H224890   5.892   3.500   0.576  1.8507 -1.2144 -0.9155
 1159TIP3   OH224891   1.896   4.894  17.365  0.1155 -0.6767 -0.6625
 1159TIP3    H124892   1.877   4.973  17.416  0.9475 -0.3619 -0.8240
 1159TIP3    H224893   1.910   4.926  17.276  1.2256 -0.8998 -0.5804
 1160TIP3   OH224894   2.666   6.666  12.914 -0.0630 -0.4151 -0.1320
 1160TIP3    H124895   2.616   6.702  12.840  0.4337 -0.9638 -0.7534
 1160TIP3    H224896   2.600   6.641  12.978 -0.5670 -0.8453 -0.8111
 1161TIP3   OH224897   5.679   4.579  11.868 -0.4774 -0.8353  0.2432
 1161TIP3    H124898   5.698   4.628  11.948  0.6494 -0.2597 -0.3572
 1161TIP3    H224899   5.761   4.581  11.818 -1.8592  1.3519 -2.2586
 1162TIP3   OH224900   2.050   4.364   5.800  0.9781 -0.0971  0.1068
 1162TIP3    H124901   1.991   4.289   5.809  1.0565 -0.0385  1.2042
 1162TIP3    H224902   2.135   4.324   5.782  0.9036 -0.2473  0.0820
 1163TIP3   OH224903   3.742   3.795  17.247  0.7687 -0.7923 -0.3209
 1163TIP3    H124904   3.802   3.758  17.312  0.2077 -2.2051 -0.5706
 1163TIP3    H224905   3.655   3.778  17.281  0.4754 -0.8193 -1.0565
 1164TIP3   OH224906   6.619   6.078  11.526  0.2625 -0.4160 -0.5061
 1164TIP3    H124907   6.658   5.991  11.518  3.0730  0.7655 -1.0021
 1164TIP3    H224908   6.612   6.093  11.620 -0.4223 -1.2282 -0.4182
 1165TIP3   OH224909   5.901   0.161   1.159 -0.4053 -0.2138  0.4243
 1165TIP3    H124910   5.837   0.190   1.224  1.2435  0.8613  1.6379
 1165TIP3    H224911   5.898   0.228   1.091 -0.0094  0.2789  0.8833
 1166TIP3   OH224912   1.234   6.108   5.874 -0.7497  0.4278  0.3776
 1166TIP3    H124913   1.223   6.016   5.850  0.2113  0.0353  1.3344
 1166TIP3    H224914   1.170   6.122   5.944  0.6782 -0.1987  1.8604
 1167TIP3   OH224915   2.074   5.253   0.827  0.2150 -0.0378 -0.3312
 1167TIP3    H124916   2.018   5.180   0.850  0.3327 -0.3462 -1.0015
 1167TIP3    H224917   2.025   5.331   0.856  0.2815 -0.3869  0.7703
 1168TIP3   OH224918   6.407   3.060  10.760  0.0287  0.1185  0.6931
 1168TIP3    H124919   6.386   3.058  10.853  1.4249  0.1543  1.0261
 1168TIP3    H224920   6.436   2.971  10.740  1.5276  0.5838  0.7410
 1169TIP3   OH224921   6.066   3.557  11.377  0.4270  0.9448  0.3239
 1169TIP3    H124922   6.143   3.575  11.431  0.2760 -0.9366  1.2631
 1169TIP3    H224923   6.068   3.462  11.364 -1.2683  0.9676 -0.3393
 1170TIP3   OH224924   3.355   1.070  16.437 -0.4746 -0.6696 -0.1571
 1170TIP3    H124925   3.429   1.130  16.426  0.1907 -1.6284 -0.9726
 1170TIP3    H224926   3.328   1.047  16.348 -1.6301 -0.5134  0.1254
 1171TIP3   OH224927   5.530   4.999  16.010 -0.5143 -0.1002  0.1138
 1171TIP3    H124928   5.478   4.956  15.943  0.9166 -1.3068 -0.2934
 1171TIP3    H224929   5.592   4.931  16.039 -0.3176  0.7488  1.7974
 1172TIP3   OH224930   1.515   6.521  11.886  0.2562 -0.3923 -1.0730
 1172TIP3    H124931   1.531   6.427  11.873  0.5734 -0.5200  0.1192
 1172TIP3    H224932   1.429   6.524  11.930  1.3757 -0.3286  1.2717
 1173TIP3   OH224933   1.369   1.745   0.350 -0.1457  0.3725 -0.4705
 1173TIP3    H124934   1.421   1.788   0.282  1.4040  0.2227  0.5794
 1173TIP3    H224935   1.361   1.810   0.419 -1.0477  0.2574 -0.4603
 1174TIP3   OH224936   5.378   0.982   6.059  0.4036 -0.3628 -0.1412
 1174TIP3    H124937   5.379   0.934   5.977  0.9358  0.5610 -0.6811
 1174TIP3    H224938   5.331   0.923   6.120  0.8037 -1.4379 -0.8396
 1175TIP3   OH224939   5.673   1.104   2.952 -0.3461 -0.2950  0.1522
 1175TIP3    H124940   5.660   1.026   3.005 -0.6000 -0.6447 -0.4220
 1175TIP3    H224941   5.754   1.143   2.987  0.0350 -1.0584  0.1467
 1176TIP3   OH224942   4.388   5.329   1.963  0.0148 -0.0934  0.2873
 1176TIP3    H124943   4.307   5.317   1.913 -1.1173  1.9725  1.4900
 1176TIP3    H224944   4.365   5.302   2.052  0.7239  0.2576  0.5812
 1177TIP3   OH224945   4.757   3.705   4.670  0.3859  0.3511 -0.1649
 1177TIP3    H124946   4.723   3.706   4.581  0.0611  1.7233 -0.0532
 1177TIP3    H224947   4.841   3.659   4.664  0.2509  0.2220 -1.1348
 1178TIP3   OH224948   3.447   2.184   3.540 -0.4066  0.2152  0.3163
 1178TIP3    H124949   3.407   2.098   3.534  1.1507 -0.6199  1.2584
 1178TIP3    H224950   3.429   2.225   3.455  0.2704 -1.6978 -0.8079
 1179TIP3   OH224951   0.516   6.332  14.660 -0.1554 -0.6699  0.3682
 1179TIP3    H124952   0.519   6.271  14.733 -0.9519 -1.3873 -0.1670
 1179TIP3    H224953   0.487   6.278  14.586  0.1255  0.1485 -0.3464
 1180TIP3   OH224954   5.736   1.339   5.266 -0.0175 -0.6224  0.4962
 1180TIP3    H124955   5.745   1.261   5.321 -2.6935 -1.0118  0.5201
 1180TIP3    H224956   5.662   1.320   5.209  0.0454  1.4310 -0.3621
 1181TIP3   OH224957   3.076   0.728  15.300  0.1109  0.3204 -0.1310
 1181TIP3    H124958   3.039   0.769  15.377  0.3676 -0.8069  0.6083
 1181TIP3    H224959   3.163   0.769  15.291  0.6531 -0.5246  1.0128
 1182TIP3   OH224960   5.818   3.593   5.046 -0.6611 -0.2039  0.1983
 1182TIP3    H124961   5.755   3.665   5.050  0.2101  0.6676 -0.9149
 1182TIP3    H224962   5.841   3.587   4.953  1.0302 -0.3581  0.5944
 1183TIP3   OH224963   2.677   5.808  14.536  0.2366  0.2819 -0.1314
 1183TIP3    H124964   2.644   5.726  14.572  0.0299 -0.2354 -1.4373
 1183TIP3    H224965   2.738   5.841  14.602 -1.1861  0.1107  1.3243
 1184TIP3   OH224966   3.739   1.585   5.610 -0.6091  0.6181  0.2638
 1184TIP3    H124967   3.720   1.558   5.520 -1.6770  0.0857  0.6348
 1184TIP3    H224968   3.655   1.580   5.655 -0.2393  1.6548  1.1039
 1185TIP3   OH224969   6.611   0.053  16.939  0.0134  0.0808 -0.1130
 1185TIP3    H124970   6.635   0.142  16.912  1.8365 -0.1622  0.5685
 1185TIP3    H224971   6.642   0.046  17.029 -0.7386 -1.0322  0.0745
 1186TIP3   OH224972   4.620   5.602   5.780  0.1357  0.0027 -0.0850
 1186TIP3    H124973   4.567   5.523   5.773 -0.0181 -0.0233  1.1211
 1186TIP3    H224974   4.561   5.667   5.819  0.9325 -0.0071  1.2218
 1187TIP3   OH224975   3.838   0.649  11.829 -0.2854  0.6930  0.3758
 1187TIP3    H124976   3.841   0.743  11.813 -0.0160  0.4031 -1.5448
 1187TIP3    H224977   3.745   0.627  11.825 -0.2997  0.7834  0.2164
 1188TIP3   OH224978   4.779   5.111   4.512  0.2566  0.1401  0.4737
 1188TIP3    H124979   4.745   5.023   4.531  0.0945  0.1828  0.3790
 1188TIP3    H224980   4.769   5.121   4.418  2.1873 -0.5493  0.1402
 1189TIP3   OH224981   5.289   5.965   5.504 -0.1501 -0.0372 -0.3111
 1189TIP3    H124982   5.272   5.899   5.571  0.6828 -0.4197 -0.4680
 1189TIP3    H224983   5.315   5.915   5.427  1.5785  0.4969 -0.1161
 1190TIP3   OH224984   4.151   2.070   2.095  0.1972 -0.2330  0.0963
 1190TIP3    H124985   4.174   2.068   2.002  0.3169  1.4241  0.0502
 1190TIP3    H224986   4.141   2.164   2.115  0.5575 -0.5361  1.8484
 1191TIP3   OH224987   3.569   3.309   0.971  0.6548  0.1175  0.1816
 1191TIP3    H124988   3.626   3.240   1.005  1.6939  0.7344 -0.2947
 1191TIP3    H224989   3.599   3.389   1.013 -1.0208  0.2267  1.3016
 1192TIP3   OH224990   0.846   0.299   1.043  0.0413  0.9965 -0.3368
 1192TIP3    H124991   0.838   0.320   0.950 -0.6048  2.0252 -0.0624
 1192TIP3    H224992   0.874   0.207   1.044 -1.5820  0.4302 -1.5407
 1193TIP3   OH224993   6.329   4.018   2.038  0.1108 -1.0758 -0.3351
 1193TIP3    H124994   6.365   4.095   1.994 -2.5797 -0.3932 -1.5143
 1193TIP3    H224995   6.383   3.946   2.007  1.4088  0.0444 -0.8047
 1194TIP3   OH224996   6.159   6.544  10.520  0.0434  0.1807 -0.3781
 1194TIP3    H124997   6.102   6.472  10.545 -0.7956  1.1911  0.7528
 1194TIP3    H224998   6.099   6.617  10.502  0.8853  0.7190 -1.1074
 1195TIP3   OH224999   1.247   4.228  12.430  0.2553 -1.1987 -0.4893
 1195TIP3    H125000   1.238   4.140  12.467 -0.8116 -0.9574 -0.1446
 1195TIP3    H225001   1.249   4.286  12.506 -0.8118 -0.7929 -0.7518
 1196TIP3   OH225002   4.879   3.500  12.662 -0.4209 -0.4048  0.1902
 1196TIP3    H125003   4.885   3.525  12.570 -2.7757 -1.3818 -0.3100
 1196TIP3    H225004   4.865   3.405  12.660 -0.9831 -0.3658  1.5214
 1197TIP3   OH225005   4.635   3.772  11.592 -0.4583 -0.0167  0.2888
 1197TIP3    H125006   4.618   3.788  11.499 -1.4406  0.6675  0.5704
 1197TIP3    H225007   4.727   3.745  11.595 -0.4081 -0.0253 -0.8763
 1198TIP3   OH225008   4.860   6.207   5.861  0.0974 -0.1345 -0.4141
 1198TIP3    H125009   4.850   6.168   5.774  0.0349 -0.8289 -0.1078
 1198TIP3    H225010   4.774   6.195   5.902  0.9311 -2.6015  0.8314
 1199TIP3   OH225011   4.345   4.749  11.615  0.4179  0.1525 -0.4709
 1199TIP3    H125012   4.334   4.685  11.546  0.7454  0.8776 -1.2170
 1199TIP3    H225013   4.339   4.834  11.571 -2.4620  0.7385  0.8150
 1200TIP3   OH225014   3.439   2.962  15.344  0.2530  0.2855 -0.3369
 1200TIP3    H125015   3.404   2.907  15.415  1.3244 -0.6990 -0.5409
 1200TIP3    H225016   3.527   2.929  15.329  0.2253  0.7901 -1.8028
 1201TIP3   OH225017   1.155   0.679  15.040 -0.6730 -0.1736 -0.3564
 1201TIP3    H125018   1.065   0.690  15.009 -0.8852 -2.4048 -0.7311
 1201TIP3    H225019   1.209   0.707  14.967 -1.1535 -2.5123 -1.7177
 1202TIP3   OH225020   1.105   3.097  11.048  0.1209 -0.4224  0.4273
 1202TIP3    H125021   1.149   3.179  11.026  0.3424 -1.0421 -1.5947
 1202TIP3    H225022   1.153   3.064  11.124 -0.5832  1.7458  1.9030
 1203TIP3   OH225023   1.327   3.357  13.485  0.0010 -0.1875 -0.1142
 1203TIP3    H125024   1.237   3.338  13.509 -0.2279 -0.2434 -1.0042
 1203TIP3    H225025   1.357   3.419  13.552 -0.7225 -0.0865  0.1212
 1204TIP3   OH225026   0.888   5.835  17.138 -0.0815  0.3277 -0.2010
 1204TIP3    H125027   0.926   5.909  17.089 -0.0382  0.5297  0.1363
 1204TIP3    H225028   0.795   5.836  17.115  0.1792 -0.4167 -1.3498
 1205TIP3   OH225029   1.669   3.575  13.865  0.0843  0.0552  0.1232
 1205TIP3    H125030   1.684   3.525  13.945  1.5570  0.5451  0.1774
 1205TIP3    H225031   1.696   3.664  13.886  1.1153  0.0585 -1.1012
 1206TIP3   OH225032   4.643   3.675  17.235 -0.4850  0.2719 -0.2767
 1206TIP3    H125033   4.610   3.760  17.207 -1.0196 -0.6962 -2.8553
 1206TIP3    H225034   4.565   3.621  17.244 -0.0664 -0.2571  0.3100
 1207TIP3   OH225035   0.609   1.672   0.492  0.2585  0.2454 -0.4898
 1207TIP3    H125036   0.571   1.757   0.468 -0.5173 -0.2541 -1.1106
 1207TIP3    H225037   0.540   1.609   0.471  0.6522 -0.5027  0.3946
 1208TIP3   OH225038   6.506   3.215  13.240  0.6062  1.0769 -0.5155
 1208TIP3    H125039   6.419   3.178  13.246  1.2915 -0.6763 -0.9321
 1208TIP3    H225040   6.495   3.296  13.189 -0.9641  1.6703  0.7019
 1209TIP3   OH225041   6.535   6.558   3.024 -0.0570 -0.1166  0.2091
 1209TIP3    H125042   6.517   6.518   3.109 -1.6915 -1.0177 -0.5109
 1209TIP3    H225043   6.448   6.571   2.985  0.6658  0.0549 -1.4157
 1210TIP3   OH225044   2.632   4.278  14.932  0.1722 -0.3287 -0.3540
 1210TIP3    H125045   2.682   4.359  14.918  0.8196 -0.7442 -0.5167
 1210TIP3    H225046   2.688   4.210  14.897 -0.2492 -0.8816  0.0342
 1211TIP3   OH225047   1.175   1.016  11.759 -0.1966 -0.0886 -0.0186
 1211TIP3    H125048   1.238   1.035  11.828 -0.7905 -0.4757  0.6434
 1211TIP3    H225049   1.199   0.928  11.728 -0.3716 -0.2117  0.1924
 1212TIP3   OH225050   5.286   2.795   5.040 -0.0089 -0.3335 -0.5620
 1212TIP3    H125051   5.225   2.832   5.105 -0.2978 -1.1962 -0.3354
 1212TIP3    H225052   5.364   2.773   5.091 -0.3829 -1.3743 -0.4327
 1213TIP3   OH225053   5.900   3.582  13.133  0.3518 -0.6686  0.6023
 1213TIP3    H125054   5.833   3.620  13.076  0.5643 -1.7454 -0.4032
 1213TIP3    H225055   5.946   3.658  13.169 -0.5246  0.0552  0.2507
 1214TIP3   OH225056   3.395   0.199   2.550  0.5789 -0.3479  0.4463
 1214TIP3    H125057   3.405   0.112   2.510  0.7517 -0.1474  0.0394
 1214TIP3    H225058   3.351   0.251   2.482  0.0420 -0.2439  0.8671
 1215TIP3   OH225059   3.856   3.512  11.397 -0.5750 -0.0800  0.0215
 1215TIP3    H125060   3.857   3.528  11.303 -1.4124 -1.2970 -0.2339
 1215TIP3    H225061   3.765   3.527  11.422 -0.0909  1.5136  0.9029
 1216TIP3   OH225062   1.844   2.659   3.122  0.5419 -0.4151 -0.2988
 1216TIP3    H125063   1.887   2.710   3.054  1.3601 -0.9180 -0.1715
 1216TIP3    H225064   1.785   2.720   3.165 -0.8745 -0.3500 -2.2009
 1217TIP3   OH225065   6.682   2.268   5.552 -0.0237 -0.4308 -0.1611
 1217TIP3    H125066   6.669   2.261   5.646 -0.7773  2.6666  0.0786
 1217TIP3    H225067   6.765   2.316   5.542  0.6409 -1.7196 -1.1396
 1218TIP3   OH225068   2.240   4.350  11.793  1.2484 -0.2250 -0.3623
 1218TIP3    H125069   2.271   4.371  11.880  1.4518 -1.3272 -0.1510
 1218TIP3    H225070   2.305   4.388  11.733  0.5874  1.4065 -0.0977
 1219TIP3   OH225071   3.954   4.043  17.385 -0.2032 -0.1789 -0.0490
 1219TIP3    H125072   3.901   3.964  17.392  0.0997 -0.4217 -0.4313
 1219TIP3    H225073   3.919   4.102  17.451  0.1700 -0.9804  0.8839
 1220TIP3   OH225074   1.607   4.546  15.360  0.0134 -0.2077 -0.1355
 1220TIP3    H125075   1.663   4.612  15.317  0.5628 -1.1912 -0.9776
 1220TIP3    H225076   1.656   4.465  15.352 -0.5152 -0.6800  1.1757
 1221TIP3   OH225077   4.096   1.563   0.794 -0.4421  0.4723 -0.3284
 1221TIP3    H125078   4.105   1.658   0.785  1.3145  0.4676  0.8454
 1221TIP3    H225079   4.096   1.531   0.704  1.3604  1.4400 -0.7238
 1222TIP3   OH225080   3.141   3.744  11.892  0.3428 -0.3919 -0.2289
 1222TIP3    H125081   3.056   3.706  11.873  0.3589 -0.7590  0.3941
 1222TIP3    H225082   3.143   3.751  11.988 -0.1475  2.3200 -0.3408
 1223TIP3   OH225083   0.980   5.006  15.795  0.2470 -0.4911  0.0992
 1223TIP3    H125084   0.933   5.089  15.803  0.8413 -0.0880 -0.5376
 1223TIP3    H225085   0.941   4.950  15.863 -2.0586 -0.6027 -1.2085
 1224TIP3   OH225086   5.263   5.341   1.364  0.0111  0.2152  0.0818
 1224TIP3    H125087   5.269   5.273   1.431  1.6102 -0.8868 -1.0940
 1224TIP3    H225088   5.326   5.407   1.391 -1.4505  1.2316  1.1560
 1225TIP3   OH225089   4.358   2.820  13.532 -0.0962  0.2328  0.3571
 1225TIP3    H125090   4.338   2.906  13.568 -0.6079 -0.5846  2.1745
 1225TIP3    H225091   4.274   2.774  13.530  0.3027 -0.5230  0.3131
 1226TIP3   OH225092   4.993   4.514  12.886 -0.7856 -0.1259  0.3953
 1226TIP3    H125093   5.003   4.608  12.874 -0.3093 -0.1450  0.6073
 1226TIP3    H225094   5.008   4.500  12.980 -1.7429 -0.3054  0.5322
 1227TIP3   OH225095   1.583   1.169  15.401 -0.1736 -0.6813  0.0587
 1227TIP3    H125096   1.529   1.090  15.403  0.0944 -0.8639  0.1466
 1227TIP3    H225097   1.574   1.207  15.489 -3.0264  1.2544 -0.9393
 1228TIP3   OH225098   3.178   6.671  16.059  0.8080  0.0563  0.0829
 1228TIP3    H125099   3.153   6.615  16.133 -0.1783  2.0516  1.3488
 1228TIP3    H225100   3.120   6.644  15.988  2.7145 -2.8734 -0.5680
 1229TIP3   OH225101   0.128   6.494   5.530  0.0531  0.4585  0.0765
 1229TIP3    H125102   0.037   6.465   5.536 -0.2508  1.1065 -1.0934
 1229TIP3    H225103   0.179   6.422   5.568 -0.7658 -1.0675 -1.5942
 1230TIP3   OH225104   1.634   3.688  16.401  0.4631  0.0782 -0.1394
 1230TIP3    H125105   1.581   3.659  16.327 -0.4006  0.2955  0.3810
 1230TIP3    H225106   1.625   3.618  16.466  1.3543 -0.1909 -0.2882
 1231TIP3   OH225107   0.913   6.749  16.817  0.1073  0.4511  0.0214
 1231TIP3    H125108   0.818   6.751  16.826  0.1254  0.3374  0.2435
 1231TIP3    H225109   0.944   6.717  16.901  0.3570  0.7465  0.0447
 1232TIP3   OH225110   6.575   0.571  10.611 -0.0967 -0.5354 -0.0176
 1232TIP3    H125111   6.580   0.659  10.575 -0.6751 -1.0822 -1.5442
 1232TIP3    H225112   6.666   0.541  10.615  0.0474 -0.1148 -0.1464
 1233TIP3   OH225113   4.390   6.734   3.210  0.2397  0.1290  0.3740
 1233TIP3    H125114   4.452   6.704   3.143  0.3739  0.4637  0.3468
 1233TIP3    H225115   4.312   6.679   3.197  0.1311  0.4327 -0.2951
 1234TIP3   OH225116   5.926   4.858  16.802 -0.5180  0.4556  0.2397
 1234TIP3    H125117   5.954   4.785  16.746  1.2411  0.1893  1.4093
 1234TIP3    H225118   5.835   4.875  16.774 -0.6671 -1.5420 -0.7063
 1235TIP3   OH225119   1.472   6.706  15.889 -0.0705  0.2750 -0.1408
 1235TIP3    H125120   1.410   6.640  15.858  0.9919 -1.1330  0.5930
 1235TIP3    H225121   1.479   6.690  15.983 -1.8718  3.2855  0.6240
 1236TIP3   OH225122   6.477   0.966  12.362  0.1456  0.2037 -0.0570
 1236TIP3    H125123   6.516   0.987  12.277  0.8611 -1.3735 -0.1522
 1236TIP3    H225124   6.482   0.871  12.368  0.1887  0.2882  1.7998
 1237TIP3   OH225125   2.850   1.059   5.170 -0.2429  0.1218 -0.1175
 1237TIP3    H125126   2.885   1.033   5.256  0.8164  1.4709 -0.0947
 1237TIP3    H225127   2.875   0.987   5.112  0.3512 -0.1167  0.4139
 1238TIP3   OH225128   5.353   2.449   1.941 -0.3028  0.5413  0.6629
 1238TIP3    H125129   5.266   2.422   1.969 -0.6844  0.4220 -0.5562
 1238TIP3    H225130   5.391   2.372   1.898 -1.0654  1.5606 -2.0614
 1239TIP3   OH225131   3.334   5.340  13.351  0.1264 -0.3080  0.0423
 1239TIP3    H125132   3.355   5.280  13.278 -0.8000 -0.3460 -0.2048
 1239TIP3    H225133   3.364   5.425  13.321  3.1161 -0.8706  1.1114
 1240TIP3   OH225134   6.571   5.290  14.446  0.1027  0.0079 -0.5564
 1240TIP3    H125135   6.508   5.354  14.480  0.8101  0.6644 -0.4570
 1240TIP3    H225136   6.532   5.258  14.364 -0.1372  0.7537 -0.7350
 1241TIP3   OH225137   1.181   6.548  16.262 -0.1097  0.4216 -0.5149
 1241TIP3    H125138   1.181   6.501  16.346 -1.3376  0.8949 -0.2352
 1241TIP3    H225139   1.158   6.482  16.198  0.6966  0.0876 -0.4751
 1242TIP3   OH225140   5.074   3.486   3.524  0.4690 -0.0233  0.1044
 1242TIP3    H125141   5.055   3.524   3.610  0.0789 -0.2447  0.1230
 1242TIP3    H225142   5.006   3.522   3.467 -0.4433 -1.3283  0.3091
 1243TIP3   OH225143   5.881   3.012   2.682  0.3579  0.5758  0.0476
 1243TIP3    H125144   5.796   2.995   2.721  0.9210 -1.2547  0.5694
 1243TIP3    H225145   5.879   3.105   2.660 -1.4511  0.7543  0.8042
 1244TIP3   OH225146   2.287   6.122   3.185 -0.2005  0.0019 -0.3083
 1244TIP3    H125147   2.365   6.067   3.186  0.5469  1.0231 -0.4363
 1244TIP3    H225148   2.300   6.183   3.258 -0.6288  0.5041 -0.6419
 1245TIP3   OH225149   4.480   5.748  16.261  0.6859  0.3357 -0.3518
 1245TIP3    H125150   4.530   5.803  16.202 -2.8293  0.0669 -4.0297
 1245TIP3    H225151   4.417   5.703  16.205 -0.2403 -3.3339  3.1313
 1246TIP3   OH225152   4.720   2.194   1.752  0.2687 -0.0545 -0.1850
 1246TIP3    H125153   4.803   2.234   1.777  0.3908 -0.9246  0.8988
 1246TIP3    H225154   4.657   2.230   1.815  0.1626 -0.6769  0.0713
 1247TIP3   OH225155   2.105   2.809  12.791  0.2680  0.1495 -0.1131
 1247TIP3    H125156   2.109   2.798  12.886  0.0675 -0.4496 -0.1712
 1247TIP3    H225157   2.100   2.904  12.779  0.3983  0.2384  0.4683
 1248TIP3   OH225158   2.042   2.458  11.428 -0.2084 -0.3852 -0.1462
 1248TIP3    H125159   1.953   2.446  11.396  0.3263  0.4423 -2.0829
 1248TIP3    H225160   2.065   2.547  11.401  1.4631 -0.8488 -0.3362
 1249TIP3   OH225161   1.897   5.911   1.839 -0.3168  0.2134  0.3613
 1249TIP3    H125162   1.924   5.939   1.752 -0.7375 -0.1380  0.1130
 1249TIP3    H225163   1.803   5.929   1.841 -0.2393  0.5879  0.8852
 1250TIP3   OH225164   6.058   5.704   4.713  0.1234 -0.2138 -0.2040
 1250TIP3    H125165   6.106   5.777   4.751 -1.1903  0.3823  0.3684
 1250TIP3    H225166   5.989   5.685   4.777 -0.9916 -0.4082 -1.4252
 1251TIP3   OH225167   1.478   2.419  13.710 -0.2855  0.2593 -0.4341
 1251TIP3    H125168   1.479   2.392  13.618  1.8945  2.4468 -1.1558
 1251TIP3    H225169   1.475   2.515  13.708 -3.2121  0.3596  1.8957
 1252TIP3   OH225170   0.102   0.755  12.071  0.2124 -0.2294  0.5051
 1252TIP3    H125171   0.167   0.761  12.002 -2.7556 -1.0007 -2.6266
 1252TIP3    H225172   0.128   0.678  12.122  1.4330 -0.8568 -0.9880
 1253TIP3   OH225173   3.276   6.519   6.597  0.4334 -0.4122  0.0339
 1253TIP3    H125174   3.230   6.463   6.660 -1.0540 -1.0052 -1.4699
 1253TIP3    H225175   3.339   6.568   6.649 -0.4184 -1.1859  1.8934
 1254TIP3   OH225176   4.634   3.788   2.099 -0.0493  0.5091  0.1699
 1254TIP3    H125177   4.593   3.703   2.110  0.3540  0.3715  0.6601
 1254TIP3    H225178   4.687   3.780   2.020 -0.4101  0.4656 -0.0672
 1255TIP3   OH225179   1.322   5.152   1.686 -0.2935  0.1400  0.7204
 1255TIP3    H125180   1.358   5.139   1.599  0.9065  1.5185  0.9896
 1255TIP3    H225181   1.276   5.236   1.682  1.9175  1.4957  2.0337
 1256TIP3   OH225182   5.280   1.773   3.119  0.4330  0.0333 -0.1612
 1256TIP3    H125183   5.314   1.829   3.049 -2.1936  0.7824 -0.9604
 1256TIP3    H225184   5.328   1.691   3.110  1.9352  0.9673 -1.1882
 1257TIP3   OH225185   0.697   2.445  10.770  0.0950 -0.0263  0.5890
 1257TIP3    H125186   0.748   2.367  10.795 -1.1394 -1.2546 -0.5334
 1257TIP3    H225187   0.757   2.518  10.782  2.0806 -1.3779 -0.4576
 1258TIP3   OH225188   1.002   1.038  10.471  0.0473 -0.2340 -0.0149
 1258TIP3    H125189   0.997   0.988  10.390  1.2461  2.1647 -1.6602
 1258TIP3    H225190   1.093   1.029  10.499 -0.2778 -0.7668  0.9389
 1259TIP3   OH225191   1.624   0.360   4.340  0.4943  0.7542 -0.4668
 1259TIP3    H125192   1.651   0.364   4.431  1.3038 -1.6284 -0.5317
 1259TIP3    H225193   1.561   0.289   4.336 -0.6549  1.7866 -1.5342
 1260TIP3   OH225194   3.885   3.940  14.874 -0.1608 -0.2930 -0.5343
 1260TIP3    H125195   3.846   3.861  14.912 -0.8596  0.0082 -0.6204
 1260TIP3    H225196   3.810   3.995  14.849  0.2812  1.2384  1.2440
 1261TIP3   OH225197   4.810   0.090  14.069 -0.1553  0.1366 -0.1899
 1261TIP3    H125198   4.834  -0.003  14.065  1.5248  0.5690 -1.0502
 1261TIP3    H225199   4.728   0.095  14.021  0.3939 -0.7422 -1.2726
 1262TIP3   OH225200   5.654   3.986   3.218  0.4963  0.2511 -0.0957
 1262TIP3    H125201   5.742   3.950   3.227  0.1002 -0.7161 -0.0066
 1262TIP3    H225202   5.609   3.926   3.159 -1.0382 -1.0525  2.2488
 1263TIP3   OH225203   0.768   5.448   4.224  0.2013  0.2042  0.1040
 1263TIP3    H125204   0.699   5.426   4.161 -0.1616  0.5604  0.3712
 1263TIP3    H225205   0.799   5.364   4.256 -0.9199  0.0545  0.8480
 1264TIP3   OH225206   2.339   3.819   6.098 -0.0163 -0.5551  0.5929
 1264TIP3    H125207   2.406   3.838   6.164 -1.4943  0.9342  1.7761
 1264TIP3    H225208   2.256   3.824   6.147 -1.0825 -0.7808 -1.1155
 1265TIP3   OH225209   6.216   4.973   3.141 -0.2324 -0.0732 -0.0682
 1265TIP3    H125210   6.179   5.061   3.129  0.2786  0.0387 -0.9498
 1265TIP3    H225211   6.299   4.976   3.093 -0.8230 -1.4554 -1.2166
 1266TIP3   OH225212   1.556   3.496   5.578 -0.2495  0.6680  0.5610
 1266TIP3    H125213   1.488   3.506   5.644  0.5551  4.3294  1.0411
 1266TIP3    H225214   1.613   3.427   5.612 -2.3130 -0.7589  1.3346
 1267TIP3   OH225215   5.014   5.564  15.607  0.5482 -0.7003 -0.4631
 1267TIP3    H125216   5.016   5.516  15.524  0.5928 -0.2516 -0.7250
 1267TIP3    H225217   5.106   5.565  15.635  0.5670 -0.6449 -0.5265
 1268TIP3   OH225218   4.005   4.446   0.140 -0.8521  0.4255  0.2626
 1268TIP3    H125219   4.026   4.486   0.056 -0.2541 -1.4237 -0.4947
 1268TIP3    H225220   3.931   4.497   0.173 -1.5394  0.7511 -1.6962
 1269TIP3   OH225221   6.238   6.437  15.948 -0.2169 -0.0187  0.3493
 1269TIP3    H125222   6.157   6.396  15.917 -1.0426  0.7725  1.3781
 1269TIP3    H225223   6.246   6.517  15.896  1.3437 -1.3350 -1.5912
 1270TIP3   OH225224   1.359   0.889  16.614  0.4167  0.1223  0.7109
 1270TIP3    H125225   1.449   0.900  16.585  0.3471  0.3588  0.5791
 1270TIP3    H225226   1.318   0.836  16.546 -0.3646  2.5924 -0.8933
 1271TIP3   OH225227   0.794   5.399  12.464 -0.0072  0.1133  0.4382
 1271TIP3    H125228   0.720   5.350  12.501  0.5196 -2.1763 -1.3742
 1271TIP3    H225229   0.793   5.379  12.371  2.8632  0.0600  0.3347
 1272TIP3   OH225230   4.967   5.702  11.688 -0.3892 -0.4117  0.4041
 1272TIP3    H125231   4.977   5.714  11.783  2.1844 -1.4908  0.3688
 1272TIP3    H225232   4.945   5.789  11.655  0.4254  0.3807  1.8296
 1273TIP3   OH225233   2.317   1.665   5.405  0.7435 -0.4244 -0.2660
 1273TIP3    H125234   2.274   1.650   5.321  1.6594  0.7696 -0.9722
 1273TIP3    H225235   2.406   1.631   5.393  0.5781 -1.2165  0.5842
 1274TIP3   OH225236   0.685   0.354   0.829 -0.1292 -0.0506  0.3601
 1274TIP3    H125237   0.622   0.302   0.779  0.7200  1.1078 -2.0327
 1274TIP3    H225238   0.640   0.372   0.912 -2.7802  0.3372 -1.0580
 1275TIP3   OH225239   0.809   2.186   0.717  0.0909  0.1718 -0.0822
 1275TIP3    H125240   0.749   2.252   0.750  0.1740 -0.2423  0.9534
 1275TIP3    H225241   0.829   2.132   0.794  0.1141 -0.9770 -0.8822
 1276TIP3   OH225242   4.371   0.169  11.334  0.4700 -0.3406 -0.7549
 1276TIP3    H125243   4.400   0.210  11.416  1.5363 -0.2626 -1.1542
 1276TIP3    H225244   4.447   0.119  11.304 -0.4482 -1.7378 -0.8522
 1277TIP3   OH225245   2.538   5.186  15.896  0.1848 -0.4042  0.0388
 1277TIP3    H125246   2.612   5.182  15.835 -0.3318  0.4697 -0.6655
 1277TIP3    H225247   2.579   5.186  15.983  0.8963 -2.9163 -0.2192
 1278TIP3   OH225248   1.314   1.006  10.521 -0.2019 -0.2708 -0.1730
 1278TIP3    H125249   1.300   1.101  10.519  1.1316 -0.0645 -0.6445
 1278TIP3    H225250   1.408   0.995  10.505 -0.4707 -1.7096 -0.9358
 1279TIP3   OH225251   6.534   0.560   3.965  0.1198 -0.0219 -0.2250
 1279TIP3    H125252   6.575   0.555   4.051  2.4600 -1.6590 -1.3328
 1279TIP3    H225253   6.563   0.481   3.920 -2.7770 -0.2941 -1.8271
 1280TIP3   OH225254   0.289   4.623   2.384 -0.5755  0.2099  0.3551
 1280TIP3    H125255   0.290   4.628   2.479  1.3394  1.2072  0.3224
 1280TIP3    H225256   0.368   4.575   2.361  0.0519  1.6804 -0.7568
 1281TIP3   OH225257   1.662   1.782   1.514  0.6244  0.1929 -0.0932
 1281TIP3    H125258   1.719   1.851   1.548 -1.2210  0.9151  1.7360
 1281TIP3    H225259   1.631   1.816   1.430  0.9733  0.8986  0.0590
 1282TIP3   OH225260   6.569   0.248   0.807 -0.3961  0.0307 -0.3129
 1282TIP3    H125261   6.517   0.205   0.739 -0.7945 -0.0153  0.0111
 1282TIP3    H225262   6.603   0.176   0.860 -1.5786  0.1038  0.6027
 1283TIP3   OH225263   1.602   2.026  16.040  0.0763  0.3668 -0.0008
 1283TIP3    H125264   1.696   2.041  16.035  0.7572 -2.8700  0.9811
 1283TIP3    H225265   1.579   2.041  16.131  0.3633 -2.0292  0.5168
 1284TIP3   OH225266   4.497   2.865   3.981  0.4434 -0.1940 -0.3669
 1284TIP3    H125267   4.532   2.796   3.924  0.8272  0.4864 -0.9701
 1284TIP3    H225268   4.442   2.818   4.044 -1.7704 -0.8255 -2.5811
 1285TIP3   OH225269   2.738   2.702  15.217 -0.0886  0.1763 -0.1230
 1285TIP3    H125270   2.790   2.782  15.222 -2.1935  1.7683 -1.6570
 1285TIP3    H225271   2.700   2.693  15.304 -0.0059  1.0006  0.0096
 1286TIP3   OH225272   2.696   0.168   3.857 -0.1370  0.2135 -0.5185
 1286TIP3    H125273   2.622   0.195   3.912 -0.5859  0.7836 -1.3731
 1286TIP3    H225274   2.659   0.162   3.769  0.6550 -0.3119 -0.8285
 1287TIP3   OH225275   6.544   5.522   4.184 -0.0353 -0.6778  0.0033
 1287TIP3    H125276   6.613   5.584   4.160  1.8645 -2.2596  1.0744
 1287TIP3    H225277   6.467   5.552   4.136  1.0480  1.8970 -0.2804
 1288TIP3   OH225278   4.581   1.954   0.725  0.2998 -0.1620  0.5559
 1288TIP3    H125279   4.672   1.945   0.753  0.5952 -2.3722 -0.9021
 1288TIP3    H225280   4.534   1.887   0.774 -0.4269  0.4615  0.7326
 1289TIP3   OH225281   4.181   4.485   4.857 -0.2896 -0.5059  0.1554
 1289TIP3    H125282   4.098   4.526   4.832 -0.9498 -1.4565  0.7156
 1289TIP3    H225283   4.188   4.408   4.801  0.4332 -0.2081 -0.1781
 1290TIP3   OH225284   4.030   6.455  12.889 -0.6615 -0.3234 -0.2917
 1290TIP3    H125285   4.102   6.392  12.892  0.5887  1.0800  0.2418
 1290TIP3    H225286   3.984   6.435  12.807  1.3527 -0.1880 -1.5266
 1291TIP3   OH225287   3.825   6.093  11.724 -0.1446  0.6747  0.1877
 1291TIP3    H125288   3.874   6.025  11.678  0.5856  0.6498  0.9852
 1291TIP3    H225289   3.824   6.167  11.663  0.2207  0.4125 -0.1431
 1292TIP3   OH225290   6.748   1.416   2.871  0.5735 -0.1200  0.1274
 1292TIP3    H125291   6.713   1.329   2.854  1.5248 -0.7129  1.0632
 1292TIP3    H225292   6.676   1.476   2.849  0.5380 -0.9833 -2.4373
 1293TIP3   OH225293   6.394   3.316   1.118 -0.1775  0.5454  0.0780
 1293TIP3    H125294   6.456   3.262   1.070 -1.6916 -1.0566 -0.1753
 1293TIP3    H225295   6.379   3.269   1.200 -0.0981  1.5753  0.7072
 1294TIP3   OH225296   3.139   6.112  13.094  0.3128  0.1165 -0.2690
 1294TIP3    H125297   3.185   6.057  13.031 -0.0707  0.8411 -1.1987
 1294TIP3    H225298   3.076   6.161  13.042  1.6711  2.5900  0.2314
 1295TIP3   OH225299   4.115   5.096  13.600 -0.2768  0.1190  0.0166
 1295TIP3    H125300   4.187   5.140  13.646 -0.0250  1.2760 -1.4021
 1295TIP3    H225301   4.038   5.115  13.653 -0.1632  2.2768 -0.4761
 1296TIP3   OH225302   4.716   3.695   4.950 -0.0739 -0.1442  0.1149
 1296TIP3    H125303   4.741   3.780   4.987 -1.5185  0.4077 -0.0811
 1296TIP3    H225304   4.725   3.707   4.856 -3.2172  0.9353 -0.1926
 1297TIP3   OH225305   3.859   0.865  15.672  0.1532  0.9192  0.1951
 1297TIP3    H125306   3.939   0.860  15.725 -0.0509 -2.9730  0.3715
 1297TIP3    H225307   3.790   0.832  15.730 -1.2608  2.2131 -0.6550
 1298TIP3   OH225308   2.595   0.378  14.382 -0.1818  0.0901 -0.2280
 1298TIP3    H125309   2.651   0.367  14.458 -0.9038 -1.6942  0.1065
 1298TIP3    H225310   2.508   0.397  14.419  0.1843  3.2082 -0.7391
 1299TIP3   OH225311   5.157   1.702  11.303  0.4923  0.9332 -0.1768
 1299TIP3    H125312   5.074   1.729  11.264 -0.2233  1.4231  1.5458
 1299TIP3    H225313   5.201   1.652  11.235 -0.9561  1.1566 -1.3341
 1300TIP3   OH225314   4.668   2.426   4.677 -0.2150  0.0072  0.3982
 1300TIP3    H125315   4.715   2.372   4.614 -0.8374  0.2386 -0.2733
 1300TIP3    H225316   4.716   2.509   4.678 -0.1126 -0.0515  0.3370
 1301TIP3   OH225317   1.476   2.840   5.508 -0.0834  0.1469 -0.3359
 1301TIP3    H125318   1.560   2.886   5.501 -0.0831 -0.0025 -1.5934
 1301TIP3    H225319   1.498   2.748   5.499 -0.3189  0.0577 -0.0110
 1302TIP3   OH225320   0.130   0.062   3.853  0.0453  0.1771  0.2624
 1302TIP3    H125321   0.209   0.010   3.869  0.2735  0.1332 -0.9376
 1302TIP3    H225322   0.152   0.150   3.884  0.2974 -0.0087  0.6190
 1303TIP3   OH225323   4.681   4.359  17.099  0.1705 -0.1560 -0.0073
 1303TIP3    H125324   4.646   4.445  17.076 -0.6984 -0.6908 -0.7126
 1303TIP3    H225325   4.604   4.304  17.114  0.6033 -0.0414  3.6601
 1304TIP3   OH225326   5.956   0.587   4.280  0.0477 -0.1435  0.0339
 1304TIP3    H125327   5.995   0.548   4.202  0.0945  0.0334 -0.0301
 1304TIP3    H225328   6.012   0.558   4.352 -0.0450 -0.3785  0.0154
 1305TIP3   OH225329   4.656   1.134   4.247  0.0870 -0.3115 -0.0676
 1305TIP3    H125330   4.657   1.042   4.271  3.2120 -0.4521 -0.3406
 1305TIP3    H225331   4.669   1.135   4.152 -0.0323  0.4220 -0.0877
 1306TIP3   OH225332   6.020   1.822  12.273  0.3977  0.2142  0.0443
 1306TIP3    H125333   6.042   1.898  12.218 -1.6558  0.0808 -1.0279
 1306TIP3    H225334   5.950   1.777  12.226  2.6776 -3.4285 -0.3019
 1307TIP3   OH225335   1.248   2.407  12.808 -0.0967  0.1029  0.1931
 1307TIP3    H125336   1.160   2.393  12.775  0.6724 -0.5369 -1.7312
 1307TIP3    H225337   1.251   2.359  12.891 -1.0888 -1.2047 -0.5013
 1308TIP3   OH225338   3.627   2.426   1.402 -0.2221  0.1756  0.1550
 1308TIP3    H125339   3.617   2.426   1.497 -2.5829  1.8270  0.0008
 1308TIP3    H225340   3.652   2.516   1.381  0.9317 -0.3391 -0.7677
 1309TIP3   OH225341   1.277   6.118   2.494 -0.5807 -0.0082  0.2652
 1309TIP3    H125342   1.196   6.155   2.459 -0.0718  1.2787  0.3910
 1309TIP3    H225343   1.295   6.042   2.438 -1.5001  0.1028 -0.1969
 1310TIP3   OH225344   1.469   4.777  15.741  0.4275  0.1931 -0.0704
 1310TIP3    H125345   1.385   4.822  15.746 -0.3861 -1.0961 -1.4333
 1310TIP3    H225346   1.466   4.729  15.659  1.7661 -1.3499  0.7313
 1311TIP3   OH225347   4.368   0.920   2.916  0.1701 -0.7005 -0.2477
 1311TIP3    H125348   4.359   1.010   2.946 -1.0129 -0.4943 -1.1239
 1311TIP3    H225349   4.461   0.901   2.923  0.3766  0.4493  0.3320
 1312TIP3   OH225350   3.203   0.622   0.787  0.0752 -0.4657 -0.2118
 1312TIP3    H125351   3.176   0.664   0.869  2.4037 -1.8267  1.3664
 1312TIP3    H225352   3.127   0.570   0.761 -0.7772  0.1287  0.9725
 1313TIP3   OH225353   0.946   6.625   5.205 -0.3290 -1.4824 -0.1533
 1313TIP3    H125354   1.025   6.639   5.152 -1.3429  0.7457 -1.1996
 1313TIP3    H225355   0.875   6.620   5.141 -1.3526 -0.7620  0.9028
 1314TIP3   OH225356   4.572   1.660   3.327 -0.2909  0.0711  0.2865
 1314TIP3    H125357   4.588   1.696   3.414 -0.3109  2.1164 -0.4914
 1314TIP3    H225358   4.560   1.737   3.271  0.5571 -1.1433 -1.6947
 1315TIP3   OH225359   0.929   3.568   4.298  0.0470  0.0846  0.1465
 1315TIP3    H125360   0.983   3.489   4.301  0.6853  0.5449  1.2340
 1315TIP3    H225361   0.864   3.555   4.367  0.3887  0.6743  0.5828
 1316TIP3   OH225362   2.828   3.186   4.542  0.1576 -0.2967 -0.1567
 1316TIP3    H125363   2.824   3.126   4.467  0.6426 -0.8400  0.2454
 1316TIP3    H225364   2.793   3.269   4.508 -1.4747 -1.0645 -0.4560
 1317TIP3   OH225365   4.464   2.852  13.257  0.1328 -0.3514 -0.3789
 1317TIP3    H125366   4.507   2.925  13.212  0.3224 -0.7978 -0.9295
 1317TIP3    H225367   4.431   2.891  13.338  2.4807 -0.2229  0.5876
 1318TIP3   OH225368   4.775   3.147   1.644  0.2652 -0.3448 -0.5348
 1318TIP3    H125369   4.750   3.238   1.628 -0.8651 -0.6119 -0.3787
 1318TIP3    H225370   4.850   3.132   1.587  0.8884  0.8783 -0.0700
 1319TIP3   OH225371   0.527   1.768  16.155 -0.9466 -0.8269 -0.7656
 1319TIP3    H125372   0.462   1.838  16.147 -0.7277  0.2298  3.8651
 1319TIP3    H225373   0.480   1.696  16.196  0.3677 -0.5422  1.3986
 1320TIP3   OH225374   0.072   1.555   0.606 -0.1718 -0.1005  0.2687
 1320TIP3    H125375   0.120   1.488   0.557  0.1699 -1.4292  2.3112
 1320TIP3    H225376  -0.020   1.533   0.594 -0.0892 -0.4405  0.2536
 1321TIP3   OH225377   1.748   5.611  16.175  0.4438 -0.1222  0.4820
 1321TIP3    H125378   1.780   5.645  16.091  0.4979  0.7740  0.8580
 1321TIP3    H225379   1.770   5.679  16.239 -0.2479 -0.4725  1.1091
 1322TIP3   OH225380   2.681   4.931  12.290  0.5671  0.2728  0.2110
 1322TIP3    H125381   2.677   4.915  12.384  1.3584 -1.6837 -0.0221
 1322TIP3    H225382   2.601   4.891  12.256  0.8605 -0.0928 -0.0560
 1323TIP3   OH225383   0.809   3.134   6.702 -0.1121 -0.0249  0.0788
 1323TIP3    H125384   0.875   3.169   6.762  0.7503 -1.6004  0.0902
 1323TIP3    H225385   0.726   3.165   6.739  0.4789  0.0922  1.3874
 1324TIP3   OH225386   2.524   3.721  11.786 -0.3923  0.8591 -0.2914
 1324TIP3    H125387   2.467   3.712  11.710 -1.3491  0.2874  0.4674
 1324TIP3    H225388   2.483   3.667  11.853 -0.0534  2.0326  0.9080
 1325TIP3   OH225389   6.159   3.470   6.302  0.3552 -0.2643  0.2417
 1325TIP3    H125390   6.140   3.563   6.287 -1.4067 -0.8777 -1.7179
 1325TIP3    H225391   6.095   3.444   6.368 -1.2396 -0.7457 -1.4303
 1326TIP3   OH225392   3.907   1.161   5.900 -0.0444  0.2281  0.2661
 1326TIP3    H125393   3.996   1.167   5.866 -0.0487  1.7563  0.4279
 1326TIP3    H225394   3.916   1.178   5.994 -0.3852 -0.7995  0.4931
 1327TIP3   OH225395   0.706   4.186  15.295  0.6166  0.1036  0.2221
 1327TIP3    H125396   0.702   4.272  15.253 -0.9717 -0.3826 -0.6969
 1327TIP3    H225397   0.617   4.151  15.289  1.2036 -1.5900  0.6237
 1328TIP3   OH225398   1.908   6.748   3.325  0.6050  0.1346  0.3721
 1328TIP3    H125399   1.983   6.779   3.274  0.8116 -0.7255  0.1405
 1328TIP3    H225400   1.936   6.664   3.362 -1.1265 -1.6196 -1.9615
 1329TIP3   OH225401   5.021   4.595   5.424 -0.0594 -0.4274 -0.0055
 1329TIP3    H125402   4.938   4.641   5.439 -0.0692 -0.4855  0.1188
 1329TIP3    H225403   4.995   4.505   5.404 -0.0089 -0.5408  0.4276
 1330TIP3   OH225404   4.817   6.164   4.463  0.0771  0.0155 -0.8106
 1330TIP3    H125405   4.792   6.248   4.502 -0.9820 -0.7462  0.2356
 1330TIP3    H225406   4.834   6.108   4.538  2.8210 -0.1809 -1.4701
 1331TIP3   OH225407   2.860   0.831   5.995  0.1031  0.8268 -0.2013
 1331TIP3    H125408   2.804   0.907   5.980  0.4181  1.3568  1.1804
 1331TIP3    H225409   2.800   0.756   5.999 -0.3157  1.1444 -0.4508
 1332TIP3   OH225410   5.888   1.749  14.514  0.2098  0.6126  0.5483
 1332TIP3    H125411   5.964   1.794  14.478 -1.3920  1.1093 -2.6288
 1332TIP3    H225412   5.895   1.660  14.479  0.1461  0.1612  1.6396
 1333TIP3   OH225413   5.802   2.031  11.931  0.2042  0.5479 -0.3874
 1333TIP3    H125414   5.808   2.016  12.025  2.3618  0.5006 -0.4858
 1333TIP3    H225415   5.711   2.058  11.917 -0.7892 -1.5212  1.3883
 1334TIP3   OH225416   0.100   3.480   4.906 -0.3281 -0.4505  0.3429
 1334TIP3    H125417   0.104   3.402   4.962 -2.6476 -0.6800  0.2745
 1334TIP3    H225418   0.143   3.548   4.957  1.1197 -1.5643  0.7017
 1335TIP3   OH225419   3.000   1.636   1.688  0.2126  0.2789 -0.1391
 1335TIP3    H125420   3.053   1.666   1.763  0.1812  0.9653 -0.3848
 1335TIP3    H225421   2.995   1.713   1.631 -0.7837  0.1220 -0.2703
 1336TIP3   OH225422   3.422   0.743   4.095  0.1798 -0.2705 -0.0150
 1336TIP3    H125423   3.361   0.693   4.042  0.7808  0.5427 -1.5413
 1336TIP3    H225424   3.368   0.805   4.144 -0.3740 -0.9646  0.2556
 1337TIP3   OH225425   0.704   0.620  12.223  0.2667  0.0598  0.2003
 1337TIP3    H125426   0.784   0.630  12.273 -0.2631 -0.0914  1.0962
 1337TIP3    H225427   0.636   0.662  12.276 -0.5162 -1.1258  0.1670
 1338TIP3   OH225428   5.651   2.742   5.583 -0.2160 -0.1751  0.3679
 1338TIP3    H125429   5.637   2.648   5.592  0.5773 -0.3051  0.2468
 1338TIP3    H225430   5.736   2.758   5.623 -0.7531  0.6435  1.2525
 1339TIP3   OH225431   6.337   2.529  12.965 -0.2385  0.0360 -0.2887
 1339TIP3    H125432   6.255   2.565  12.932  0.6616  0.4289 -2.2501
 1339TIP3    H225433   6.313   2.480  13.044 -1.9594  2.3032  0.6801
 1340TIP3   OH225434   2.982   5.838  15.879 -0.3196  0.0216  0.0474
 1340TIP3    H125435   2.945   5.783  15.948 -0.2044  0.2350  0.2778
 1340TIP3    H225436   2.980   5.927  15.915 -1.3707  0.3108 -0.6784
 1341TIP3   OH225437   2.819   1.850   3.251 -0.0139 -0.4162 -0.1875
 1341TIP3    H125438   2.793   1.761   3.273  1.2828 -1.2493 -1.7423
 1341TIP3    H225439   2.898   1.865   3.303 -1.0255  0.4156  1.1683
 1342TIP3   OH225440   3.467   5.331   2.075 -0.8631 -0.2678 -0.5329
 1342TIP3    H125441   3.534   5.316   2.008 -0.9791  0.3713 -0.8004
 1342TIP3    H225442   3.394   5.371   2.028 -0.5737  1.0958  0.1146
 1343TIP3   OH225443   2.695   4.664  12.924  0.0541  0.5721 -0.5285
 1343TIP3    H125444   2.711   4.569  12.921  0.0251  0.5723 -0.7250
 1343TIP3    H225445   2.647   4.682  12.843  1.3734  0.9935 -1.2492
 1344TIP3   OH225446   0.585   4.997  13.969  0.3995  0.6183 -0.0649
 1344TIP3    H125447   0.504   4.955  13.940  0.1493  0.3500  0.9778
 1344TIP3    H225448   0.580   5.085  13.933 -2.0258  1.7789  2.7103
 1345TIP3   OH225449   5.965   5.977   5.158 -0.0642  0.3297  0.1924
 1345TIP3    H125450   6.017   5.898   5.141  0.0474  0.0777  1.6033
 1345TIP3    H225451   6.028   6.039   5.194 -0.4581  0.5211  0.5602
 1346TIP3   OH225452   0.882   5.852  11.738 -0.1131  0.8711  0.1054
 1346TIP3    H125453   0.838   5.770  11.764  0.8490 -0.4043 -2.0033
 1346TIP3    H225454   0.870   5.910  11.813  1.1445 -1.9675  2.7589
 1347TIP3   OH225455   0.260   3.951   4.675 -0.2235 -0.1743 -0.2793
 1347TIP3    H125456   0.345   3.993   4.658  0.2872 -1.1880 -0.2650
 1347TIP3    H225457   0.281   3.864   4.708 -1.2651 -1.0338 -1.7416
 1348TIP3   OH225458   1.260   2.664  12.698  0.4699  0.4047 -0.1073
 1348TIP3    H125459   1.267   2.574  12.729  1.7862  0.1222 -1.1268
 1348TIP3    H225460   1.166   2.681  12.693  0.2155 -0.3138  1.7208
 1349TIP3   OH225461   0.616   6.586   3.768 -0.4375 -0.5892 -0.3357
 1349TIP3    H125462   0.613   6.490   3.775  0.1216 -0.6422 -0.8051
 1349TIP3    H225463   0.696   6.611   3.813 -1.0558 -0.2576  0.6012
 1350TIP3   OH225464   2.612   4.770  15.003  0.6421  0.5517  0.3594
 1350TIP3    H125465   2.626   4.837  14.936  0.7099  1.4197  1.2037
 1350TIP3    H225466   2.634   4.814  15.085  0.2388 -0.3758  0.9864
 1351TIP3   OH225467   2.423   1.010  15.013 -0.1044  0.2139  0.5507
 1351TIP3    H125468   2.505   0.963  15.030  0.3471  0.3798 -1.0438
 1351TIP3    H225469   2.448   1.103  15.011 -0.2752  0.2500 -0.1922
 1352TIP3   OH225470   4.473   3.461   4.062 -0.1571  0.5977  0.6751
 1352TIP3    H125471   4.476   3.396   4.132  1.8820 -0.5217 -0.3856
 1352TIP3    H225472   4.423   3.420   3.992 -0.1328  0.7506  0.5662
 1353TIP3   OH225473   3.952   1.951  11.606  0.0802  0.5030  0.5365
 1353TIP3    H125474   4.027   1.933  11.663  0.1322 -0.4933  0.1720
 1353TIP3    H225475   3.987   2.004  11.535  0.0233  1.7251  1.3919
 1354TIP3   OH225476   5.902   5.413   0.844  0.1388  0.0100 -0.4440
 1354TIP3    H125477   5.890   5.494   0.795  2.3199 -0.4234 -1.8155
 1354TIP3    H225478   5.962   5.437   0.915  0.9359 -0.4102 -0.9611
 1355TIP3   OH225479   2.792   1.338   1.113  0.2428  0.6259 -0.1257
 1355TIP3    H125480   2.838   1.334   1.197  1.4630  0.9752 -0.7685
 1355TIP3    H225481   2.807   1.426   1.081 -0.4781  0.5913 -0.5803
 1356TIP3   OH225482   6.521   6.649  12.550  0.3020 -0.5850  0.0694
 1356TIP3    H125483   6.604   6.682  12.515  0.9584 -0.7798  1.3620
 1356TIP3    H225484   6.458   6.660  12.478  0.6978  2.5073  0.0568
 1357TIP3   OH225485   6.523   1.602  16.836 -0.1162 -0.2047  0.4502
 1357TIP3    H125486   6.446   1.651  16.865  1.1644  0.5398  2.9073
 1357TIP3    H225487   6.576   1.591  16.916  2.2384 -0.8301 -1.0834
 1358TIP3   OH225488   2.779   0.293  17.125 -0.1307  0.2129  0.0246
 1358TIP3    H125489   2.855   0.311  17.070 -0.2170  0.9457  0.1284
 1358TIP3    H225490   2.739   0.379  17.139 -1.4283 -0.2487 -0.6830
 1359TIP3   OH225491   0.835   6.511   2.341 -0.5801 -0.1988 -0.3088
 1359TIP3    H125492   0.881   6.529   2.259 -3.1555  3.7526 -1.1649
 1359TIP3    H225493   0.749   6.479   2.313 -0.5289 -1.6348  1.0318
 1360TIP3   OH225494   4.417   0.558  14.232 -0.0535  0.2555  0.5917
 1360TIP3    H125495   4.457   0.471  14.228 -2.2858 -0.8535  0.6736
 1360TIP3    H225496   4.471   0.612  14.175  1.1803 -1.2722  0.2394
 1361TIP3   OH225497   3.894   2.423  12.116 -0.2711  0.3138  0.2974
 1361TIP3    H125498   3.902   2.340  12.162 -2.7559  0.3817  1.0266
 1361TIP3    H225499   3.856   2.400  12.031 -1.6811  0.7135  0.7892
 1362TIP3   OH225500   4.350   4.128  16.234 -0.0558  0.1936 -0.2671
 1362TIP3    H125501   4.432   4.174  16.217  0.7090  0.1556  2.7133
 1362TIP3    H225502   4.321   4.161  16.319 -3.1982  0.1959 -1.1979
 1363TIP3   OH225503   3.693   1.456   2.440 -0.6070 -0.2292  0.6802
 1363TIP3    H125504   3.621   1.402   2.407  0.8575 -0.0110 -3.4161
 1363TIP3    H225505   3.742   1.396   2.496 -0.6299 -2.3842 -1.4124
 1364TIP3   OH225506   5.981   5.261   2.299  0.4418 -0.2772 -0.1337
 1364TIP3    H125507   5.946   5.289   2.214  0.0904  0.2257  0.1737
 1364TIP3    H225508   6.073   5.287   2.296  0.5558 -0.7087 -0.5517
 1365TIP3   OH225509   4.649   1.460  16.176  0.3032 -0.9588 -0.3714
 1365TIP3    H125510   4.624   1.437  16.087  1.5461 -0.3419 -0.8944
 1365TIP3    H225511   4.572   1.505  16.212  0.1583 -0.3063 -1.4746
 1366TIP3   OH225512   3.661   0.881   3.963  0.5750  0.1246 -0.3857
 1366TIP3    H125513   3.585   0.843   4.007  0.3803 -0.1174 -0.9230
 1366TIP3    H225514   3.707   0.806   3.926  0.1950  0.4025 -1.4479
 1367TIP3   OH225515   6.418   2.370   2.531 -0.1804  0.3412  0.2873
 1367TIP3    H125516   6.472   2.300   2.496 -2.5871 -0.8321 -1.3882
 1367TIP3    H225517   6.434   2.445   2.474  0.1531  0.2110  0.2101
 1368TIP3   OH225518   0.493   4.747   1.578  0.1017 -0.7301  0.0860
 1368TIP3    H125519   0.412   4.786   1.544 -0.6148 -1.7099  0.5927
 1368TIP3    H225520   0.463   4.688   1.647  1.1748 -1.7824 -0.3147
 1369TIP3   OH225521   3.052   6.219   6.398 -0.4390 -0.0875  0.3682
 1369TIP3    H125522   2.958   6.230   6.387 -0.6723 -0.2518  1.9907
 1369TIP3    H225523   3.086   6.309   6.401 -0.3443 -0.0256 -1.4980
 1370TIP3   OH225524   0.693   3.563  15.750  0.3537 -0.1624  0.3909
 1370TIP3    H125525   0.697   3.600  15.838 -0.8704  1.6543 -0.2407
 1370TIP3    H225526   0.645   3.481  15.760  1.7398 -0.8538  1.6260
 1371TIP3   OH225527   2.789   1.343  12.895 -0.1910  0.0375 -0.4076
 1371TIP3    H125528   2.884   1.353  12.894  0.2628 -3.1491 -2.0406
 1371TIP3    H225529   2.762   1.360  12.805 -1.0937  0.1776 -0.1239
 1372TIP3   OH225530   2.847   6.534  11.738  0.1577  0.6593 -0.5298
 1372TIP3    H125531   2.913   6.521  11.669  1.1883  0.0959  0.5230
 1372TIP3    H225532   2.850   6.627  11.756  0.6651  0.6415 -0.4994
 1373TIP3   OH225533   3.778   6.093  13.176 -0.8411  0.1413 -0.2319
 1373TIP3    H125534   3.766   6.074  13.083 -1.2836  0.2936 -0.2064
 1373TIP3    H225535   3.870   6.119  13.183 -1.2158  1.7835 -0.9215
 1374TIP3   OH225536   5.150   6.353  16.645 -0.7021 -0.0163 -0.9002
 1374TIP3    H125537   5.058   6.352  16.671 -0.5724 -0.6758 -0.4224
 1374TIP3    H225538   5.189   6.426  16.692 -1.2917  1.2253 -2.2786
 1375TIP3   OH225539   0.510   4.462   4.013  0.1863  0.5856 -0.1987
 1375TIP3    H125540   0.455   4.468   4.091 -0.9205  0.3990 -0.9257
 1375TIP3    H225541   0.584   4.408   4.040 -1.8386 -2.4063 -0.1040
 1376TIP3   OH225542   1.469   5.040   5.100  0.1186 -0.4174  0.2481
 1376TIP3    H125543   1.399   5.103   5.083 -0.8695 -1.5517  0.0435
 1376TIP3    H225544   1.538   5.093   5.141 -0.5104  0.8777 -0.3005
 1377TIP3   OH225545   2.592   2.885  13.860  1.1869  0.4011  0.7764
 1377TIP3    H125546   2.543   2.840  13.929 -0.6816  0.7406 -0.2693
 1377TIP3    H225547   2.664   2.929  13.906 -0.6332  1.5497  2.6979
 1378TIP3   OH225548   4.142   3.666  11.992  0.0939 -0.2419  0.0816
 1378TIP3    H125549   4.125   3.586  11.942  0.1415  0.9906 -2.0438
 1378TIP3    H225550   4.066   3.722  11.974  0.2465  0.3493  1.2069
 1379TIP3   OH225551   1.749   3.029   0.733  0.1482 -0.5312  0.5031
 1379TIP3    H125552   1.824   2.973   0.716  0.8924  0.9900 -1.7389
 1379TIP3    H225553   1.695   3.020   0.654 -0.8560  0.1731  1.0879
 1380TIP3   OH225554   1.056   1.584   0.222  0.2414 -0.6149 -0.1437
 1380TIP3    H125555   1.068   1.626   0.137  1.2500 -2.9944 -1.2366
 1380TIP3    H225556   0.963   1.598   0.242  0.5886  2.5046 -0.1437
 1381TIP3   OH225557   6.411   1.714  11.915  0.7870 -0.2497 -0.0976
 1381TIP3    H125558   6.380   1.783  11.974  0.0790  0.4516 -1.2453
 1381TIP3    H225559   6.467   1.759  11.852 -0.0578 -0.6256 -1.1437
 1382TIP3   OH225560   4.679   5.401   0.165 -0.3897 -0.3758  0.2052
 1382TIP3    H125561   4.771   5.374   0.157 -0.2319  0.3933 -0.7676
 1382TIP3    H225562   4.632   5.320   0.186  0.5424 -0.7154  1.0636
 1383TIP3   OH225563   2.914   2.743   4.369 -0.1096  0.7392 -0.4662
 1383TIP3    H125564   2.987   2.699   4.414 -0.5822  1.1724  0.7666
 1383TIP3    H225565   2.950   2.766   4.283  2.6772  4.6125  1.4055
 1384TIP3   OH225566   6.601   4.712  13.388 -0.9836  0.5270 -0.1455
 1384TIP3    H125567   6.696   4.706  13.381 -1.0404 -0.5148 -0.2321
 1384TIP3    H225568   6.574   4.759  13.309 -0.6075 -0.0365 -0.6212
 1385TIP3   OH225569   5.538   1.282  14.741 -1.1143 -0.5978 -0.2901
 1385TIP3    H125570   5.582   1.283  14.656 -0.6389  0.0458 -0.0399
 1385TIP3    H225571   5.525   1.189  14.759  0.0742 -0.8161 -0.4203
 1386TIP3   OH225572   5.591   3.076   3.382  0.0689  0.0963 -0.2436
 1386TIP3    H125573   5.678   3.115   3.388 -0.4050  1.0653  0.6821
 1386TIP3    H225574   5.568   3.085   3.290  0.5626  0.7161 -0.3167
 1387TIP3   OH225575   2.037   1.223   5.933 -0.2973  0.0008  0.5645
 1387TIP3    H125576   2.036   1.143   5.881  0.4898 -0.1264  0.7329
 1387TIP3    H225577   2.002   1.195   6.019 -0.2764 -0.0969  0.5417
 1388TIP3   OH225578   2.928   4.726   3.255 -0.0931 -0.1226  0.2257
 1388TIP3    H125579   2.880   4.648   3.284 -1.2757  0.3896 -0.2619
 1388TIP3    H225580   2.998   4.692   3.199 -0.8332 -0.8220 -0.2940
 1389TIP3   OH225581   3.801   0.021   0.525 -0.1952 -0.0121 -0.1670
 1389TIP3    H125582   3.823  -0.071   0.541  1.8590  0.5828  0.7191
 1389TIP3    H225583   3.839   0.039   0.439  0.4024  0.2843  0.1517
 1390TIP3   OH225584   4.477   2.978   4.794  0.4493  0.0577  0.2115
 1390TIP3    H125585   4.447   3.038   4.862 -0.3272  1.0203 -0.9377
 1390TIP3    H225586   4.559   3.017   4.763  0.6900 -0.2662  0.4234
 1391TIP3   OH225587   5.241   3.618  13.325  0.0659  0.1722  0.1624
 1391TIP3    H125588   5.214   3.710  13.321  0.1518  0.1687 -0.5615
 1391TIP3    H225589   5.163   3.570  13.299  0.6666  0.1514 -1.7258
 1392TIP3   OH225590   5.087   0.246   1.601 -0.0539 -0.1045  0.0084
 1392TIP3    H125591   5.139   0.213   1.528  0.4767 -1.2335  0.8745
 1392TIP3    H225592   4.997   0.246   1.568  0.0601 -1.4680 -0.3771
 1393TIP3   OH225593   0.614   1.037  16.403 -0.5016 -0.4028 -0.2804
 1393TIP3    H125594   0.657   1.114  16.366  0.5809 -1.7110 -1.8953
 1393TIP3    H225595   0.678   1.001  16.465 -0.7973 -0.2963  0.0920
 1394TIP3   OH225596   2.467   3.284   1.200 -0.4381  0.0760 -0.0051
 1394TIP3    H125597   2.477   3.193   1.229  2.5208  0.3801  0.2791
 1394TIP3    H225598   2.443   3.332   1.278  2.2532  0.0919  0.9247
 1395TIP3   OH225599   2.929   2.756  16.796 -0.0266  0.1028 -0.3491
 1395TIP3    H125600   2.958   2.795  16.878 -1.0399  1.5793 -0.6394
 1395TIP3    H225601   2.868   2.687  16.821  0.5124 -0.1869  0.1603
 1396TIP3   OH225602   5.272   1.266   2.203 -0.5355  0.0463  0.3989
 1396TIP3    H125603   5.236   1.317   2.276 -1.2939 -1.0919  0.8508
 1396TIP3    H225604   5.343   1.215   2.243 -0.1675  0.2982  0.0751
 1397TIP3   OH225605   6.052   1.364  16.456 -0.1537  0.0808  0.0067
 1397TIP3    H125606   5.993   1.404  16.520  0.0837  2.7260 -1.2901
 1397TIP3    H225607   5.994   1.314  16.399 -0.8678  0.8739  0.0168
 1398TIP3   OH225608   1.379   5.384  16.406  0.1879  0.2955 -0.0209
 1398TIP3    H125609   1.396   5.296  16.439  0.7911  0.4323  0.0401
 1398TIP3    H225610   1.283   5.388  16.398  0.0656  0.0210  1.0456
 1399TIP3   OH225611   3.050   2.860  15.758  0.1379 -0.1451  0.2579
 1399TIP3    H125612   3.060   2.796  15.687 -1.2088  0.0016 -0.1026
 1399TIP3    H225613   3.037   2.807  15.837 -2.3427 -0.4115 -0.2404
 1400TIP3   OH225614   0.263   4.055  12.357  0.0968  0.1394  0.5797
 1400TIP3    H125615   0.179   4.101  12.356 -0.6694 -1.1009  2.1234
 1400TIP3    H225616   0.309   4.092  12.433  1.1115  1.0279 -0.4352
 1401TIP3   OH225617   0.183   6.476   5.843  0.0991 -0.0580 -0.1332
 1401TIP3    H125618   0.130   6.532   5.900  1.2375  0.2557  0.6678
 1401TIP3    H225619   0.178   6.389   5.883 -2.6893 -0.9411 -2.0631
 1402TIP3   OH225620   6.649   2.386  12.283  0.1201 -0.0088 -0.3122
 1402TIP3    H125621   6.557   2.409  12.289 -0.0126 -0.1438 -1.6352
 1402TIP3    H225622   6.651   2.303  12.236  0.8880 -0.2686  0.1503
 1403TIP3   OH225623   3.279   2.109   4.016  0.4578 -0.1715 -0.1985
 1403TIP3    H125624   3.201   2.163   4.032 -0.8011 -1.6094 -1.1945
 1403TIP3    H225625   3.325   2.153   3.945 -0.5497 -0.3939 -1.0003
 1404TIP3   OH225626   6.442   0.895   2.423 -0.1799  0.9511 -0.8686
 1404TIP3    H125627   6.363   0.843   2.437 -0.7055  2.0608  0.5293
 1404TIP3    H225628   6.514   0.838   2.451 -0.4999  0.0626 -1.8218
 1405TIP3   OH225629   0.014   2.922  16.469  0.0560  0.7847 -0.4492
 1405TIP3    H125630   0.096   2.882  16.500 -0.4210 -1.5708 -1.9811
 1405TIP3    H225631   0.032   3.016  16.471  2.2573  0.4230  0.6911
 1406TIP3   OH225632   0.929   6.151  10.668 -0.5199 -0.5576  0.1927
 1406TIP3    H125633   0.904   6.155  10.576 -1.0936 -2.2590  0.2498
 1406TIP3    H225634   1.023   6.170  10.668 -0.4013 -1.0888 -0.8056
 1407TIP3   OH225635   0.384   4.436   0.219  0.0111 -0.2574  0.3186
 1407TIP3    H125636   0.465   4.467   0.179  1.2140 -1.1642  1.9284
 1407TIP3    H225637   0.372   4.347   0.186  0.4660 -0.6440  1.1728
 1408TIP3   OH225638   5.743   5.673   3.248 -0.1570  0.3995 -0.1569
 1408TIP3    H125639   5.767   5.741   3.311  0.8038  0.3081 -0.4064
 1408TIP3    H225640   5.718   5.598   3.302  3.0055 -0.5231  0.2235
 1409TIP3   OH225641   4.362   0.824  15.517 -0.0888  0.6845  0.1944
 1409TIP3    H125642   4.320   0.748  15.558  0.6067 -0.4585 -1.1589
 1409TIP3    H225643   4.304   0.847  15.445  0.3876  0.5972 -0.2164
 1410TIP3   OH225644   1.022   5.791   5.304 -0.0053  0.2093 -0.5817
 1410TIP3    H125645   1.041   5.778   5.211 -0.9609  1.9888 -1.0844
 1410TIP3    H225646   1.035   5.705   5.344  0.6922 -0.5299 -2.3049
 1411TIP3   OH225647   1.083   4.355   6.472  0.2755  0.1756 -0.0377
 1411TIP3    H125648   1.174   4.330   6.456  0.6798  1.7843 -0.5249
 1411TIP3    H225649   1.088   4.444   6.508 -1.1253  0.7287 -1.0849
 1412TIP3   OH225650   2.079   5.546  12.302  0.0506 -0.0690 -0.0441
 1412TIP3    H125651   2.028   5.536  12.221  0.0547  0.7079 -0.1514
 1412TIP3    H225652   2.075   5.640  12.321  0.9958 -0.0845  0.2481
 1413TIP3   OH225653   4.283   4.592  17.138  0.0305  0.2457 -0.3436
 1413TIP3    H125654   4.328   4.676  17.139  2.1337 -0.7891  1.3427
 1413TIP3    H225655   4.341   4.533  17.090 -1.0135 -0.4537 -0.7968
 1414TIP3   OH225656   1.282   4.751   1.836  0.5609 -0.5105 -0.2392
 1414TIP3    H125657   1.335   4.718   1.908  0.3156  0.0769  0.2174
 1414TIP3    H225658   1.309   4.699   1.760  1.8505 -0.1695 -0.0355
 1415TIP3   OH225659   3.635   2.315   2.890 -0.3271  0.1474 -0.8336
 1415TIP3    H125660   3.630   2.246   2.956 -0.1330  1.4625  0.6072
 1415TIP3    H225661   3.700   2.284   2.827  4.1029  1.2646  2.6807
 1416TIP3   OH225662   3.354   1.360   4.910  0.0661  0.2288  0.1274
 1416TIP3    H125663   3.290   1.318   4.853 -1.5440  0.0902  1.9182
 1416TIP3    H225664   3.355   1.452   4.883  1.2374 -0.2723 -1.7196
 1417TIP3   OH225665   5.846   6.659  14.203 -0.4950  0.2155 -0.0089
 1417TIP3    H125666   5.926   6.679  14.155  0.1310 -0.4737  0.7230
 1417TIP3    H225667   5.786   6.626  14.136  0.8211 -2.0317 -0.1874
 1418TIP3   OH225668   4.663   1.144  16.637  0.7087 -0.0240  0.3368
 1418TIP3    H125669   4.646   1.166  16.546  0.8750 -0.0929  0.2899
 1418TIP3    H225670   4.757   1.127  16.641  0.5591 -0.9045  0.3401
 1419TIP3   OH225671   4.637   3.650  15.231  0.1051 -0.4020 -0.5099
 1419TIP3    H125672   4.688   3.647  15.312 -0.2546 -2.2026 -0.2978
 1419TIP3    H225673   4.701   3.666  15.162  0.8433 -1.7178 -0.1540
 1420TIP3   OH225674   2.068   4.744   5.182 -0.3687 -0.1878  0.4661
 1420TIP3    H125675   2.022   4.675   5.230  0.4028 -0.7340  0.4330
 1420TIP3    H225676   2.158   4.739   5.213  0.1116 -0.4409 -0.9175
 1421TIP3   OH225677   6.009   1.675   5.885 -0.4182  0.2359 -0.5145
 1421TIP3    H125678   5.948   1.714   5.824 -0.4259  0.1453 -0.5655
 1421TIP3    H225679   5.964   1.678   5.970  0.2688  1.9573 -0.1578
 1422TIP3   OH225680   0.132   6.676   3.291 -0.1183  0.4721 -0.0956
 1422TIP3    H125681   0.110   6.745   3.354 -0.3107  1.0780 -0.8070
 1422TIP3    H225682   0.226   6.660   3.306 -0.1936  0.5057  0.4371
 1423TIP3   OH225683   5.639   1.587  16.212 -0.9038  0.5222 -0.2179
 1423TIP3    H125684   5.612   1.544  16.293 -0.0133  1.1001  0.4054
 1423TIP3    H225685   5.559   1.627  16.177 -0.9632  1.8381  1.3469
 1424TIP3   OH225686   2.160   5.257  14.523  0.1601 -0.3886  0.4580
 1424TIP3    H125687   2.092   5.274  14.589  0.5912 -0.8895  1.0349
 1424TIP3    H225688   2.139   5.318  14.452 -2.6700 -2.4824 -0.7260
 1425TIP3   OH225689   2.985   6.028   5.195 -0.1659  0.4149  0.6891
 1425TIP3    H125690   2.907   6.084   5.195 -0.8873 -0.5586  0.6669
 1425TIP3    H225691   2.992   5.997   5.285  0.1868  0.4587  0.6806
 1426TIP3   OH225692   0.052   1.958  13.310  0.1586  0.0983 -0.2592
 1426TIP3    H125693   0.129   1.929  13.358  1.1349  0.8831 -1.2868
 1426TIP3    H225694  -0.011   1.981  13.378  0.5617 -1.2010  0.5933
 1427TIP3   OH225695   5.245   5.036  11.830 -0.0933 -0.2218  0.9594
 1427TIP3    H125696   5.189   4.958  11.838  1.8710 -1.7551  0.5523
 1427TIP3    H225697   5.273   5.055  11.919  0.7043 -1.0071  0.8907
 1428TIP3   OH225698   1.130   6.434   3.478 -0.8144 -0.2375  0.1092
 1428TIP3    H125699   1.191   6.507   3.487  1.2873 -2.0777  1.9830
 1428TIP3    H225700   1.122   6.420   3.384  1.2519  0.4473 -0.2061
 1429TIP3   OH225701   0.707   3.325  13.062  0.1669  0.1747 -0.0880
 1429TIP3    H125702   0.698   3.293  13.152  2.3369  0.4494  0.2915
 1429TIP3    H225703   0.630   3.293  13.017  0.6553 -2.9010  1.0403
 1430TIP3   OH225704   1.993   6.228   1.575 -0.2754  0.3832 -0.1868
 1430TIP3    H125705   1.930   6.259   1.511 -0.2423  0.5572 -0.1382
 1430TIP3    H225706   1.971   6.276   1.655 -1.4038 -1.0639  0.4278
 1431TIP3   OH225707   2.850   6.158   1.461 -0.1033 -0.0281 -0.8819
 1431TIP3    H125708   2.861   6.226   1.527 -0.3899 -0.5421 -0.3045
 1431TIP3    H225709   2.818   6.205   1.384  1.5692  0.7904 -1.1289
 1432TIP3   OH225710   4.656   2.991   1.215 -0.1209  0.7677  0.4733
 1432TIP3    H125711   4.720   3.049   1.173 -0.2826  2.4036  2.3583
 1432TIP3    H225712   4.587   2.981   1.150  1.8831 -0.9718 -1.5963
 1433TIP3   OH225713   6.624   2.196   2.457 -0.1838 -0.1137  0.2970
 1433TIP3    H125714   6.583   2.110   2.446 -0.2542  0.1077 -1.4565
 1433TIP3    H225715   6.689   2.201   2.388  0.8835  0.6727  1.3182
 1434TIP3   OH225716   2.172   2.252  16.279 -0.1934 -0.5903  0.5982
 1434TIP3    H125717   2.077   2.248  16.293 -0.3243 -1.5851 -0.3596
 1434TIP3    H225718   2.203   2.166  16.306  0.1586 -0.9304 -0.7983
 1435TIP3   OH225719   2.351   2.483   2.274 -0.1998 -0.0242  0.3144
 1435TIP3    H125720   2.398   2.565   2.290 -0.8407  0.2688  0.6926
 1435TIP3    H225721   2.363   2.467   2.180  1.3614 -0.3983  0.5348
 1436TIP3   OH225722   5.051   2.848   1.380  0.2524 -0.3144 -0.0059
 1436TIP3    H125723   4.986   2.824   1.446  0.9888  0.6704  1.1072
 1436TIP3    H225724   5.135   2.826   1.419  0.6826 -0.0383 -0.7539
 1437TIP3   OH225725   1.714   0.879   3.922 -0.1214 -0.1993 -0.1059
 1437TIP3    H125726   1.632   0.832   3.938 -0.2416 -0.7459 -2.0993
 1437TIP3    H225727   1.771   0.852   3.994 -1.4512 -0.2988  0.9722
 1438TIP3   OH225728   4.710   1.866  15.833  0.2187  0.5406 -0.3542
 1438TIP3    H125729   4.717   1.778  15.798  1.3425  0.3030  0.4062
 1438TIP3    H225730   4.758   1.862  15.916  0.2252  1.8469 -0.2798
 1439TIP3   OH225731   4.609   2.321   3.125  0.2565 -0.0579 -0.2592
 1439TIP3    H125732   4.661   2.315   3.205 -1.2954  1.9926  0.9967
 1439TIP3    H225733   4.527   2.275   3.146 -0.4059  1.0137 -0.4011
 1440TIP3   OH225734   0.378   6.094  11.495 -0.2081 -0.0149  0.1946
 1440TIP3    H125735   0.402   6.181  11.465 -0.6827 -0.0486 -0.3012
 1440TIP3    H225736   0.306   6.068  11.438  0.3824 -1.0217 -0.1208
 1441TIP3   OH225737   2.624   0.455  15.998  0.3414 -0.3693 -0.2276
 1441TIP3    H125738   2.546   0.457  15.943  1.3075  1.4786 -1.6595
 1441TIP3    H225739   2.696   0.476  15.938  1.3815  2.4224  1.7458
 1442TIP3   OH225740   6.100   5.603  12.099  0.0667 -0.1107  0.3644
 1442TIP3    H125741   6.089   5.626  12.191 -2.1725  0.0448  0.1136
 1442TIP3    H225742   6.121   5.509  12.099  0.1453 -0.0923  1.0314
 1443TIP3   OH225743   2.036   4.325   1.190 -0.1459 -0.2399  0.2446
 1443TIP3    H125744   2.083   4.403   1.162 -0.4270 -0.6964 -1.6496
 1443TIP3    H225745   1.952   4.357   1.222  0.2128  0.3210  0.6268
 1444TIP3   OH225746   0.031   1.570   5.164 -0.4084 -0.8460 -0.1956
 1444TIP3    H125747  -0.059   1.567   5.196 -0.4939 -0.7408 -0.4278
 1444TIP3    H225748   0.071   1.491   5.200 -1.1716 -2.0313 -1.8129
 1445TIP3   OH225749   5.436   0.149  12.002  0.4142  0.2083 -0.3906
 1445TIP3    H125750   5.527   0.168  11.979  0.3266  0.0473 -0.8720
 1445TIP3    H225751   5.439   0.135  12.097  0.8391  0.4993 -0.3556
 1446TIP3   OH225752   3.820   0.005   3.410 -0.3586 -0.2447  0.0431
 1446TIP3    H125753   3.792   0.056   3.333 -0.6202  0.9906  0.9318
 1446TIP3    H225754   3.743  -0.046   3.434 -0.2686 -0.6567 -0.5187
 1447TIP3   OH225755   3.802   2.921   3.493  0.8442 -0.3174  0.0837
 1447TIP3    H125756   3.756   2.878   3.421 -0.2734 -1.1124  1.2336
 1447TIP3    H225757   3.759   3.007   3.501 -0.3557 -0.9664  1.0020
 1448TIP3   OH225758   0.326   3.327   4.739 -0.0745  0.5555 -0.2133
 1448TIP3    H125759   0.237   3.318   4.706  0.5239 -0.3207 -1.6461
 1448TIP3    H225760   0.378   3.353   4.663  1.0096  0.4787  0.4736
 1449TIP3   OH225761   1.399   6.369   4.764 -0.0938 -0.0288  0.1505
 1449TIP3    H125762   1.365   6.375   4.853 -1.0672  0.2920 -0.2285
 1449TIP3    H225763   1.367   6.285   4.732 -0.2634  0.1278 -0.0972
 1450TIP3   OH225764   1.924   0.628  12.004 -0.3380  0.3310 -0.1702
 1450TIP3    H125765   1.992   0.624  11.936  0.2933  2.3751  0.2667
 1450TIP3    H225766   1.842   0.612  11.957  0.1660  0.8562 -1.2625
 1451TIP3   OH225767   5.402   4.336   1.220 -0.2927 -0.1631 -0.2088
 1451TIP3    H125768   5.353   4.418   1.212  0.6468  0.3551 -0.8962
 1451TIP3    H225769   5.336   4.268   1.210 -0.8409  0.5178 -1.4581
 1452TIP3   OH225770   6.628   6.008  15.468  0.1603  0.5263  0.7705
 1452TIP3    H125771   6.541   6.039  15.442 -0.2808  0.7973  2.4509
 1452TIP3    H225772   6.684   6.085  15.461  0.3412  0.2911 -0.5619
 1453TIP3   OH225773   1.813   4.377   3.038  0.0950 -0.3469 -0.5432
 1453TIP3    H125774   1.808   4.394   2.944  0.4038 -0.5154 -0.5926
 1453TIP3    H225775   1.878   4.308   3.046 -0.1825 -0.5726 -0.2322
 1454TIP3   OH225776   0.197   1.898  10.462 -0.1869 -0.0367 -0.2871
 1454TIP3    H125777   0.152   1.841  10.399 -0.9969 -0.9186  1.0538
 1454TIP3    H225778   0.289   1.869  10.458 -0.8444 -2.7989  1.6649
 1455TIP3   OH225779   4.925   0.476  12.709  0.4068  0.2032  0.2826
 1455TIP3    H125780   4.926   0.557  12.658 -0.8017 -0.6492 -1.1758
 1455TIP3    H225781   4.854   0.424  12.671  0.3638 -1.0533  1.9691
 1456TIP3   OH225782   1.395   0.949  15.051  0.1184  0.2975 -0.7583
 1456TIP3    H125783   1.333   1.008  15.094  1.1049  1.3799 -0.7633
 1456TIP3    H225784   1.448   0.914  15.122  0.5002  0.5806 -0.9024
 1457TIP3   OH225785   4.982   2.051  14.513 -0.0708 -0.2491  0.1194
 1457TIP3    H125786   4.941   2.088  14.591  0.3968  0.3038  0.1095
 1457TIP3    H225787   4.982   2.122  14.450 -1.9111 -1.1382 -0.9732
 1458TIP3   OH225788   4.886   0.519  15.936 -0.2052  0.2426 -0.3833
 1458TIP3    H125789   4.835   0.569  15.872  0.2652  1.3248  0.0658
 1458TIP3    H225790   4.838   0.528  16.018 -1.9230 -2.8210 -0.9043
 1459TIP3   OH225791   0.618   1.295   2.973  0.5295  0.4256  0.1268
 1459TIP3    H125792   0.607   1.373   3.027 -0.2255  0.9975 -0.8164
 1459TIP3    H225793   0.645   1.227   3.034 -1.0377  0.8475  1.3700
 1460TIP3   OH225794   0.856   5.361  16.744 -0.5382 -0.3309  0.4422
 1460TIP3    H125795   0.861   5.338  16.651  2.9086 -0.0593  0.4338
 1460TIP3    H225796   0.819   5.284  16.786 -0.7050 -1.0513 -0.9718
 1461TIP3   OH225797   4.612   3.954  13.609 -0.1068 -0.1044  0.1025
 1461TIP3    H125798   4.527   3.943  13.652 -0.1542 -0.0649  0.0196
 1461TIP3    H225799   4.617   3.882  13.547  0.3975 -0.7499  0.8742
 1462TIP3   OH225800   6.597   3.575  13.678  0.0290 -0.9896  0.3552
 1462TIP3    H125801   6.558   3.499  13.722  0.6273 -0.4734  1.8143
 1462TIP3    H225802   6.532   3.599  13.612 -0.9301 -1.7585  0.9822
 1463TIP3   OH225803   3.127   5.829  14.832 -0.2025 -0.2920  0.2868
 1463TIP3    H125804   3.095   5.879  14.907 -0.0193 -1.8145  1.4623
 1463TIP3    H225805   3.136   5.892  14.762  0.2996  1.3607  1.7618
 1464TIP3   OH225806   2.328   2.975   1.588  0.2157 -0.1807  0.7170
 1464TIP3    H125807   2.340   3.015   1.673 -2.0130  1.6835  0.2399
 1464TIP3    H225808   2.233   2.974   1.574  0.5245  1.0731 -2.3775
 1465TIP3   OH225809   2.414   3.318  10.943  0.1094  0.8107  0.5205
 1465TIP3    H125810   2.331   3.270  10.935 -0.3162  1.7574 -1.3348
 1465TIP3    H225811   2.482   3.252  10.936 -0.4752  0.3473 -1.2199
 1466TIP3   OH225812   2.629   0.876  12.500  0.2378 -0.3100  0.0383
 1466TIP3    H125813   2.557   0.812  12.509 -0.0837  0.2490  1.6072
 1466TIP3    H225814   2.708   0.824  12.509 -0.0228 -0.5043  1.2947
 1467TIP3   OH225815   6.565   2.028  14.995 -0.1132 -0.5416 -0.0414
 1467TIP3    H125816   6.586   1.995  14.907  3.7950 -0.3501  0.6593
 1467TIP3    H225817   6.553   2.122  14.983 -0.9325 -0.6956 -0.5233
 1468TIP3   OH225818   3.210   6.462  14.854  0.3536 -0.3058  0.5658
 1468TIP3    H125819   3.255   6.515  14.789  1.0411  0.5635  1.6995
 1468TIP3    H225820   3.123   6.446  14.816  1.4665 -1.7803 -1.5336
 1469TIP3   OH225821   5.751   4.178  15.623 -0.7026 -0.3830 -0.1793
 1469TIP3    H125822   5.813   4.158  15.552  1.6118  0.6429  1.4362
 1469TIP3    H225823   5.702   4.097  15.635  0.0328 -1.1167 -1.8073
 1470TIP3   OH225824   2.607   5.055   2.962  0.7450 -0.3657 -0.4942
 1470TIP3    H125825   2.657   4.984   3.002 -0.0642 -0.9885 -0.5545
 1470TIP3    H225826   2.534   5.069   3.021  0.7599  0.2488 -0.6163
 1471TIP3   OH225827   2.668   3.604  14.314 -0.2032 -0.0681 -0.0838
 1471TIP3    H125828   2.641   3.554  14.391 -0.8172 -0.9790 -0.8617
 1471TIP3    H225829   2.589   3.609  14.260 -0.0800  1.5434 -0.1517
 1472TIP3   OH225830   6.155   5.549   0.447 -0.5311 -0.1860 -0.2781
 1472TIP3    H125831   6.181   5.549   0.354 -0.0070 -1.5450 -0.1583
 1472TIP3    H225832   6.065   5.582   0.447 -0.2590  0.6075 -1.1724
 1473TIP3   OH225833   5.086   1.185   2.556  0.4795  0.4260  0.4636
 1473TIP3    H125834   5.036   1.237   2.619 -0.8178  0.5680 -0.6349
 1473TIP3    H225835   5.176   1.215   2.566 -0.0159  1.8563  0.8676
 1474TIP3   OH225836   4.744   4.655   5.135 -0.1641 -0.3892  0.4501
 1474TIP3    H125837   4.722   4.681   5.046 -1.1678  1.6078  1.2116
 1474TIP3    H225838   4.660   4.634   5.176  0.2065 -0.5818  1.1347
 1475TIP3   OH225839   3.998   4.772  14.921 -0.5540  0.8616  0.1936
 1475TIP3    H125840   4.018   4.679  14.936  4.0901  1.5803  0.0265
 1475TIP3    H225841   3.946   4.798  14.997 -1.3233 -1.6455  0.6322
 1476TIP3   OH225842   6.093   5.193   2.004  0.0981  0.7529 -0.5823
 1476TIP3    H125843   6.104   5.287   1.994  0.8915  0.5122 -2.4641
 1476TIP3    H225844   6.178   5.157   1.978  0.5182 -0.4383  2.0458
 1477TIP3   OH225845   3.246   0.409   3.085 -0.7173 -0.0802  0.1496
 1477TIP3    H125846   3.337   0.381   3.088 -1.0102 -1.1613 -0.7154
 1477TIP3    H225847   3.202   0.353   3.148 -0.9740 -0.2722 -0.2010
 1478TIP3   OH225848   5.790   5.178  10.567 -0.9905 -0.3200  0.3177
 1478TIP3    H125849   5.806   5.092  10.607  0.3860 -0.0383  0.3951
 1478TIP3    H225850   5.753   5.230  10.638  0.9703  0.0272  1.1498
 1479TIP3   OH225851   3.544   1.513   5.911  0.2932 -0.0383 -0.5442
 1479TIP3    H125852   3.465   1.482   5.955  0.1839  0.8604 -0.0691
 1479TIP3    H225853   3.519   1.523   5.820 -0.6909  1.8600 -0.1254
 1480TIP3   OH225854   6.264   0.664  10.441 -0.1529  0.7816  0.5775
 1480TIP3    H125855   6.326   0.737  10.452  1.7018 -0.9983  3.3373
 1480TIP3    H225856   6.254   0.629  10.529  0.5164 -3.3910 -0.7997
 1481TIP3   OH225857   1.127   2.204   4.190 -0.4794 -0.5245  0.3701
 1481TIP3    H125858   1.052   2.264   4.193  0.0300  0.0966  1.1343
 1481TIP3    H225859   1.169   2.215   4.275  0.7204 -0.5674 -0.2086
 1482TIP3   OH225860   3.487   2.031  16.223  0.2884  0.2170  0.0115
 1482TIP3    H125861   3.559   1.985  16.267 -0.8228 -2.6369 -0.9595
 1482TIP3    H225862   3.420   2.040  16.291  0.6171  0.6788  0.2790
 1483TIP3   OH225863   6.135   2.333  10.486 -1.0849  0.0673 -0.1433
 1483TIP3    H125864   6.173   2.279  10.556 -0.7770 -0.0772 -0.4157
 1483TIP3    H225865   6.054   2.288  10.463 -1.1808  0.1083  0.1127
 1484TIP3   OH225866   5.183   2.887   1.628  0.3946 -0.0832 -0.2978
 1484TIP3    H125867   5.272   2.855   1.640  0.3909  0.1442  0.3769
 1484TIP3    H225868   5.127   2.813   1.655  0.3788 -0.2225 -0.7117
 1485TIP3   OH225869   6.514   2.787  14.943  0.4725  0.8832  0.2764
 1485TIP3    H125870   6.543   2.823  15.026 -0.7324 -0.4860  1.3393
 1485TIP3    H225871   6.560   2.704  14.935  0.3733  0.8782 -0.2948
 1486TIP3   OH225872   5.868   4.103   5.337 -0.7358 -0.1199  0.3228
 1486TIP3    H125873   5.880   4.180   5.393  1.7788  2.2445 -3.0450
 1486TIP3    H225874   5.816   4.135   5.263  0.5477 -1.5068 -1.2838
 1487TIP3   OH225875   4.449   2.684   1.324 -0.3108  0.1916 -0.0010
 1487TIP3    H125876   4.512   2.749   1.354 -0.3505  1.3822 -2.2712
 1487TIP3    H225877   4.502   2.616   1.283 -0.3988  1.4852 -2.4577
 1488TIP3   OH225878   4.141   3.451   3.101 -0.1252 -0.2336  0.5565
 1488TIP3    H125879   4.085   3.373   3.107  1.8307 -1.5761  2.8174
 1488TIP3    H225880   4.222   3.419   3.061 -0.1119  1.2109 -0.6655
 1489TIP3   OH225881   0.573   2.060   2.915  0.0168  0.1674  0.2282
 1489TIP3    H125882   0.565   1.976   2.871  1.6021 -1.3250  2.5366
 1489TIP3    H225883   0.499   2.062   2.976  0.4287  0.0481  0.7388
 1490TIP3   OH225884   3.130   0.669   1.072 -0.0931 -0.5958  0.1986
 1490TIP3    H125885   3.193   0.691   1.141 -0.4511  0.2902  0.2531
 1490TIP3    H225886   3.069   0.742   1.071 -0.1289 -0.6300 -1.0332
 1491TIP3   OH225887   3.007   0.943   2.084 -0.4125  0.4486  0.2102
 1491TIP3    H125888   2.941   0.881   2.117 -0.6880  1.0176  0.7423
 1491TIP3    H225889   3.051   0.975   2.163  0.3261  0.2726 -0.1259
 1492TIP3   OH225890   3.826   1.056  16.111  0.1013 -0.3203 -0.1189
 1492TIP3    H125891   3.922   1.062  16.102  0.3085 -0.4980  1.6790
 1492TIP3    H225892   3.812   1.032  16.202 -1.5805 -3.4473 -1.0901
 1493TIP3   OH225893   4.702   0.270   3.136  0.0866 -0.1905  0.7570
 1493TIP3    H125894   4.739   0.214   3.204  0.6039  0.4140  0.9847
 1493TIP3    H225895   4.608   0.253   3.139  0.4185 -2.8470 -0.8339
 1494TIP3   OH225896   6.231   2.480   4.323 -0.1617 -0.4201  0.1809
 1494TIP3    H125897   6.310   2.436   4.291 -0.4202 -0.4828 -0.3948
 1494TIP3    H225898   6.207   2.433   4.403 -0.1238 -0.9738 -0.1264
 1495TIP3   OH225899   1.244   1.913  17.273 -0.0621  0.5102 -0.0702
 1495TIP3    H125900   1.178   1.956  17.220  1.3642  0.7173 -1.7503
 1495TIP3    H225901   1.248   1.965  17.354 -1.1006  1.1738 -0.4370
 1496TIP3   OH225902   4.019   2.665   4.809 -0.2471 -0.4011  0.1546
 1496TIP3    H125903   3.962   2.718   4.753  1.0469  0.6475 -0.2157
 1496TIP3    H225904   3.961   2.598   4.845 -1.1997 -1.0229 -2.2928
 1497TIP3   OH225905   0.793   6.550  15.635 -0.4982 -0.1319 -0.6808
 1497TIP3    H125906   0.882   6.571  15.606  0.0113  0.2005  1.0271
 1497TIP3    H225907   0.737   6.575  15.561  0.7942 -0.1341 -1.6927
 1498TIP3   OH225908   4.666   0.005   0.815  0.2998  0.2644  0.3272
 1498TIP3    H125909   4.742   0.041   0.860  1.6672 -1.8995 -0.0799
 1498TIP3    H225910   4.639   0.073   0.753  2.1877  0.9219  0.1730
 1499TIP3   OH225911   5.504   0.525   1.076  0.3931  0.0731  0.7753
 1499TIP3    H125912   5.471   0.440   1.106  1.7932 -0.6981  0.2171
 1499TIP3    H225913   5.509   0.578   1.155 -0.8829 -0.2202  1.0727
 1500TIP3   OH225914   2.635   1.468  13.543 -0.3711  0.6604 -0.2324
 1500TIP3    H125915   2.575   1.434  13.477  0.2952  1.8285 -1.4780
 1500TIP3    H225916   2.589   1.454  13.626 -1.0546 -1.1857 -0.8729
 1501TIP3   OH225917   3.233   2.771  12.960 -0.3010  0.3151  0.1031
 1501TIP3    H125918   3.221   2.810  13.046  1.4235  0.0484  0.4997
 1501TIP3    H225919   3.251   2.845  12.902 -0.2950  0.3890  0.1996
 1502TIP3   OH225920   0.512   2.713   0.568 -0.0156  0.5098 -0.0032
 1502TIP3    H125921   0.511   2.693   0.661  0.2383  0.6471  0.0315
 1502TIP3    H225922   0.440   2.662   0.531 -0.5785  1.0243  0.3824
 1503TIP3   OH225923   3.884   6.006   5.233  0.7303 -0.6039 -0.0656
 1503TIP3    H125924   3.834   6.053   5.166 -0.2487 -2.5137 -0.7414
 1503TIP3    H225925   3.973   6.005   5.199  0.6124  0.0636 -0.4203
 1504TIP3   OH225926   5.747   1.496   5.010  0.0478 -0.3632  0.5965
 1504TIP3    H125927   5.654   1.480   4.994  0.3008 -1.4076  0.1310
 1504TIP3    H225928   5.768   1.441   5.086  0.5651 -1.0818 -0.0555
 1505TIP3   OH225929   3.680   6.017  12.487  0.2540  0.4174  0.2220
 1505TIP3    H125930   3.754   6.022  12.427  0.6795 -0.3414  0.6667
 1505TIP3    H225931   3.611   5.973  12.437  0.6993 -0.4555  0.3654
 1506TIP3   OH225932   5.106   5.589  16.576  0.0608 -0.3261  0.0851
 1506TIP3    H125933   5.121   5.546  16.492  1.1115  0.7868 -0.3443
 1506TIP3    H225934   5.013   5.579  16.592 -0.0912 -0.9012 -1.0350
 1507TIP3   OH225935   0.034   2.866  11.403 -0.0509  0.1106 -0.0897
 1507TIP3    H125936   0.018   2.949  11.449  2.0534 -0.2178  1.3969
 1507TIP3    H225937   0.092   2.817  11.461  0.3584 -1.5998 -1.8241
 1508TIP3   OH225938   5.978   4.542   1.019 -0.1646 -0.5022 -0.4676
 1508TIP3    H125939   6.054   4.568   0.965  0.0656  2.2718  0.9797
 1508TIP3    H225940   6.012   4.474   1.077 -0.1101 -2.6987 -2.8725
 1509TIP3   OH225941   4.109   1.062  16.133  0.2163  0.4739  0.3664
 1509TIP3    H125942   4.173   1.119  16.091 -0.1655  0.2036 -0.6310
 1509TIP3    H225943   4.084   1.108  16.213  0.3755  1.4159 -0.1074
 1510TIP3   OH225944   1.352   6.489  11.459 -0.1797 -0.8594 -0.3851
 1510TIP3    H125945   1.415   6.494  11.388 -0.6855 -0.3989 -0.8149
 1510TIP3    H225946   1.384   6.551  11.525  1.1470 -2.4260  0.5193
 1511TIP3   OH225947   6.276   3.662  16.105 -0.3940  0.3918 -0.3989
 1511TIP3    H125948   6.331   3.615  16.044 -0.1263 -0.8793  0.7700
 1511TIP3    H225949   6.282   3.754  16.078  0.7888  0.0297 -1.4235
 1512TIP3   OH225950   5.473   5.435  13.625 -0.2218  0.5144 -0.1702
 1512TIP3    H125951   5.471   5.450  13.530 -0.6010 -2.5999 -0.7775
 1512TIP3    H225952   5.382   5.420  13.649  0.0470 -0.5495  0.2647
 1513TIP3   OH225953   0.869   5.123   0.170 -0.5064 -0.0168 -0.2378
 1513TIP3    H125954   0.830   5.209   0.154 -0.8719 -0.1137  0.1139
 1513TIP3    H225955   0.963   5.141   0.177 -0.2621 -0.0252 -2.7500
 1514TIP3   OH225956   2.051   3.334   1.422 -0.4157 -0.0215  0.0584
 1514TIP3    H125957   2.040   3.378   1.506  0.3757 -1.0136  0.7022
 1514TIP3    H225958   2.045   3.241   1.442 -0.5127 -0.2688 -1.0357
 1515TIP3   OH225959   1.602   1.897   1.240 -0.1826  0.1368 -0.2367
 1515TIP3    H125960   1.635   1.863   1.157 -1.1135  1.5573 -1.2397
 1515TIP3    H225961   1.661   1.970   1.261  0.7236 -0.8995  0.9599
 1516TIP3   OH225962   0.791   1.613   0.290  0.5468  0.0222  0.4193
 1516TIP3    H125963   0.736   1.656   0.356  1.0935 -0.8391  1.4447
 1516TIP3    H225964   0.729   1.563   0.237 -0.1026  1.9247 -0.7535
 1517TIP3   OH225965   3.713   4.094  15.963  1.1406 -0.5417  0.4998
 1517TIP3    H125966   3.680   4.156  16.029 -1.1995 -0.4209 -0.6957
 1517TIP3    H225967   3.751   4.150  15.895  0.9739 -0.5164  0.4267
 1518TIP3   OH225968   1.752   1.658  16.883  0.3123  0.2121  0.6021
 1518TIP3    H125969   1.803   1.611  16.816 -0.2749  2.5143 -1.6077
 1518TIP3    H225970   1.670   1.609  16.889  0.8752 -0.7567  0.6169
 1519TIP3   OH225971   0.400   0.671  15.806 -0.4483 -0.3111  0.2062
 1519TIP3    H125972   0.328   0.641  15.750 -0.8103 -1.3153  1.1475
 1519TIP3    H225973   0.470   0.607  15.791 -1.5645 -2.4000  2.9440
 1520TIP3   OH225974   1.736   4.911  12.364 -0.3637 -0.4636 -0.1807
 1520TIP3    H125975   1.651   4.952  12.384  0.2491  0.7938 -0.0496
 1520TIP3    H225976   1.796   4.947  12.430  0.6656  0.0675 -1.3623
 1521TIP3   OH225977   4.951   4.080   5.981  0.2089 -0.0713  0.3640
 1521TIP3    H125978   5.016   4.106   5.916  1.4424 -2.3421  0.5943
 1521TIP3    H225979   4.916   4.162   6.014 -1.1694  1.2478 -3.7523
 1522TIP3   OH225980   4.500   2.062  12.474  0.5826 -0.0160  0.8709
 1522TIP3    H125981   4.450   1.981  12.463 -0.2300  0.6043 -0.3766
 1522TIP3    H225982   4.437   2.123  12.514  1.5940 -0.3656  3.0728
 1523TIP3   OH225983   5.604   2.614  16.094 -0.2118  0.5553  0.7235
 1523TIP3    H125984   5.673   2.549  16.104 -0.6757  0.0687  0.8231
 1523TIP3    H225985   5.638   2.692  16.138  0.9072  0.8232 -0.5860
 1524TIP3   OH225986   0.530   0.193   1.413 -0.0291 -0.4392 -0.3242
 1524TIP3    H125987   0.461   0.200   1.347 -0.1390  2.9262 -0.0180
 1524TIP3    H225988   0.489   0.225   1.493  0.6720 -2.6376  0.9775
 1525TIP3   OH225989   6.329   1.578  10.427  0.6058  0.2249 -0.7000
 1525TIP3    H125990   6.380   1.538  10.498  0.4680  1.7113  0.3064
 1525TIP3    H225991   6.306   1.506  10.369 -0.5855 -1.3332  1.5612
 1526TIP3   OH225992   4.984   5.381  12.406 -0.4697 -0.2075  0.2921
 1526TIP3    H125993   5.047   5.410  12.473 -2.1060 -1.8590  2.7368
 1526TIP3    H225994   4.949   5.463  12.370  0.6002  0.7715  1.3653
 1527TIP3   OH225995   5.705   6.149  14.851 -1.2556 -0.2568 -0.2309
 1527TIP3    H125996   5.716   6.192  14.766  0.1493 -1.0944 -0.5058
 1527TIP3    H225997   5.636   6.084  14.838 -2.0368  0.5707 -0.3287
 1528TIP3   OH225998   5.908   6.611   2.912  0.4140  0.3496  0.3978
 1528TIP3    H125999   5.837   6.665   2.948  1.5887  0.7604  2.2451
 1528TIP3    H226000   5.891   6.523   2.946  0.5491  0.3659  0.5102
 1529TIP3   OH226001   4.591   1.390   4.320 -0.1059 -0.3655 -0.3262
 1529TIP3    H126002   4.628   1.305   4.297 -1.2759 -0.9783 -0.0105
 1529TIP3    H226003   4.609   1.399   4.414 -1.0048 -0.8069 -0.1031
 1530TIP3   OH226004   4.492   1.368  17.201 -0.1810  0.3064 -0.4642
 1530TIP3    H126005   4.415   1.370  17.145  0.3089 -0.4050 -1.2011
 1530TIP3    H226006   4.531   1.455  17.191 -2.4539  1.7883  2.2777
 1531TIP3   OH226007   2.042   1.163   3.308 -0.5999  1.0792 -0.1993
 1531TIP3    H126008   2.074   1.074   3.299  1.3130  1.4211  2.1896
 1531TIP3    H226009   2.104   1.217   3.259 -1.6502  1.1647 -1.4920
 1532TIP3   OH226010   4.905   2.580   4.722 -0.1775 -0.1608  0.1293
 1532TIP3    H126011   4.934   2.542   4.805  0.3319 -0.6241 -0.2541
 1532TIP3    H226012   4.964   2.543   4.656 -1.5311 -1.0163 -0.6634
 1533TIP3   OH226013   5.142   3.703  17.296  0.1617 -0.2149  0.1754
 1533TIP3    H126014   5.160   3.624  17.246  1.3360 -0.1292  0.4300
 1533TIP3    H226015   5.173   3.683  17.385  0.3195  0.4603  0.2826
 1534TIP3   OH226016   4.395   3.121  10.615  0.7941  0.1675 -0.1936
 1534TIP3    H126017   4.322   3.130  10.552  0.3140  0.4269  0.3872
 1534TIP3    H226018   4.459   3.186  10.585  0.1742  0.9420  0.1017
 1535TIP3   OH226019   4.790   2.728   5.100  0.1470 -0.5752 -0.0131
 1535TIP3    H126020   4.754   2.684   5.023 -3.1675 -1.5620  1.9069
 1535TIP3    H226021   4.760   2.818   5.093 -0.4617 -0.7528  0.2903
 1536TIP3   OH226022   5.010   3.231  15.411 -0.1418  0.6144  0.2703
 1536TIP3    H126023   5.103   3.241  15.390 -0.7049  1.5393 -2.1890
 1536TIP3    H226024   4.992   3.138  15.394  0.2974  0.4746  0.5607
 1537TIP3   OH226025   4.620   3.810  12.623 -0.2022  1.1751  0.3295
 1537TIP3    H126026   4.625   3.792  12.530 -0.4605  2.9436 -0.0700
 1537TIP3    H226027   4.531   3.783  12.649 -0.6081  1.8948 -0.2564
 1538TIP3   OH226028   5.693   2.886   2.845  0.6695  0.0423  0.2274
 1538TIP3    H126029   5.654   2.806   2.809 -0.2216  0.2256  0.7440
 1538TIP3    H226030   5.619   2.933   2.883  1.3019  0.7546  0.5990
 1539TIP3   OH226031   4.254   4.022  16.873  0.1458  0.3027 -0.7488
 1539TIP3    H126032   4.320   3.957  16.848  0.4051 -0.0929  0.8101
 1539TIP3    H226033   4.295   4.072  16.944 -0.9663  0.4857 -0.1992
 1540TIP3   OH226034   2.991   4.621   4.096  0.0766  0.2390  0.4908
 1540TIP3    H126035   3.051   4.658   4.032  1.0142 -0.7652  0.7710
 1540TIP3    H226036   3.047   4.587   4.165 -0.7786 -1.2035  0.5052
 1541TIP3   OH226037   6.056   1.579   5.399 -0.7135 -0.3840 -0.6904
 1541TIP3    H126038   5.987   1.644   5.408 -1.2944 -1.0757 -0.0410
 1541TIP3    H226039   6.073   1.575   5.305 -0.9136  0.4398 -0.7720
 1542TIP3   OH226040   1.011   3.722   1.358  0.2579 -0.0223 -0.0317
 1542TIP3    H126041   0.947   3.655   1.381 -1.2496  1.8392  1.4395
 1542TIP3    H226042   0.963   3.785   1.304  1.0072  1.0773  0.5369
 1543TIP3   OH226043   3.281   0.254   1.570 -0.0846  0.0551  0.4478
 1543TIP3    H126044   3.329   0.192   1.624 -0.2994 -0.3859  0.1404
 1543TIP3    H226045   3.349   0.302   1.522  0.1088  0.5426  1.2080
 1544TIP3   OH226046   0.983   3.821  14.643 -0.3978 -0.4299  0.2572
 1544TIP3    H126047   1.019   3.905  14.671  2.2296 -1.1549 -0.6137
 1544TIP3    H226048   1.043   3.755  14.679 -1.2888 -1.8126 -0.6629
 1545TIP3   OH226049   1.176   1.914   4.388 -0.0394  0.0366 -0.3694
 1545TIP3    H126050   1.095   1.927   4.338 -1.3302 -0.6374  1.4218
 1545TIP3    H226051   1.245   1.947   4.331 -1.5564  0.5456 -2.0150
 1546TIP3   OH226052   6.128   3.716  13.422  0.0783 -0.9948  0.8968
 1546TIP3    H126053   6.033   3.733  13.421 -0.0253 -1.5514  0.2091
 1546TIP3    H226054   6.168   3.803  13.416 -0.4015 -0.7819  0.7017
 1547TIP3   OH226055   0.292   4.940  14.010  0.0329  0.3438  0.4290
 1547TIP3    H126056   0.211   4.914  14.052 -0.0954  0.9242  0.5458
 1547TIP3    H226057   0.293   5.035  14.015 -0.6522  0.5498 -2.0567
 1548TIP3   OH226058   6.137   5.294  13.640  0.2109  0.5847  0.1684
 1548TIP3    H126059   6.156   5.320  13.550  0.8875 -0.3639  0.0309
 1548TIP3    H226060   6.041   5.290  13.644  0.0662  2.8641  0.1486
 1549TIP3   OH226061   4.605   2.324   5.108  0.3434  0.4510 -0.5280
 1549TIP3    H126062   4.517   2.346   5.077  0.5641  0.2483 -1.3048
 1549TIP3    H226063   4.648   2.282   5.034 -0.1199 -2.9048  0.9350
 1550TIP3   OH226064   1.085   0.359   5.005 -0.7046 -0.4394  0.4793
 1550TIP3    H126065   1.071   0.385   4.914  1.1665 -1.9392 -0.2872
 1550TIP3    H226066   1.025   0.286   5.019  0.5540 -1.6345 -0.2606
 1551TIP3   OH226067   5.096   0.681  16.430 -1.0385  0.1008 -0.9555
 1551TIP3    H126068   5.185   0.648  16.443 -0.5544  1.2286 -1.2707
 1551TIP3    H226069   5.099   0.771  16.464 -2.0448  0.1686 -1.0237
 1552TIP3   OH226070   1.618   3.743   0.607 -0.4110  0.4101 -0.6001
 1552TIP3    H126071   1.553   3.779   0.547 -1.6785 -1.0212 -0.1526
 1552TIP3    H226072   1.585   3.763   0.694 -1.7359 -2.6154 -0.3059
 1553TIP3   OH226073   5.570   2.424  16.830  0.4257  0.0088  0.0337
 1553TIP3    H126074   5.662   2.409  16.810  0.4485  1.9956 -1.7053
 1553TIP3    H226075   5.555   2.515  16.804 -1.7005  0.1765  1.5886
 1554TIP3   OH226076   6.376   2.285  11.813  0.0885  0.4904 -0.3190
 1554TIP3    H126077   6.363   2.329  11.897 -0.3169 -1.1457  0.5042
 1554TIP3    H226078   6.311   2.215  11.812  3.7381 -3.2613  0.6307
 1555TIP3   OH226079   2.723   6.322   2.059 -0.3242 -0.5309 -0.1894
 1555TIP3    H126080   2.682   6.238   2.039 -1.9058  0.1977 -0.1228
 1555TIP3    H226081   2.736   6.363   1.974 -0.1333 -0.5653 -0.1783
 1556TIP3   OH226082   4.924   1.774   2.632  0.3849 -0.2422  0.8216
 1556TIP3    H126083   4.982   1.775   2.708  1.3155 -4.0818  0.3531
 1556TIP3    H226084   4.849   1.722   2.660 -1.0561  1.3638  0.1478
 1557TIP3   OH226085   2.459   1.823  13.447 -0.0092 -0.0483 -0.2016
 1557TIP3    H126086   2.379   1.786  13.484 -1.3965  2.1398 -0.8386
 1557TIP3    H226087   2.461   1.790  13.357  0.5597 -1.1512  0.1887
 1558TIP3   OH226088   4.653   1.054   5.564  0.4137 -0.0926 -0.3954
 1558TIP3    H126089   4.578   0.996   5.576  1.0281 -0.7576  0.3621
 1558TIP3    H226090   4.642   1.089   5.475 -1.2837  0.5756  0.0354
 1559TIP3   OH226091   2.197   0.424   3.729 -0.2264 -0.2360  0.1181
 1559TIP3    H126092   2.167   0.384   3.811  1.2928 -0.2644  0.6911
 1559TIP3    H226093   2.269   0.482   3.756  0.9799 -1.0121 -1.2969
 1560TIP3   OH226094   6.022   0.063  16.725 -0.8914  0.3183 -0.4806
 1560TIP3    H126095   5.976   0.043  16.643 -1.1703 -0.9001 -0.0539
 1560TIP3    H226096   6.091  -0.003  16.729 -0.3740  0.8761 -0.1154
 1561TIP3   OH226097   3.294   1.758  14.005 -0.1381 -0.2086 -0.1659
 1561TIP3    H126098   3.329   1.757  14.095 -0.4715  0.6241 -0.0221
 1561TIP3    H226099   3.286   1.851  13.984  0.0105 -0.4040 -1.0948
 1562TIP3   OH226100   6.193   1.460  15.858 -0.0454  0.2828 -0.1363
 1562TIP3    H126101   6.152   1.395  15.915  1.6632 -0.5567  0.1854
 1562TIP3    H226102   6.192   1.420  15.771 -1.2621  0.9222 -0.4429
 1563TIP3   OH226103   2.385   1.059  12.107 -0.3812  1.0200 -0.0003
 1563TIP3    H126104   2.319   1.029  12.169  1.3915  1.1478  2.0664
 1563TIP3    H226105   2.335   1.101  12.037 -2.5172 -0.0135  0.8127
 1564TIP3   OH226106   3.703   4.994  16.026 -0.0376  0.7510  0.7788
 1564TIP3    H126107   3.723   4.907  16.058 -1.7352  0.3594  0.8914
 1564TIP3    H226108   3.725   4.991  15.933 -1.4152 -0.2844  0.4537
 1565TIP3   OH226109   4.495   4.994  15.025 -0.3427 -0.3449  0.3682
 1565TIP3    H126110   4.513   5.088  15.030 -1.4520 -0.0589 -0.6777
 1565TIP3    H226111   4.555   4.961  14.959  1.1824 -0.7016  1.8641
 1566TIP3   OH226112   1.469   2.930   2.685  0.0453 -0.2867 -0.3259
 1566TIP3    H126113   1.400   2.974   2.735 -0.5829 -1.3990 -0.1692
 1566TIP3    H226114   1.536   2.909   2.750  0.6816  1.0573 -0.5304
 1567TIP3   OH226115   6.189   2.305  12.191 -0.0748  0.1180 -0.2827
 1567TIP3    H126116   6.098   2.277  12.195 -0.0407  0.1120  1.0227
 1567TIP3    H226117   6.192   2.368  12.119 -0.9641 -0.3458 -0.7472
 1568TIP3   OH226118   2.596   4.856   3.776  0.1018  0.0222  0.1587
 1568TIP3    H126119   2.598   4.762   3.754 -0.5849 -0.1608  0.8504
 1568TIP3    H226120   2.612   4.859   3.870 -0.5947  0.5449  0.2659
 1569TIP3   OH226121   1.005   2.025  13.059  0.3832 -0.2225  0.1560
 1569TIP3    H126122   1.023   1.983  12.975 -1.6250  0.2954 -0.5853
 1569TIP3    H226123   1.042   1.964  13.124  3.2047  0.0385 -1.0775
 1570TIP3   OH226124   5.644   2.328  12.069 -0.2363  0.2394 -0.4928
 1570TIP3    H126125   5.648   2.372  11.984  1.2870 -0.6209 -0.8875
 1570TIP3    H226126   5.638   2.235  12.048 -0.7978  0.0716  0.3598
 1571TIP3   OH226127   3.475   1.648  12.882 -0.1662  0.1304  0.3995
 1571TIP3    H126128   3.393   1.603  12.903  0.7626 -1.8842 -0.0859
 1571TIP3    H226129   3.457   1.740  12.902 -2.4979 -0.2632  0.4208
 1572TIP3   OH226130   6.261   6.039  15.971  0.1576  0.4386 -0.7213
 1572TIP3    H126131   6.237   5.990  16.050  0.8717 -0.1603 -0.8609
 1572TIP3    H226132   6.180   6.041  15.919  0.0440 -0.4071 -0.6040
 1573TIP3   OH226133   1.101   4.648  13.133  0.2810  0.3233  0.5868
 1573TIP3    H126134   1.173   4.707  13.109  0.5036 -0.4931 -0.9071
 1573TIP3    H226135   1.038   4.657  13.061  0.5447 -1.5838  0.0637
 1574TIP3   OH226136   4.717   5.515  15.305  0.0743 -0.8787 -0.4087
 1574TIP3    H126137   4.758   5.599  15.324 -1.3710 -0.3474  0.4838
 1574TIP3    H226138   4.651   5.534  15.238  0.8689 -1.6353 -1.4516
 1575TIP3   OH226139   5.057   1.962   5.634  0.1348  0.0108 -0.3975
 1575TIP3    H126140   5.014   1.877   5.634 -0.4203  0.2891 -0.2143
 1575TIP3    H226141   5.045   1.994   5.724  2.1512 -0.6238  0.1538
 1576TIP3   OH226142   6.662   1.933  12.709 -0.4148 -0.1493 -0.4652
 1576TIP3    H126143   6.688   1.996  12.641  1.1464 -0.1880  0.0607
 1576TIP3    H226144   6.688   1.848  12.675  0.4824 -0.1588  0.2049
 1577TIP3   OH226145   4.042   1.037  14.610  0.1721 -0.2689  0.0050
 1577TIP3    H126146   4.071   1.109  14.666  0.8794  0.9224 -1.8099
 1577TIP3    H226147   4.094   1.046  14.531 -0.3870 -2.2520 -0.6460
 1578TIP3   OH226148   0.670   3.861  13.674  0.0755 -0.2058 -0.2243
 1578TIP3    H126149   0.692   3.801  13.745 -0.7373 -0.0922  0.1319
 1578TIP3    H226150   0.635   3.805  13.605  1.2967 -0.3691 -0.7313
 1579TIP3   OH226151   5.081   0.499   6.210 -0.9799  0.3706  0.1112
 1579TIP3    H126152   5.087   0.584   6.254  1.3507  0.9653 -1.2023
 1579TIP3    H226153   5.020   0.449   6.264 -2.0303  2.6678  1.2278
 1580TIP3   OH226154   4.760   4.131  14.231  0.4193 -0.0349 -0.2258
 1580TIP3    H126155   4.769   4.071  14.157  0.3215  1.0098 -1.1097
 1580TIP3    H226156   4.842   4.180  14.234 -0.2012  1.0701 -0.6938
 1581TIP3   OH226157   3.231   1.556   0.664 -0.5234 -0.4408  0.3949
 1581TIP3    H126158   3.151   1.580   0.711  0.9932  0.7840  2.5268
 1581TIP3    H226159   3.245   1.628   0.602 -0.0748  0.3876  1.4169
 1582TIP3   OH226160   1.301   3.796   0.011 -0.5556  0.5410  0.3675
 1582TIP3    H126161   1.341   3.774   0.095 -0.7226  0.5313  0.4432
 1582TIP3    H226162   1.349   3.874  -0.018  1.2184 -0.8697 -0.7114
 1583TIP3   OH226163   5.721   1.240   3.821  0.3424  0.0776  0.1623
 1583TIP3    H126164   5.726   1.144   3.813  2.7430 -0.0213  1.6141
 1583TIP3    H226165   5.692   1.270   3.735 -1.0097 -1.9575 -0.1643
 1584TIP3   OH226166   0.292   5.668   1.075  0.5267 -0.0190 -0.0569
 1584TIP3    H126167   0.386   5.650   1.085  0.3112 -0.4105  1.4613
 1584TIP3    H226168   0.257   5.591   1.030  1.0598  0.5480 -1.5232
 1585TIP3   OH226169   6.362   4.099  15.391  0.3797 -0.0915  0.4817
 1585TIP3    H126170   6.289   4.150  15.425  0.1837  2.1408 -2.8354
 1585TIP3    H226171   6.440   4.142  15.426  0.1458  0.6541  0.1187
 1586TIP3   OH226172   3.491   3.029  15.641 -0.3693  0.1144  0.1410
 1586TIP3    H126173   3.583   3.013  15.620  0.0448  0.0654  1.8489
 1586TIP3    H226174   3.449   2.942  15.636  0.4297 -0.5147  2.6066
 1587TIP3   OH226175   5.635   2.483   5.008 -0.1003 -0.0289 -0.3498
 1587TIP3    H126176   5.661   2.423   5.078  0.9050  2.1556  1.2869
 1587TIP3    H226177   5.717   2.521   4.977 -0.6605  0.1066 -1.7237
 1588TIP3   OH226178   0.493   5.365   2.539 -0.4242  0.3363  0.1220
 1588TIP3    H126179   0.543   5.365   2.620  0.7488 -0.5571 -0.5662
 1588TIP3    H226180   0.439   5.285   2.544  1.6865 -1.2810 -1.1105
 1589TIP3   OH226181   6.359   6.487   4.185 -0.1790 -0.0603 -0.5359
 1589TIP3    H126182   6.425   6.427   4.151 -0.3823 -0.3668 -0.3859
 1589TIP3    H226183   6.410   6.557   4.226  0.0685 -1.2373  1.2771
 1590TIP3   OH226184   2.301   6.584   3.938 -0.0742  0.2410 -0.1755
 1590TIP3    H126185   2.320   6.649   3.870 -0.8689  0.4603 -0.2022
 1590TIP3    H226186   2.226   6.535   3.903 -0.0659 -0.0819  0.2559
 1591TIP3   OH226187   0.406   3.317   2.196 -0.4790 -0.2303 -0.7632
 1591TIP3    H126188   0.365   3.384   2.142  0.8300  0.3354 -1.1049
 1591TIP3    H226189   0.493   3.352   2.215 -1.4851  0.5659  3.4615
 1592TIP3   OH226190   0.056   3.791   3.146 -0.2775  0.9192 -0.0872
 1592TIP3    H126191   0.092   3.731   3.082 -0.5757  2.2601 -1.5598
 1592TIP3    H226192   0.086   3.877   3.118  1.0730  1.4260  2.5919
 1593TIP3   OH226193   0.453   5.910   5.077  0.3057 -0.1144 -0.4738
 1593TIP3    H126194   0.396   5.983   5.100 -1.6415 -1.6988 -0.0391
 1593TIP3    H226195   0.529   5.920   5.135 -2.0000 -0.9324  2.9517
 1594TIP3   OH226196   6.538   5.012  13.158  0.5010 -0.4608  0.1160
 1594TIP3    H126197   6.556   5.084  13.097  0.9173 -1.3077 -0.7803
 1594TIP3    H226198   6.534   4.934  13.103  0.9607 -1.2668  1.1932
 1595TIP3   OH226199   0.615   5.860  17.104 -0.3413  0.1943  0.3676
 1595TIP3    H126200   0.590   5.769  17.090  1.3219 -0.6670  2.5098
 1595TIP3    H226201   0.564   5.888  17.179 -1.3395  1.3067 -0.6733
 1596TIP3   OH226202   4.672   4.651   0.018 -0.3737 -0.1071 -0.3422
 1596TIP3    H126203   4.662   4.571   0.068 -0.0335  1.1259  1.8007
 1596TIP3    H226204   4.766   4.662   0.005 -0.4867 -1.0929 -2.5322
 1597TIP3   OH226205   5.518   3.941   0.976  0.0683 -0.3206 -0.0268
 1597TIP3    H126206   5.567   3.911   1.052 -1.6007 -1.0740  0.7947
 1597TIP3    H226207   5.499   4.033   0.994  1.9324  0.2611 -0.7961
 1598TIP3   OH226208   1.075   0.569  16.783 -0.3623  0.1304 -0.0265
 1598TIP3    H126209   1.002   0.628  16.766 -0.8277 -0.4878 -0.1946
 1598TIP3    H226210   1.096   0.531  16.698  0.2456  0.3969 -0.0062
 1599TIP3   OH226211   6.282   4.223  14.626  0.0450 -0.1713 -0.1705
 1599TIP3    H126212   6.376   4.226  14.608  0.1185  0.9677  0.3526
 1599TIP3    H226213   6.258   4.313  14.647 -1.0604 -0.5425  0.2465
 1600TIP3   OH226214   5.584   2.470  13.208  0.6007 -0.0594  0.5848
 1600TIP3    H126215   5.619   2.558  13.198 -1.8432  0.9879  0.7359
 1600TIP3    H226216   5.509   2.480  13.266 -0.9244 -1.9130 -0.9371
 1601TIP3   OH226217   1.922   1.078   1.040  0.1844 -0.0769  0.3559
 1601TIP3    H126218   1.843   1.131   1.028  1.2681  1.4684 -0.3745
 1601TIP3    H226219   1.907   0.999   0.989 -0.5484  0.6049 -0.5105
 1602TIP3   OH226220   4.856   1.420   0.897  0.2647  0.0063  0.0183
 1602TIP3    H126221   4.942   1.462   0.894 -0.7000  2.2797  1.4126
 1602TIP3    H226222   4.796   1.486   0.862 -0.7364 -2.3818 -3.1727
 1603TIP3   OH226223   3.975   0.383   6.465 -0.3933  0.1613 -0.5433
 1603TIP3    H126224   3.933   0.374   6.379 -1.0574 -0.2977 -0.1769
 1603TIP3    H226225   3.935   0.315   6.519 -0.2053  0.6425  0.2195
 1604TIP3   OH226226   3.588   5.417  10.506 -0.0460 -0.0021 -0.0829
 1604TIP3    H126227   3.587   5.476  10.431 -0.5087  0.1923  0.0721
 1604TIP3    H226228   3.502   5.429  10.547  0.7236  0.9693  1.3112
 1605TIP3   OH226229   6.341   0.521   2.782  0.3289  0.7427 -0.4669
 1605TIP3    H126230   6.379   0.468   2.712  1.1530  0.2289  0.3415
 1605TIP3    H226231   6.416   0.552   2.832 -0.2806 -0.3593  1.2322
 1606TIP3   OH226232   0.317   6.100   3.707 -0.6195 -0.1431 -0.2196
 1606TIP3    H126233   0.373   6.165   3.750 -1.7265  2.0324 -1.8295
 1606TIP3    H226234   0.368   6.070   3.632 -0.7253  0.1181 -0.3978
 1607TIP3   OH226235   0.816   5.914   5.690 -0.6468  0.3627  0.3001
 1607TIP3    H126236   0.749   5.934   5.624  0.4309  2.5867 -0.2177
 1607TIP3    H226237   0.766   5.900   5.770 -1.7903  1.9228 -0.0779
 1608TIP3   OH226238   2.431   5.363  11.566 -0.3454 -0.3341  0.0606
 1608TIP3    H126239   2.504   5.356  11.628  0.3897  0.8792 -0.6151
 1608TIP3    H226240   2.354   5.377  11.620 -0.2118 -2.3044  0.8303
 1609TIP3   OH226241   6.634   0.019   0.939 -0.0734  0.0031 -0.2181
 1609TIP3    H126242   6.594  -0.065   0.960 -0.9437  0.3964 -0.2588
 1609TIP3    H226243   6.702   0.031   1.005 -0.6183 -0.2657  0.3962
 1610TIP3   OH226244   2.815   1.664  15.874 -0.1912  0.2754  0.2349
 1610TIP3    H126245   2.759   1.741  15.879 -0.5493  0.0612 -0.3652
 1610TIP3    H226246   2.754   1.590  15.880 -0.0441  0.0362 -1.0561
 1611TIP3   OH226247   4.502   5.566  16.470 -0.2485 -0.6437 -0.1769
 1611TIP3    H126248   4.553   5.493  16.435  0.5928 -0.0644 -0.1922
 1611TIP3    H226249   4.496   5.629  16.397 -2.9608 -1.6503 -0.9429
 1612TIP3   OH226250   3.339   5.904   5.159 -0.0759  0.1546 -0.6391
 1612TIP3    H126251   3.401   5.925   5.090  0.2423  0.3514 -0.3002
 1612TIP3    H226252   3.260   5.876   5.113 -0.3443  1.5814 -1.1273
 1613TIP3   OH226253   1.825   3.393  12.153  0.2599 -0.3981  0.2319
 1613TIP3    H126254   1.915   3.402  12.122  0.0679 -1.2736 -0.6153
 1613TIP3    H226255   1.812   3.468  12.212  1.0873  0.5082 -0.7023
 1614TIP3   OH226256   3.073   3.651  15.377 -0.5397  0.0399 -0.2864
 1614TIP3    H126257   3.043   3.568  15.340 -2.1524  0.2071  0.5700
 1614TIP3    H226258   3.167   3.652  15.360 -0.7129 -1.3196 -1.5386
 1615TIP3   OH226259   1.837   2.728  16.628 -0.1072 -0.0870  0.1780
 1615TIP3    H126260   1.903   2.677  16.675  0.4720  2.8293  2.8894
 1615TIP3    H226261   1.888   2.786  16.572 -0.3442  1.3442  1.3797
 1616TIP3   OH226262   2.251   5.532  11.878 -0.5462 -0.3666  0.1310
 1616TIP3    H126263   2.286   5.445  11.860  0.1176  0.0240 -0.5486
 1616TIP3    H226264   2.318   5.576  11.929 -0.3453  0.1376 -0.5415
 1617TIP3   OH226265   0.152   3.281   5.728  0.0368 -0.5641  0.2642
 1617TIP3    H126266   0.237   3.324   5.723 -0.1317 -0.3737 -2.5958
 1617TIP3    H226267   0.159   3.207   5.666 -1.7814 -0.6774  0.1426
 1618TIP3   OH226268   5.131   3.517  17.090  0.0323  0.5758 -0.0799
 1618TIP3    H126269   5.048   3.470  17.091  0.2948  0.0882  1.3572
 1618TIP3    H226270   5.162   3.509  17.000  0.3207 -2.5452  0.1808
 1619TIP3   OH226271   1.391   5.691   3.643  0.5258  0.3581  0.4301
 1619TIP3    H126272   1.304   5.730   3.635  0.1674  0.0487  2.3396
 1619TIP3    H226273   1.449   5.766   3.659  0.3083  0.3832  1.1025
 1620TIP3   OH226274   2.585   4.363   6.165 -0.2501 -0.4162 -0.2695
 1620TIP3    H126275   2.510   4.334   6.219 -0.5010  1.1211  0.2425
 1620TIP3    H226276   2.640   4.285   6.158 -0.7254 -0.9381  1.3567
 1621TIP3   OH226277   5.234   2.707   2.013  0.4589  0.0393  0.2500
 1621TIP3    H126278   5.228   2.613   1.996  1.0993  0.3265 -1.8388
 1621TIP3    H226279   5.251   2.713   2.107 -1.4474 -1.8258  0.7882
 1622TIP3   OH226280   0.273   5.934   2.890  0.0248  0.1290 -0.7638
 1622TIP3    H126281   0.256   6.008   2.832  1.3840  0.7082 -0.4721
 1622TIP3    H226282   0.208   5.869   2.866 -0.6730  1.1013 -1.5991
 1623TIP3   OH226283   5.762   4.630  16.505  0.1607 -0.6630 -0.1027
 1623TIP3    H126284   5.785   4.554  16.451  3.3008 -0.6581  1.0247
 1623TIP3    H226285   5.696   4.676  16.454 -0.2619 -2.9744 -1.8270
 1624TIP3   OH226286   2.036   1.722   5.787 -0.5567 -0.0484  0.1091
 1624TIP3    H126287   1.975   1.792   5.766  0.2913  0.8894  0.6813
 1624TIP3    H226288   2.075   1.748   5.871  1.8532  0.2528 -1.0384
 1625TIP3   OH226289   0.342   3.062   2.850 -0.0208 -0.1591  0.1510
 1625TIP3    H126290   0.323   2.991   2.912  0.4487 -0.1732  0.2845
 1625TIP3    H226291   0.429   3.092   2.875 -0.3264  0.6564  0.2748
 1626TIP3   OH226292   0.181   1.654  16.372  0.7271  0.2240 -0.4404
 1626TIP3    H126293   0.166   1.590  16.442 -0.7105  0.5225 -0.4571
 1626TIP3    H226294   0.239   1.608  16.310  0.3112 -0.8004 -0.0951
 1627TIP3   OH226295   4.762   0.299   0.831 -0.3826  0.0542  0.3429
 1627TIP3    H126296   4.844   0.264   0.796  0.0728  1.0360  0.3899
 1627TIP3    H226297   4.777   0.305   0.925  0.2349  2.0506  0.1565
 1628TIP3   OH226298   0.195   5.007  17.167  0.2797 -0.2569  0.0090
 1628TIP3    H126299   0.246   5.026  17.088 -0.1487  1.7549  0.1705
 1628TIP3    H226300   0.213   5.080  17.226 -1.2314 -0.5142  0.8403
 1629TIP3   OH226301   3.478   0.075   6.079 -0.4900  0.6168  0.5141
 1629TIP3    H126302   3.423   0.031   6.144  0.2781 -0.5418  0.4036
 1629TIP3    H226303   3.546   0.118   6.130  0.0703 -0.2320  0.4960
 1630TIP3   OH226304   2.421   6.006   0.615 -0.9129  0.0464 -0.1547
 1630TIP3    H126305   2.435   6.053   0.697 -0.3890 -1.8090  0.8673
 1630TIP3    H226306   2.457   6.064   0.548 -0.1212  1.0166  1.0664
 1631TIP3   OH226307   1.171   4.249   1.104 -0.4797  0.0370  0.2170
 1631TIP3    H126308   1.258   4.235   1.066 -1.4437 -3.7346 -0.9390
 1631TIP3    H226309   1.131   4.315   1.048  1.1478  0.8959  0.0009
 1632TIP3   OH226310   4.957   2.116  13.658 -0.7155 -0.0366 -0.4625
 1632TIP3    H126311   5.007   2.063  13.596 -0.1814 -0.9356  0.6780
 1632TIP3    H226312   4.878   2.065  13.675 -0.1847 -0.5261  0.6694
 1633TIP3   OH226313   3.929   6.586   3.191  0.1292  0.6909 -0.9235
 1633TIP3    H126314   3.845   6.556   3.156  1.1254  0.3675 -3.1547
 1633TIP3    H226315   3.905   6.658   3.250 -1.7872 -0.2426 -0.4569
 1634TIP3   OH226316   6.687   6.730  15.199 -0.4454 -0.3987 -0.3337
 1634TIP3    H126317   6.678   6.714  15.106 -0.9705 -0.9634 -0.1963
 1634TIP3    H226318   6.601   6.764  15.226 -0.4103 -0.5571 -0.0049
 1635TIP3   OH226319   3.814   0.712   2.481 -0.2887  0.2471 -0.2978
 1635TIP3    H126320   3.762   0.637   2.509 -0.1897  0.0754 -0.5699
 1635TIP3    H226321   3.855   0.683   2.399  1.0563 -0.0119  0.4229
 1636TIP3   OH226322   3.618   3.516  13.317  0.0172  0.0775  0.0889
 1636TIP3    H126323   3.624   3.459  13.240 -0.1323  0.4729 -0.2248
 1636TIP3    H226324   3.525   3.514  13.340 -0.5279  2.2030 -1.5210
 1637TIP3   OH226325   0.546   6.080  13.998 -0.1704  0.5921 -0.2569
 1637TIP3    H126326   0.608   6.007  13.988 -1.1503 -0.2377 -0.4792
 1637TIP3    H226327   0.534   6.113  13.909 -1.4240 -0.4441 -0.4993
 1638TIP3   OH226328   5.750   6.200   2.087 -0.6757  0.6943 -0.2927
 1638TIP3    H126329   5.751   6.294   2.071 -0.1654  0.5985 -0.8286
 1638TIP3    H226330   5.808   6.188   2.162  0.1301  0.6841 -0.9118
 1639TIP3   OH226331   0.193   3.335   2.469 -0.3790  0.2609  0.4770
 1639TIP3    H126332   0.125   3.391   2.433 -0.2032  0.2809  0.1737
 1639TIP3    H226333   0.190   3.351   2.563 -2.2611 -1.3466  0.7459
 1640TIP3   OH226334   2.464   0.447  16.603  0.1448 -0.3182  0.4188
 1640TIP3    H126335   2.488   0.492  16.684 -0.3368 -1.5273  1.2549
 1640TIP3    H226336   2.546   0.410  16.571  0.2624 -0.1823  0.5592
 1641TIP3   OH226337   5.652   3.025  10.474 -0.5710 -0.4299 -0.0336
 1641TIP3    H126338   5.574   2.982  10.438 -0.8770 -0.3814  0.5533
 1641TIP3    H226339   5.718   2.956  10.477 -0.3466 -0.2851 -1.2583
 1642TIP3   OH226340   5.522   0.104  16.369  0.0949 -0.7007  0.6505
 1642TIP3    H126341   5.574   0.065  16.299  0.2141 -0.1476  0.4275
 1642TIP3    H226342   5.572   0.180  16.398  0.1341 -1.0285  1.4655
 1643TIP3   OH226343   1.346   2.899   0.836 -0.4385 -0.2938 -0.3378
 1643TIP3    H126344   1.285   2.835   0.800  0.5957 -0.8889 -1.0748
 1643TIP3    H226345   1.428   2.851   0.847  0.4150  0.9353 -1.0886
 1644TIP3   OH226346   6.058   2.513   2.357 -0.0965  0.7728 -0.2187
 1644TIP3    H126347   6.126   2.448   2.342 -0.4653  0.3853 -0.2384
 1644TIP3    H226348   5.981   2.478   2.312 -1.0316 -0.0552  1.8923
 1645TIP3   OH226349   4.906   3.959   4.017 -0.6412  0.0772 -0.2486
 1645TIP3    H126350   4.831   3.924   4.065 -0.5465 -0.7220 -0.6707
 1645TIP3    H226351   4.899   3.920   3.930  0.3545 -0.1376 -0.2429
 1646TIP3   OH226352   3.335   1.393   2.103  0.0918 -0.1853 -0.2103
 1646TIP3    H126353   3.244   1.420   2.116  0.2571  0.3742 -0.1975
 1646TIP3    H226354   3.329   1.311   2.054 -0.4917 -1.1659  1.4113
 1647TIP3   OH226355   2.662   4.753   4.545 -0.0020  0.3214 -0.4065
 1647TIP3    H126356   2.626   4.834   4.579  0.4647  0.5807 -0.5268
 1647TIP3    H226357   2.729   4.780   4.482 -0.2974 -0.1545 -0.9352
 1648TIP3   OH226358   1.219   1.020  15.765  0.7639 -0.3234  0.2601
 1648TIP3    H126359   1.185   1.049  15.849  2.8135  1.9520  0.4175
 1648TIP3    H226360   1.302   0.977  15.786  1.2634  0.2087 -0.5671
 1649TIP3   OH226361   0.151   1.161  10.562 -0.6320 -0.4663 -0.2552
 1649TIP3    H126362   0.058   1.185  10.567 -0.8088 -0.3951 -2.5801
 1649TIP3    H226363   0.179   1.194  10.477  1.5695 -0.4384  0.4306
 1650TIP3   OH226364   5.224   0.555   5.039  0.1855  0.5386 -0.6660
 1650TIP3    H126365   5.250   0.482   4.983  0.7323  1.2649 -1.3797
 1650TIP3    H226366   5.161   0.517   5.101 -0.2155 -0.3412 -1.5879
 1651TIP3   OH226367   4.145   3.178  11.388 -0.2606  0.1932 -0.0729
 1651TIP3    H126368   4.117   3.263  11.422  1.3379  0.9578 -0.5511
 1651TIP3    H226369   4.198   3.141  11.458  0.8817  0.6121 -0.6858
 1652TIP3   OH226370   2.707   6.525  13.973  0.5572 -0.2443  0.2183
 1652TIP3    H126371   2.684   6.460  14.038 -2.9652 -0.5373 -1.1274
 1652TIP3    H226372   2.710   6.476  13.890  0.1874  0.8832 -0.4895
 1653TIP3   OH226373   3.226   5.066   2.412  0.5389 -0.3188 -0.3998
 1653TIP3    H126374   3.155   5.003   2.399 -1.2120  1.4431  0.1859
 1653TIP3    H226375   3.217   5.128   2.339  1.7827 -0.3044 -0.5702
 1654TIP3   OH226376   1.989   3.979   1.165 -0.1466 -0.2941  0.0873
 1654TIP3    H126377   1.986   3.939   1.253 -0.1146  3.0419  1.7467
 1654TIP3    H226378   1.898   3.979   1.136 -0.7325  1.6152  1.7031
 1655TIP3   OH226379   6.338   1.849  13.817  0.0228  0.1439  0.0583
 1655TIP3    H126380   6.384   1.927  13.849 -0.5459  0.9653 -1.0675
 1655TIP3    H226381   6.408   1.789  13.792  0.4888 -0.3398  2.2955
 1656TIP3   OH226382   5.989   2.331   0.560  0.0525 -0.6006  0.7577
 1656TIP3    H126383   5.984   2.239   0.584 -0.2396 -0.7463  0.1569
 1656TIP3    H226384   6.013   2.376   0.641 -0.3794 -1.1360  1.1877
 1657TIP3   OH226385   3.126   3.447  13.649 -0.6550 -0.2881 -0.3766
 1657TIP3    H126386   3.059   3.463  13.583  0.5674  0.8710 -1.4055
 1657TIP3    H226387   3.147   3.354  13.639 -0.7605 -0.2182 -1.3914
 1658TIP3   OH226388   2.777   4.951   0.630  0.0961  0.3719 -0.3752
 1658TIP3    H126389   2.692   4.925   0.667  0.3929 -1.2561 -0.7518
 1658TIP3    H226390   2.832   4.969   0.706 -0.3555  0.6686 -0.1146
 1659TIP3   OH226391   6.093   3.517   2.489 -0.2321  0.4111  0.1013
 1659TIP3    H126392   6.159   3.580   2.516 -0.7653  1.3889 -0.8345
 1659TIP3    H226393   6.129   3.432   2.517  0.1744  1.1462  1.9837
 1660TIP3   OH226394   4.142   6.321   5.473 -0.0951 -0.5570 -0.0116
 1660TIP3    H126395   4.162   6.394   5.413 -1.6850 -2.0478 -2.5372
 1660TIP3    H226396   4.181   6.348   5.556  2.6339  1.5040 -1.7508
 1661TIP3   OH226397   5.804   4.844  12.932 -0.4415 -0.0207  0.0751
 1661TIP3    H126398   5.832   4.902  13.003  2.7266 -1.5970  0.3188
 1661TIP3    H226399   5.783   4.761  12.975 -1.8652 -0.0096 -0.5533
 1662TIP3   OH226400   2.193   6.648   2.183  0.4526 -0.0156 -0.5341
 1662TIP3    H126401   2.279   6.662   2.223  0.9596 -0.3555 -1.4776
 1662TIP3    H226402   2.211   6.630   2.091 -0.5439 -1.1413 -0.5481
 1663TIP3   OH226403   3.051   3.417  17.195 -0.2933  0.2244 -0.6954
 1663TIP3    H126404   3.049   3.498  17.246 -2.8999  0.5593 -1.1812
 1663TIP3    H226405   3.061   3.348  17.261  0.3806  0.8409 -0.1312
 1664TIP3   OH226406   3.318   3.462   4.466 -0.3095  0.4854 -0.4080
 1664TIP3    H126407   3.239   3.419   4.499  0.3337 -0.2547  0.2026
 1664TIP3    H226408   3.376   3.389   4.443 -0.1674  1.0042 -1.7837
 1665TIP3   OH226409   3.577   4.265  16.173  1.0437  0.7620 -0.0361
 1665TIP3    H126410   3.484   4.240  16.171  0.9108  1.2809 -0.7138
 1665TIP3    H226411   3.586   4.317  16.253  0.8680  0.2832  0.3021
 1666TIP3   OH226412   2.474   3.875  12.663  0.8622 -0.2963  0.7386
 1666TIP3    H126413   2.497   3.791  12.704  1.8464 -1.0458 -1.2207
 1666TIP3    H226414   2.532   3.938  12.706  1.3802 -0.9368  1.0044
 1667TIP3   OH226415   5.364   0.354  15.752  0.2307  0.3373 -0.3106
 1667TIP3    H126416   5.335   0.278  15.803  2.4376  0.0043  0.5744
 1667TIP3    H226417   5.284   0.402  15.732 -1.2212 -2.0806 -0.6842
 1668TIP3   OH226418   1.216   5.618   1.664  0.2885 -0.4663  0.2683
 1668TIP3    H126419   1.186   5.640   1.752 -0.1055 -1.8234  0.5030
 1668TIP3    H226420   1.149   5.654   1.606 -0.7611 -1.6489  0.6797
 1669TIP3   OH226421   5.257   2.781   4.151  0.0225  0.2478 -0.2182
 1669TIP3    H126422   5.285   2.867   4.121 -0.0061  0.5183  0.5107
 1669TIP3    H226423   5.311   2.764   4.228 -0.7907  0.1369  0.3392
 1670TIP3   OH226424   2.425   6.450   6.058  0.2237  0.5524 -0.3207
 1670TIP3    H126425   2.386   6.498   5.985  0.1072  3.0293  1.2756
 1670TIP3    H226426   2.438   6.515   6.126  1.0561 -1.5105  1.6281
 1671TIP3   OH226427   4.775   4.230   1.372  0.6139 -0.1970  0.1752
 1671TIP3    H126428   4.712   4.290   1.333  0.4722  0.7887  1.8313
 1671TIP3    H226429   4.730   4.146   1.375 -1.5551  0.9118  3.2251
 1672TIP3   OH226430   1.232   3.699   1.941 -0.4701  0.0613  0.2294
 1672TIP3    H126431   1.301   3.636   1.918 -1.1343 -0.7630  0.4752
 1672TIP3    H226432   1.152   3.660   1.907 -0.9403  0.6017  0.7047
 1673TIP3   OH226433   0.487   6.068  13.728  0.3571  0.0718  0.0653
 1673TIP3    H126434   0.435   6.006  13.677  0.1132  0.5899 -0.3291
 1673TIP3    H226435   0.577   6.050  13.703  0.1903  0.8727 -1.1959
 1674TIP3   OH226436   2.962   0.289  16.925 -0.4384  0.4693 -0.4129
 1674TIP3    H126437   2.923   0.201  16.930 -0.1727  0.2775 -1.5282
 1674TIP3    H226438   2.965   0.309  16.832  1.1313  0.9255 -0.3009
 1675TIP3   OH226439   2.892   1.672   5.679  0.4668 -0.1419 -0.8911
 1675TIP3    H126440   2.936   1.754   5.702  2.2867 -0.9221 -1.3763
 1675TIP3    H226441   2.817   1.667   5.738  1.2306  1.1012  0.2387
 1676TIP3   OH226442   3.280   5.719  12.012 -0.4049  0.1188  0.4080
 1676TIP3    H126443   3.228   5.649  11.973  0.6948 -1.2766  1.3190
 1676TIP3    H226444   3.228   5.748  12.088  0.1725 -1.4191  1.4449
 1677TIP3   OH226445   5.369   4.534  10.948 -1.0060 -0.0894 -0.4786
 1677TIP3    H126446   5.290   4.582  10.972 -0.4295  0.5514  0.2185
 1677TIP3    H226447   5.385   4.475  11.022  0.5256  1.5649  0.6063
 1678TIP3   OH226448   0.235   1.685   1.710  0.2544 -0.0398  0.1520
 1678TIP3    H126449   0.248   1.689   1.805  1.1483 -1.2850  0.0989
 1678TIP3    H226450   0.160   1.627   1.698  0.7945 -0.7427  0.0766
 1679TIP3   OH226451   1.260   2.392  14.550  0.2052  0.7663  0.5228
 1679TIP3    H126452   1.223   2.456  14.611 -2.7114 -0.2896  0.0486
 1679TIP3    H226453   1.351   2.418  14.539 -0.3925  3.7300  1.7456
 1680TIP3   OH226454   1.598   4.105  12.699  0.2009 -0.2198 -0.3028
 1680TIP3    H126455   1.508   4.087  12.726 -0.0831 -0.0562 -1.1291
 1680TIP3    H226456   1.624   4.180  12.752  0.4534 -1.3001  1.1809
 1681TIP3   OH226457   2.682   5.454  16.542 -0.6182  0.2343  0.2565
 1681TIP3    H126458   2.674   5.492  16.629 -1.7740 -0.0481  0.2992
 1681TIP3    H226459   2.664   5.527  16.482  0.0360  0.3960  0.2538
 1682TIP3   OH226460   3.488   1.153   2.796 -0.3766 -0.3958 -0.4365
 1682TIP3    H126461   3.458   1.127   2.709 -1.0932 -0.3567 -0.2044
 1682TIP3    H226462   3.472   1.247   2.800 -0.0623 -0.3428 -0.3704
 1683TIP3   OH226463   6.752   0.673  17.301 -0.2248 -0.2727  0.4340
 1683TIP3    H126464   6.674   0.709  17.259  0.7527 -0.6257 -1.8544
 1683TIP3    H226465   6.736   0.682  17.395 -2.6517  0.3729  0.0154
 1684TIP3   OH226466   5.936   0.039   3.179  0.5529  0.0205 -0.5488
 1684TIP3    H126467   5.866   0.041   3.113  0.2737 -0.9033 -0.2859
 1684TIP3    H226468   6.016   0.032   3.127  0.3262 -0.8436 -0.8038
 1685TIP3   OH226469   3.935   1.284  16.538 -0.3744 -0.3025  0.3391
 1685TIP3    H126470   3.903   1.245  16.456  0.7851  0.6331 -0.6064
 1685TIP3    H226471   3.927   1.379  16.523  0.1108 -0.1201  1.1969
 1686TIP3   OH226472   4.362   1.796   4.992 -0.5444 -0.4882 -0.4931
 1686TIP3    H126473   4.413   1.728   4.948  0.3563 -0.1327 -0.0202
 1686TIP3    H226474   4.273   1.761   4.994 -0.6088 -0.5642 -2.4680
 1687TIP3   OH226475   2.634   6.010  13.690 -0.3601  0.4420 -0.2006
 1687TIP3    H126476   2.679   6.039  13.611  1.6519 -1.3285  0.1965
 1687TIP3    H226477   2.655   6.078  13.755  1.2074  0.0188 -0.2219
 1688TIP3   OH226478   4.029   1.452  13.004 -0.0956  0.2867 -0.0329
 1688TIP3    H126479   4.124   1.468  13.005 -0.4676  3.1000  1.5603
 1688TIP3    H226480   4.002   1.466  13.095 -2.0661 -0.3516 -0.4757
 1689TIP3   OH226481   6.267   1.236   5.097  0.1211  0.1605  0.1105
 1689TIP3    H126482   6.235   1.263   5.183 -0.0686  0.2770  0.0053
 1689TIP3    H226483   6.361   1.227   5.108  0.0674 -0.0794  0.3983
 1690TIP3   OH226484   3.442   0.510   0.192 -0.3935 -0.0820  0.1204
 1690TIP3    H126485   3.388   0.564   0.249 -0.4993 -0.2499  0.1821
 1690TIP3    H226486   3.395   0.509   0.109  0.9689  2.1527 -0.7527
 1691TIP3   OH226487   1.388   2.134  14.419 -0.3103  0.5231  0.4158
 1691TIP3    H126488   1.347   2.208  14.463 -1.9684  0.2522 -0.5904
 1691TIP3    H226489   1.341   2.126  14.336  0.1725 -1.3335  0.2689
 1692TIP3   OH226490   0.082   2.562  14.683 -0.2049 -0.1746 -0.6596
 1692TIP3    H126491   0.054   2.652  14.667  0.0621  0.8228  3.3911
 1692TIP3    H226492   0.169   2.556  14.644 -0.0679  1.4596 -0.6719
 1693TIP3   OH226493   3.688   2.440  15.706  0.3074  0.1862  0.1516
 1693TIP3    H126494   3.694   2.358  15.755 -1.5375  0.8712  1.6106
 1693TIP3    H226495   3.705   2.415  15.615 -1.6160 -2.0758  0.3381
 1694TIP3   OH226496   3.566   1.595  14.374 -0.5138  0.0809 -0.0734
 1694TIP3    H126497   3.533   1.575  14.462 -0.8866 -0.4957 -0.3384
 1694TIP3    H226498   3.575   1.510  14.332 -0.9941  0.3985 -0.8324
 1695TIP3   OH226499   0.849   1.973  12.072  0.4166  0.5492 -0.0349
 1695TIP3    H126500   0.846   2.037  12.001  1.4237  0.0487 -0.5572
 1695TIP3    H226501   0.757   1.962  12.099 -0.0966  0.1787 -1.7895
 1696TIP3   OH226502   6.506   4.231   3.544  0.1134  0.0901  0.8692
 1696TIP3    H126503   6.479   4.139   3.545  0.9374 -0.1596  0.9764
 1696TIP3    H226504   6.540   4.247   3.632 -0.2967  0.5820  0.9386
 1697TIP3   OH226505   0.208   3.700  17.121 -0.1227  0.2258 -0.5051
 1697TIP3    H126506   0.198   3.649  17.041 -0.6095  1.3538 -1.1877
 1697TIP3    H226507   0.256   3.642  17.180 -2.8456 -1.9929 -0.2985
 1698TIP3   OH226508   0.228   2.571   2.777 -0.6929 -0.0720 -0.0377
 1698TIP3    H126509   0.265   2.641   2.723  0.9184 -0.2300  0.7998
 1698TIP3    H226510   0.140   2.558   2.742 -0.1775  0.7295 -1.7485
 1699TIP3   OH226511   5.225   4.308   1.534  0.2748 -0.0965 -0.3605
 1699TIP3    H126512   5.235   4.331   1.626 -0.0198 -1.7188  0.0912
 1699TIP3    H226513   5.278   4.374   1.488  0.9184  0.3719  0.9848
 1700TIP3   OH226514   2.545   3.414  12.378 -0.2226  0.1822 -0.0090
 1700TIP3    H126515   2.477   3.445  12.438  0.8670 -0.9675  1.9323
 1700TIP3    H226516   2.497   3.371  12.308 -1.5388  0.1776  0.8639
 1701TIP3   OH226517   2.381   5.031  14.254  0.5620  0.5704 -0.0612
 1701TIP3    H126518   2.420   4.964  14.197  0.7952 -1.1430  2.0085
 1701TIP3    H226519   2.388   5.112  14.203  1.7437 -0.6592 -2.0037
 1702TIP3   OH226520   5.946   2.319  13.273 -0.2389  0.1059 -0.6325
 1702TIP3    H126521   5.858   2.296  13.302  0.6263 -2.1456  0.3943
 1702TIP3    H226522   5.938   2.410  13.244 -2.3477  0.7834  1.7181
 1703TIP3   OH226523   6.257   1.102  14.401  0.0171  0.6166  0.0611
 1703TIP3    H126524   6.265   1.109  14.306  0.7117  1.1329  0.1600
 1703TIP3    H226525   6.217   1.016  14.414  1.6853 -0.3142 -0.6219
 1704TIP3   OH226526   6.521   2.400   3.699 -0.3478  0.2567 -0.5106
 1704TIP3    H126527   6.469   2.363   3.628  0.4987 -1.8063 -0.1375
 1704TIP3    H226528   6.606   2.358   3.691 -0.2171 -0.0547  1.6821
 1705TIP3   OH226529   6.368   4.306  17.175 -0.3542 -0.1741  0.4500
 1705TIP3    H126530   6.371   4.275  17.085 -0.7363  1.3442 -0.1085
 1705TIP3    H226531   6.415   4.239  17.225 -0.1398 -1.0369 -0.8652
 1706TIP3   OH226532   2.440   4.938  13.171 -0.2400  0.4091  0.0157
 1706TIP3    H126533   2.380   5.006  13.200  0.1677  0.6986  0.1895
 1706TIP3    H226534   2.397   4.856  13.195 -1.0837  0.5724 -0.8766
 1707TIP3   OH226535   4.323   0.831   6.033  0.3496 -0.1751  0.5549
 1707TIP3    H126536   4.341   0.888   6.108 -0.4552  2.1493 -0.9024
 1707TIP3    H226537   4.392   0.850   5.971 -0.0942 -0.5806 -0.0766
 1708TIP3   OH226538   2.153   1.335  13.893  0.1700 -0.2659 -0.4454
 1708TIP3    H126539   2.144   1.317  13.800  0.7458 -1.9568 -0.2112
 1708TIP3    H226540   2.104   1.416  13.907  0.4867  0.2807 -2.2912
 1709TIP3   OH226541   4.499   0.310  14.098 -0.9908 -0.5171 -0.1462
 1709TIP3    H126542   4.582   0.343  14.134 -0.3534 -1.2568 -0.8861
 1709TIP3    H226543   4.507   0.326  14.004 -2.4819  1.0901 -0.0517
 1710TIP3   OH226544   1.529   2.444  14.537  0.0477 -0.0556  0.7831
 1710TIP3    H126545   1.554   2.362  14.495 -2.1139 -0.6974  0.6573
 1710TIP3    H226546   1.575   2.511  14.486 -0.7252 -0.9743 -1.2318
 1711TIP3   OH226547   2.411   0.538   3.897  0.1081  0.1674 -0.6341
 1711TIP3    H126548   2.424   0.620   3.944  2.9597 -0.3599 -0.2708
 1711TIP3    H226549   2.374   0.477   3.961 -0.0896  0.6216 -0.3197
 1712TIP3   OH226550   2.026   5.662  14.701 -0.5130  0.2687 -0.1736
 1712TIP3    H126551   2.080   5.664  14.780  1.3042 -1.0623 -1.2993
 1712TIP3    H226552   2.066   5.727  14.644  1.0902 -1.8761 -1.6602
 1713TIP3   OH226553   4.807   3.850  12.087 -0.5143 -0.3812 -0.0119
 1713TIP3    H126554   4.784   3.761  12.115  1.0112 -1.6257 -2.4119
 1713TIP3    H226555   4.851   3.887  12.163 -2.1661 -1.2145  1.4404
 1714TIP3   OH226556   4.713   0.309   6.565  0.8386  0.1527  0.3721
 1714TIP3    H126557   4.772   0.236   6.549  2.1588  1.3798 -0.7006
 1714TIP3    H226558   4.697   0.307   6.659 -0.0447 -2.1125  0.2416
 1715TIP3   OH226559   5.687   4.778   5.417  0.6189  0.0947 -0.3802
 1715TIP3    H126560   5.678   4.764   5.323 -1.6726  0.4203 -0.2643
 1715TIP3    H226561   5.622   4.719   5.456  2.4324 -1.0283  1.1119
 1716TIP3   OH226562   5.455   1.068  15.288 -0.3399  0.6182  0.2684
 1716TIP3    H126563   5.407   1.145  15.256 -1.2964  0.0620  0.3440
 1716TIP3    H226564   5.538   1.104  15.321 -0.0818  1.4283 -1.1510
 1717TIP3   OH226565   1.307   5.192   3.816 -0.6621 -0.0713 -0.0239
 1717TIP3    H126566   1.326   5.146   3.898  0.6996 -1.6081 -1.1278
 1717TIP3    H226567   1.322   5.284   3.836 -0.2327 -0.4276  1.4246
 1718TIP3   OH226568   0.529   1.626  17.235  0.5819 -0.4889 -0.9700
 1718TIP3    H126569   0.532   1.722  17.246  0.8601 -0.6386  0.6195
 1718TIP3    H226570   0.441   1.608  17.202  0.2621  0.2719 -0.5741
 1719TIP3   OH226571   4.961   3.070  17.240  0.0965  0.0754 -0.4833
 1719TIP3    H126572   4.944   3.143  17.300 -0.3461  0.3481 -0.9413
 1719TIP3    H226573   4.945   3.106  17.153  0.2063 -0.4747 -0.7322
 1720TIP3   OH226574   6.602   2.159  17.130 -0.0702 -0.4596 -0.1254
 1720TIP3    H126575   6.677   2.156  17.071  0.8465 -0.6502  1.0049
 1720TIP3    H226576   6.559   2.243  17.110  0.6471 -0.1838 -0.5401
 1721TIP3   OH226577   0.489   4.719   0.052  0.4467  0.1825  0.3219
 1721TIP3    H126578   0.440   4.690  -0.024  0.9704 -0.0023  0.0525
 1721TIP3    H226579   0.552   4.649   0.069 -1.0523 -0.8205  2.2449
 1722TIP3   OH226580   6.185   4.869   1.651 -0.4363 -0.3198  0.0649
 1722TIP3    H126581   6.238   4.874   1.730  0.5957 -0.7463 -0.5726
 1722TIP3    H226582   6.145   4.782   1.654 -0.2328 -0.4167  0.0318
 1723TIP3   OH226583   1.001   2.601  12.449 -0.0103  0.0248  0.5124
 1723TIP3    H126584   1.047   2.518  12.461 -0.6321 -0.2386  1.1533
 1723TIP3    H226585   0.913   2.576  12.420  1.0874  0.5806 -4.0802
 1724TIP3   OH226586   1.904   2.704  12.614  0.0885 -0.4058  0.6135
 1724TIP3    H126587   1.952   2.767  12.667  0.1696  0.3378 -0.3009
 1724TIP3    H226588   1.943   2.712  12.527  0.0822 -1.7198  0.4712
 1725TIP3   OH226589   2.049   6.411  11.921 -0.3377  0.0184  0.0437
 1725TIP3    H126590   2.108   6.472  11.964 -0.9334  1.0692 -0.6008
 1725TIP3    H226591   1.962   6.436  11.951 -0.4961 -1.3879  0.8317
 1726TIP3   OH226592   3.492   0.649  16.373  0.0559 -0.1997  0.0838
 1726TIP3    H126593   3.423   0.635  16.437 -1.2083 -1.2006 -1.4461
 1726TIP3    H226594   3.548   0.716  16.414 -2.1541  1.1673  1.0990
 1727TIP3   OH226595   0.958   4.947   4.910 -0.5201 -0.3904  0.0587
 1727TIP3    H126596   1.046   4.929   4.877 -0.7037  1.0832 -1.3748
 1727TIP3    H226597   0.909   4.867   4.891 -0.1527 -0.2389 -1.6737
 1728TIP3   OH226598   0.144   4.691  14.564  0.0798  0.4540 -0.2016
 1728TIP3    H126599   0.102   4.727  14.642 -0.0917  1.1917 -0.6199
 1728TIP3    H226600   0.174   4.769  14.516 -0.9586  0.0785 -1.5024
 1729TIP3   OH226601   0.939   2.005   0.126  0.8249 -0.0687 -0.3910
 1729TIP3    H126602   0.862   2.009   0.183  0.1899  1.4934 -1.2817
 1729TIP3    H226603   0.972   2.095   0.125  3.1985 -0.8438  0.6233
 1730TIP3   OH226604   5.014   4.504  11.103 -0.2651  0.0922 -0.3075
 1730TIP3    H126605   5.021   4.409  11.110  1.7655  0.2771  0.8614
 1730TIP3    H226606   5.019   4.522  11.009  0.3475 -0.8991 -0.4779
 1731TIP3   OH226607   5.052   4.688  11.286 -0.1524 -0.0885  0.6381
 1731TIP3    H126608   5.011   4.653  11.365 -2.8589  0.0845 -0.5610
 1731TIP3    H226609   5.057   4.613  11.227  1.5652 -0.1431  0.7986
 1732TIP3   OH226610   0.140   4.404   5.871  0.4877  0.3871  0.2622
 1732TIP3    H126611   0.097   4.412   5.956 -0.5924 -1.1471 -0.0924
 1732TIP3    H226612   0.070   4.375   5.811  1.6913 -0.7698 -0.6406
 1733TIP3   OH226613   1.587   1.625  13.358  0.0816  0.0530 -0.3497
 1733TIP3    H126614   1.590   1.638  13.263  1.3719  2.8368 -0.0194
 1733TIP3    H226615   1.495   1.637  13.381 -0.4343 -1.7286 -1.3143
 1734TIP3   OH226616   6.050   2.695  11.972 -0.5374 -0.3956 -0.0878
 1734TIP3    H126617   6.028   2.782  12.006 -3.1475 -0.4031 -1.5211
 1734TIP3    H226618   6.037   2.703  11.877  0.1921 -2.0790 -0.3586
 1735TIP3   OH226619   2.158   1.764   0.796 -0.2463  0.3748 -0.1532
 1735TIP3    H126620   2.143   1.856   0.775 -1.6688  0.4459  1.0497
 1735TIP3    H226621   2.161   1.761   0.892 -2.0293 -1.0650 -0.0996
 1736TIP3   OH226622   4.856   4.409  12.233 -0.4102 -0.8531 -0.3613
 1736TIP3    H126623   4.930   4.366  12.276  0.9217 -0.8771 -2.5138
 1736TIP3    H226624   4.856   4.374  12.144 -0.7636  1.8095 -1.5023
 1737TIP3   OH226625   4.516   1.045  16.875 -0.4802  0.1722  0.1699
 1737TIP3    H126626   4.559   1.095  16.806 -0.2219  0.0082  0.2121
 1737TIP3    H226627   4.466   1.111  16.924  0.1295  0.4553  0.4343
 1738TIP3   OH226628   3.320   2.521  15.993  0.3898 -0.3465  0.4381
 1738TIP3    H126629   3.311   2.426  16.008 -0.8033 -0.4932 -0.9640
 1738TIP3    H226630   3.339   2.557  16.080  0.9514 -1.8671  0.9897
 1739TIP3   OH226631   2.567   3.312  16.306 -0.1199 -0.0517  0.1206
 1739TIP3    H126632   2.520   3.241  16.263 -1.3703  0.0563  1.2113
 1739TIP3    H226633   2.549   3.300  16.400 -1.2678  2.2525  0.2905
 1740TIP3   OH226634   1.376   5.256   4.590 -0.3223 -0.9507  0.2614
 1740TIP3    H126635   1.311   5.187   4.602 -0.4193 -0.9211 -0.0681
 1740TIP3    H226636   1.452   5.228   4.640 -1.0026 -0.4125  1.6486
 1741TIP3   OH226637   3.262   4.738  14.221 -0.0986 -0.3611 -0.2829
 1741TIP3    H126638   3.281   4.816  14.273 -1.1158  0.1418 -0.6316
 1741TIP3    H226639   3.209   4.770  14.148 -2.5252 -1.6449  0.7877
 1742TIP3   OH226640   4.364   6.558  15.402  0.0054 -0.4315  0.3646
 1742TIP3    H126641   4.447   6.528  15.440  2.8750  0.3907 -4.3780
 1742TIP3    H226642   4.333   6.484  15.351 -1.3606 -0.1642  0.7578
 1743TIP3   OH226643   2.742   2.166   3.019 -0.0369  0.4652  0.1058
 1743TIP3    H126644   2.681   2.093   3.031 -0.3691  0.6972 -0.1298
 1743TIP3    H226645   2.769   2.159   2.928 -2.0051  2.0736 -0.6807
 1744TIP3   OH226646   0.919   4.743  16.829 -0.3312  0.2757 -0.8407
 1744TIP3    H126647   0.881   4.735  16.916  0.1892 -0.9184 -0.7020
 1744TIP3    H226648   0.949   4.655  16.808  0.5366  0.7769 -1.7801
 1745TIP3   OH226649   6.217   0.876  12.415  0.5346  0.1500 -0.0710
 1745TIP3    H126650   6.162   0.904  12.341 -0.1975  2.4956  1.2649
 1745TIP3    H226651   6.304   0.911  12.395  1.3281 -2.3365 -1.4818
 1746TIP3   OH226652   6.642   0.107  11.609 -0.2398 -0.5496 -0.0303
 1746TIP3    H126653   6.586   0.098  11.532 -1.0852 -1.5952  0.6743
 1746TIP3    H226654   6.694   0.026  11.610  2.7737  1.1864 -1.7497
 1747TIP3   OH226655   1.616   0.354   5.906  0.0551 -0.7984 -0.0029
 1747TIP3    H126656   1.540   0.340   5.849  0.5005  1.6170 -1.3220
 1747TIP3    H226657   1.683   0.296   5.869 -0.7108 -1.9813  0.3851
 1748TIP3   OH226658   4.672   2.978  15.964  0.6470  0.4594 -0.1877
 1748TIP3    H126659   4.674   2.965  15.869  0.6670  1.7832 -0.3932
 1748TIP3    H226660   4.759   2.951  15.993  0.4578 -0.4945 -0.4494
 1749TIP3   OH226661   5.868   2.213   5.025 -0.2798  0.7036  0.3040
 1749TIP3    H126662   5.828   2.127   5.036  1.2661 -0.1566 -0.3714
 1749TIP3    H226663   5.962   2.195   5.027  0.0648  2.3514 -0.1179
 1750TIP3   OH226664   3.646   1.885  15.162  0.1912 -0.3612 -0.3862
 1750TIP3    H126665   3.617   1.971  15.131 -0.1871 -0.1820  0.4469
 1750TIP3    H226666   3.741   1.892  15.170 -0.0238  0.8175  2.0731
 1751TIP3   OH226667   2.586   1.338   0.216 -0.6424  0.0764 -0.1590
 1751TIP3    H126668   2.548   1.346   0.303  0.0786 -1.7420  0.3940
 1751TIP3    H226669   2.655   1.272   0.227 -0.7002 -0.3751 -2.1547
 1752TIP3   OH226670   3.750   5.995   0.971 -0.1196  0.1820 -0.2825
 1752TIP3    H126671   3.807   5.935   1.018 -0.4744 -0.0614 -0.1582
 1752TIP3    H226672   3.755   5.966   0.879  2.6490  2.2661 -0.9257
 1753TIP3   OH226673   2.689   0.474  13.671  0.7777  0.1273  0.0473
 1753TIP3    H126674   2.644   0.390  13.660  1.8316 -0.3287 -1.0410
 1753TIP3    H226675   2.629   0.539  13.634 -0.8020  0.1454  2.4151
 1754TIP3   OH226676   0.726   2.744  15.295  0.1296  0.0819  0.4759
 1754TIP3    H126677   0.755   2.771  15.382 -0.6834  0.6833  0.5702
 1754TIP3    H226678   0.807   2.730  15.246  0.5861  0.6885  1.0422
 1755TIP3   OH226679   6.349   5.673   4.048  0.4928 -0.5140  0.1017
 1755TIP3    H126680   6.306   5.751   4.082  2.4181 -0.2955  2.2481
 1755TIP3    H226681   6.398   5.704   3.972  0.5883  0.2144  0.4494
 1756TIP3   OH226682   4.904   1.633  16.871 -0.0599 -0.6192  0.3573
 1756TIP3    H126683   4.880   1.606  16.782  1.2611  0.8769 -0.5028
 1756TIP3    H226684   4.820   1.649  16.914 -0.7344  0.4949 -1.2600
 1757TIP3   OH226685   2.195   3.625  14.367  0.4118 -0.3786  0.7946
 1757TIP3    H126686   2.135   3.654  14.435 -0.1204  1.6407 -0.4546
 1757TIP3    H226687   2.270   3.588  14.414 -0.9635 -1.2297  2.4011
 1758TIP3   OH226688   5.964   0.205  13.120  0.5191  0.1391  0.1926
 1758TIP3    H126689   6.055   0.222  13.144  0.2729  1.6011  0.2059
 1758TIP3    H226690   5.945   0.269  13.051 -1.3442  1.9270  2.1961
 1759TIP3   OH226691   2.793   2.080  11.220  0.0905 -0.6803  0.0015
 1759TIP3    H126692   2.755   2.156  11.176  0.8908 -0.3088 -0.0648
 1759TIP3    H226693   2.807   2.016  11.150 -2.8547 -1.9163  0.3684
 1760TIP3   OH226694   1.173   0.404   0.558  0.0887 -0.7142 -0.4907
 1760TIP3    H126695   1.191   0.494   0.532 -0.6369 -0.5852 -0.5689
 1760TIP3    H226696   1.216   0.393   0.642  2.1183 -1.0003 -1.5071
 1761TIP3   OH226697   2.048   3.058   0.211 -0.1730 -0.1977 -0.4980
 1761TIP3    H126698   2.084   2.986   0.264 -1.2445 -0.6055 -0.2987
 1761TIP3    H226699   1.962   3.074   0.249 -1.3898 -1.1427 -2.6988
 1762TIP3   OH226700   4.065   5.501   1.295  0.1359  0.0727 -0.0547
 1762TIP3    H126701   4.145   5.537   1.333  0.7608  0.2284 -1.4593
 1762TIP3    H226702   4.064   5.410   1.322  0.4802  0.2173  0.4494
 1763TIP3   OH226703   5.316   1.968  11.770 -0.1469  0.2744  0.0299
 1763TIP3    H126704   5.248   2.036  11.778 -0.8185 -0.5916  3.5556
 1763TIP3    H226705   5.269   1.886  11.788  1.2493 -0.7676 -0.9045
 1764TIP3   OH226706   3.193   3.000  16.136 -0.3124  0.2026  0.6241
 1764TIP3    H126707   3.233   3.075  16.093  2.1131  0.3208  2.8628
 1764TIP3    H226708   3.138   3.039  16.205 -1.2551 -0.0730  0.0558
 1765TIP3   OH226709   3.826   2.974  13.361  0.9800 -0.2092 -0.4048
 1765TIP3    H126710   3.792   2.901  13.414  0.8992  0.3238  0.2993
 1765TIP3    H226711   3.748   3.024  13.338  1.0263 -0.3972 -0.9732
 1766TIP3   OH226712   3.932   2.629   3.031  0.1213  0.1945 -0.0343
 1766TIP3    H126713   3.857   2.634   3.090 -0.4160  1.7375 -0.7842
 1766TIP3    H226714   3.961   2.538   3.037 -2.3397 -0.6965 -0.3647
 1767TIP3   OH226715   6.622   5.041  13.566  0.4509 -0.2204 -0.3857
 1767TIP3    H126716   6.686   4.970  13.572 -0.5573 -1.3509 -2.1042
 1767TIP3    H226717   6.551   5.005  13.512 -0.6659  1.6968 -0.2895
 1768TIP3   OH226718   3.728   4.340   5.778 -0.3252  0.0580 -0.1397
 1768TIP3    H126719   3.643   4.295   5.777 -0.1321 -0.3225  0.1485
 1768TIP3    H226720   3.770   4.309   5.858 -0.1921  0.7686  0.0742
 1769TIP3   OH226721   2.777   2.118  11.864 -0.7481 -0.7311  0.3102
 1769TIP3    H126722   2.725   2.197  11.872  1.7634  1.0936 -0.1014
 1769TIP3    H226723   2.738   2.070  11.791 -1.9725  0.4166  0.1763
 1770TIP3   OH226724   6.330   4.249  16.926  0.0418  0.2251 -0.0484
 1770TIP3    H126725   6.350   4.336  16.892  1.8728  0.5487  1.6209
 1770TIP3    H226726   6.239   4.234  16.903  0.6072  1.1268 -3.3333
 1771TIP3   OH226727   6.417   5.653   1.898  0.3211  0.1086 -0.0167
 1771TIP3    H126728   6.341   5.712   1.891  0.4755  0.2149 -1.0260
 1771TIP3    H226729   6.460   5.660   1.812  1.5509  0.1532  0.5872
 1772TIP3   OH226730   1.045   4.700   0.997  0.1230  0.0236 -0.0318
 1772TIP3    H126731   1.086   4.655   1.071 -0.7538  0.1223  0.5443
 1772TIP3    H226732   1.062   4.793   1.013  2.9058 -0.0854 -1.8179
 1773TIP3   OH226733   6.287   2.338  16.880  0.2114 -0.0128  0.2249
 1773TIP3    H126734   6.359   2.336  16.816  0.1141 -1.3050  0.1304
 1773TIP3    H226735   6.208   2.328  16.827  0.1282 -1.0372  0.5247
 1774TIP3   OH226736   5.880   1.122  16.168  0.0328 -0.1967  0.4251
 1774TIP3    H126737   5.799   1.167  16.144 -0.2125 -1.6585 -1.6997
 1774TIP3    H226738   5.938   1.136  16.093  1.0702 -0.7520  1.1069
 1775TIP3   OH226739   1.573   1.565  12.546 -0.2050  0.2306  0.6219
 1775TIP3    H126740   1.589   1.620  12.470 -0.6614 -2.8522 -1.9083
 1775TIP3    H226741   1.649   1.507  12.551 -0.9581 -0.7272  1.4810
 1776TIP3   OH226742   2.548   0.493  15.369  0.0732 -0.9211 -0.4654
 1776TIP3    H126743   2.454   0.511  15.372 -0.2056 -2.2269 -0.8893
 1776TIP3    H226744   2.574   0.487  15.461 -0.8706 -3.4324 -0.2932
 1777TIP3   OH226745   2.079   4.490  16.215  0.3519 -0.0177 -0.0582
 1777TIP3    H126746   2.130   4.569  16.234  1.6138 -1.3079  2.2929
 1777TIP3    H226747   2.144   4.422  16.201 -0.7085 -0.6293 -2.5456
 1778TIP3   OH226748   2.597   4.385   5.592 -0.1013  0.0444 -0.2483
 1778TIP3    H126749   2.515   4.353   5.629  0.2544  0.3081  0.8109
 1778TIP3    H226750   2.614   4.467   5.639  0.1746  0.5976 -1.2893
 1779TIP3   OH226751   1.775   3.316  16.703  0.3189 -0.5841 -0.2029
 1779TIP3    H126752   1.772   3.280  16.614 -2.3054  0.5802 -0.6998
 1779TIP3    H226753   1.795   3.241  16.759  1.4932 -1.4536 -1.7004
 1780TIP3   OH226754   2.630   1.009   0.015 -0.8121  0.2013 -0.1938
 1780TIP3    H126755   2.607   1.043  -0.071  1.1635  1.0059 -0.4527
 1780TIP3    H226756   2.575   1.058   0.076  0.6848  2.7129 -0.7091
 1781TIP3   OH226757   0.906   1.138  15.934 -0.4216 -0.0083  0.1341
 1781TIP3    H126758   0.972   1.202  15.960  0.2128 -0.6034  0.0123
 1781TIP3    H226759   0.947   1.053  15.950 -1.2683 -0.3960  0.3404
 1782TIP3   OH226760   3.800   5.027  15.751  0.2628  0.0422  0.4299
 1782TIP3    H126761   3.737   5.062  15.688 -3.0552  0.8458  3.8728
 1782TIP3    H226762   3.867   5.095  15.758  0.6869 -0.0385 -2.0278
 1783TIP3   OH226763   4.102   4.708   3.670  0.0013 -0.3364  0.3013
 1783TIP3    H126764   4.166   4.775   3.694  0.3009 -0.5294  0.0686
 1783TIP3    H226765   4.151   4.650   3.611  0.0020 -1.2227  1.1434
 1784TIP3   OH226766   3.437   1.794  14.237  0.8447 -0.1395  0.0085
 1784TIP3    H126767   3.475   1.742  14.307  0.1188  0.1134  0.5982
 1784TIP3    H226768   3.454   1.885  14.262  0.2198 -0.0349  0.0845
 1785TIP3   OH226769   1.665   2.539  12.879  0.3186 -0.4068 -0.2834
 1785TIP3    H126770   1.682   2.475  12.809  2.0873  1.2955 -1.5168
 1785TIP3    H226771   1.752   2.559  12.914 -0.1697  1.3903 -0.0276
 1786TIP3   OH226772   6.060   0.574   5.054 -0.1512 -0.3598 -0.0840
 1786TIP3    H126773   6.110   0.641   5.008 -1.2977  0.5515 -0.0384
 1786TIP3    H226774   6.033   0.513   4.985 -1.8978  1.0225 -0.6809
 1787TIP3   OH226775   2.095   3.558  15.168 -0.1405 -0.5386  0.8760
 1787TIP3    H126776   2.050   3.641  15.183  0.4864 -0.1087  0.4585
 1787TIP3    H226777   2.035   3.491  15.199 -1.4293 -0.0429 -0.4468
 1788TIP3   OH226778   1.182   0.374   6.499 -0.1574 -0.6871 -0.2808
 1788TIP3    H126779   1.206   0.281   6.494  1.5602 -0.2960  0.3052
 1788TIP3    H226780   1.087   0.372   6.514 -0.2303 -2.3343 -0.7070
 1789TIP3   OH226781   5.839   0.238   5.504  0.1702  0.2898  0.8740
 1789TIP3    H126782   5.746   0.237   5.479  0.4647 -0.2289 -0.3123
 1789TIP3    H226783   5.861   0.331   5.508 -0.2464  0.4145  0.5065
 1790TIP3   OH226784   5.928   1.098   3.059 -0.1466 -0.5553 -0.5326
 1790TIP3    H126785   5.923   1.003   3.064 -0.3818 -0.5809 -1.1949
 1790TIP3    H226786   5.978   1.123   3.136 -1.8088 -1.0569  0.7686
 1791TIP3   OH226787   4.651   2.418  15.810 -0.5297 -0.3759  0.5696
 1791TIP3    H126788   4.666   2.325  15.828  0.3370 -0.0323  1.6850
 1791TIP3    H226789   4.733   2.449  15.773 -1.4912 -0.4976 -1.8766
 1792TIP3   OH226790   4.746   2.746  14.809 -0.0041  0.5995  0.9981
 1792TIP3    H126791   4.777   2.656  14.801 -0.1558  0.5228  1.2562
 1792TIP3    H226792   4.755   2.783  14.721  0.3542  0.4290  0.9599
 1793TIP3   OH226793   4.951   0.725  13.563  0.5153  0.6151  0.8016
 1793TIP3    H126794   4.939   0.718  13.468  1.6172  1.8839  0.5297
 1793TIP3    H226795   4.938   0.636  13.595 -0.3909  0.2569 -0.4682
 1794TIP3   OH226796   3.799   3.139  15.458 -0.1914  0.0496 -0.2692
 1794TIP3    H126797   3.774   3.066  15.401 -1.4917  1.6299 -1.8232
 1794TIP3    H226798   3.882   3.169  15.422 -1.0354  1.0792 -1.4618
 1795TIP3   OH226799   1.237   4.369   2.684 -0.3363 -0.0018 -0.0219
 1795TIP3    H126800   1.280   4.454   2.672  0.6891 -0.5271 -0.1868
 1795TIP3    H226801   1.308   4.309   2.706 -0.8307 -1.1272 -1.3595
 1796TIP3   OH226802   5.060   1.340  14.752  0.1380  0.0676  0.0436
 1796TIP3    H126803   5.012   1.299  14.680  0.5512 -2.1421  0.9315
 1796TIP3    H226804   5.146   1.362  14.715 -0.3253  0.7904 -0.6280
 1797TIP3   OH226805   2.294   4.157  12.245 -0.2633  0.0048 -0.4100
 1797TIP3    H126806   2.248   4.111  12.175 -2.2589  1.9622 -0.5020
 1797TIP3    H226807   2.336   4.088  12.296 -0.0478 -1.5811 -2.6090
 1798TIP3   OH226808   0.558   2.802  17.287 -0.8328 -0.0238 -0.2868
 1798TIP3    H126809   0.612   2.724  17.271 -1.2132 -1.0914  2.8584
 1798TIP3    H226810   0.470   2.776  17.261 -0.3931  0.7310 -2.7394
 1799TIP3   OH226811   2.704   6.549   1.495 -0.2456  0.1942  0.0161
 1799TIP3    H126812   2.731   6.627   1.445  0.9536 -0.2875 -0.1354
 1799TIP3    H226813   2.751   6.477   1.453 -1.5799 -0.6657 -0.0257
 1800TIP3   OH226814   1.843   1.724   0.735 -0.1377 -0.2033 -0.3121
 1800TIP3    H126815   1.781   1.669   0.687  0.6155 -0.7760 -0.6679
 1800TIP3    H226816   1.917   1.665   0.753  0.8442  0.7843 -0.9977
 1801TIP3   OH226817   0.220   5.529  14.673 -0.2813 -0.0249  0.1456
 1801TIP3    H126818   0.172   5.448  14.655 -0.1329 -0.2211  0.6269
 1801TIP3    H226819   0.169   5.597  14.629  0.3905 -0.5542 -1.5415
 1802TIP3   OH226820   1.021   0.590  15.661  0.1950 -0.4473  0.1900
 1802TIP3    H126821   0.992   0.610  15.572 -0.2352 -1.1831  0.1551
 1802TIP3    H226822   0.993   0.666  15.713 -1.1209 -0.7793  0.0123
 1803TIP3   OH226823   1.924   3.652  13.066  0.5013 -0.0793 -0.4126
 1803TIP3    H126824   1.943   3.723  13.127 -3.1032  3.0784 -2.5032
 1803TIP3    H226825   2.003   3.644  13.014  1.0920  2.4537 -0.0442
 1804TIP3   OH226826   5.688   4.468   1.057  0.4663 -0.1494 -0.3720
 1804TIP3    H126827   5.640   4.523   0.994 -2.2454 -0.7822  0.9714
 1804TIP3    H226828   5.744   4.530   1.104 -0.3021  0.9751 -0.8726
 1805TIP3   OH226829   4.391   4.693  14.037  0.2192  0.2874  0.2243
 1805TIP3    H126830   4.322   4.754  14.064 -1.5406 -1.4895  0.0021
 1805TIP3    H226831   4.419   4.724  13.951 -0.3734  1.0133  0.2874
 1806TIP3   OH226832   0.307   4.596  14.917  0.3380 -0.3018 -0.0227
 1806TIP3    H126833   0.348   4.642  14.990  1.6268 -1.9445  0.3563
 1806TIP3    H226834   0.226   4.561  14.954  1.2383 -1.5799  0.8381
 1807TIP3   OH226835   2.004   6.038  12.822 -0.7909  0.2433  0.5688
 1807TIP3    H126836   1.997   5.959  12.768 -1.3291  2.1121 -2.3086
 1807TIP3    H226837   1.919   6.045  12.865 -1.4743  0.2615 -0.7388
 1808TIP3   OH226838   5.135   0.179   1.319 -0.4419 -0.5820 -0.0764
 1808TIP3    H126839   5.094   0.109   1.268 -1.9625  0.2439 -0.0145
 1808TIP3    H226840   5.161   0.244   1.254  0.1256 -0.7709 -0.0439
 1809TIP3   OH226841   5.689   5.788   5.743  0.9897  0.4695 -0.7822
 1809TIP3    H126842   5.713   5.698   5.719 -3.0546 -0.9619 -0.2290
 1809TIP3    H226843   5.627   5.777   5.816  2.9604  3.9731  1.7051
 1810TIP3   OH226844   4.063   3.643  16.397 -0.5910  0.1890 -0.5474
 1810TIP3    H126845   4.101   3.678  16.317  2.2687  1.4280  1.1951
 1810TIP3    H226846   4.074   3.549  16.390  0.4322  0.3450 -1.2394
 1811TIP3   OH226847   1.938   6.463   0.693  0.4884  0.0116 -0.5933
 1811TIP3    H126848   1.904   6.535   0.746 -0.3446 -0.5509 -0.3503
 1811TIP3    H226849   1.865   6.438   0.636  0.8993 -0.3782 -0.9584
 1812TIP3   OH226850   3.175   0.685  13.624  0.3741 -0.2786  0.6994
 1812TIP3    H126851   3.120   0.608  13.606  0.5795 -0.1861 -0.3880
 1812TIP3    H226852   3.184   0.728  13.539  0.9497  0.4973  1.1462
 1813TIP3   OH226853   2.971   4.038  10.905 -0.2446 -0.1532 -0.3200
 1813TIP3    H126854   2.948   4.123  10.867 -1.5121 -0.7579 -0.9787
 1813TIP3    H226855   3.051   4.013  10.860  0.7576  1.1467  0.6460
 1814TIP3   OH226856   0.097   4.481  15.134  0.0221 -0.0207 -0.1512
 1814TIP3    H126857   0.029   4.457  15.196 -1.4247 -1.6712 -2.2166
 1814TIP3    H226858   0.067   4.564  15.097  0.1242  0.2142  0.2864
 1815TIP3   OH226859   1.534   3.270  15.816 -0.0061 -0.1783 -0.3107
 1815TIP3    H126860   1.613   3.244  15.769  0.3838 -1.5515  1.0217
 1815TIP3    H226861   1.562   3.278  15.908 -1.4199 -0.8261  0.2087
 1816TIP3   OH226862   3.608   1.979  16.639 -0.0956  0.3509  0.3080
 1816TIP3    H126863   3.696   2.005  16.611  0.6951  0.2488  2.4570
 1816TIP3    H226864   3.564   2.061  16.658  0.2820  0.3584  1.2140
 1817TIP3   OH226865   0.464   4.768   5.208  0.4989 -0.4221 -0.1539
 1817TIP3    H126866   0.490   4.722   5.288 -2.9902 -2.1706  0.1848
 1817TIP3    H226867   0.428   4.851   5.239 -0.1068 -0.7547  0.0650
 1818TIP3   OH226868   5.169   3.606   6.124  0.0715  0.5121 -0.3033
 1818TIP3    H126869   5.189   3.538   6.060 -2.8217  0.4481 -1.2727
 1818TIP3    H226870   5.105   3.566   6.183  0.1866  1.6453  0.6384
 1819TIP3   OH226871   2.165   1.389  10.812  0.2953  0.0124 -0.0811
 1819TIP3    H126872   2.228   1.425  10.874 -0.2900  2.7706 -0.9589
 1819TIP3    H226873   2.091   1.449  10.814 -0.0444 -0.1433 -2.8922
 1820TIP3   OH226874   6.109   0.808  13.813 -0.0724  0.0521  0.7863
 1820TIP3    H126875   6.177   0.806  13.746 -1.4238  0.3479 -0.6680
 1820TIP3    H226876   6.122   0.728  13.864  1.1212 -0.0764  0.3049
 1821TIP3   OH226877   0.764   2.386  11.579 -0.0503  0.3239  0.3500
 1821TIP3    H126878   0.728   2.367  11.492  0.9938  2.3595 -0.6032
 1821TIP3    H226879   0.796   2.302  11.611 -2.0484 -0.8034 -0.4415
 1822TIP3   OH226880   0.638   5.261   1.615  0.1301  0.0859 -0.2737
 1822TIP3    H126881   0.700   5.188   1.624 -0.5374 -0.5216 -0.4131
 1822TIP3    H226882   0.555   5.218   1.593  0.1353  1.0065 -2.2944
 1823TIP3   OH226883   5.809   3.879   4.220 -0.0350  0.2638 -0.2872
 1823TIP3    H126884   5.897   3.884   4.183  0.3431  0.3048  0.5742
 1823TIP3    H226885   5.797   3.963   4.264  0.1596 -0.3343  0.9768
 1824TIP3   OH226886   4.358   3.687  17.189 -0.1628 -0.0290  0.2825
 1824TIP3    H126887   4.280   3.691  17.245 -0.9302  1.9085 -0.8004
 1824TIP3    H226888   4.379   3.779  17.171 -0.8345 -0.4450 -3.7030
 1825TIP3   OH226889   1.272   4.002  14.609 -0.0318 -0.0135 -0.0849
 1825TIP3    H126890   1.326   3.924  14.600  0.5366  0.3354  0.2473
 1825TIP3    H226891   1.261   4.013  14.703  0.6330  0.7981 -0.0892
 1826TIP3   OH226892   2.587   6.198  16.026  0.0096  0.7812  0.0332
 1826TIP3    H126893   2.505   6.247  16.037 -0.0025  0.7613  0.0315
 1826TIP3    H226894   2.610   6.171  16.115  0.1348  0.9833  0.0635
 1827TIP3   OH226895   2.807   1.011   3.404  0.0478  0.0681  0.0265
 1827TIP3    H126896   2.858   1.085   3.372  0.7285 -0.7623 -0.8677
 1827TIP3    H226897   2.856   0.934   3.377 -0.9667 -0.7391  0.3844
 1828TIP3   OH226898   3.279   5.284   3.148  0.1275 -0.4684  0.5643
 1828TIP3    H126899   3.238   5.367   3.123 -0.7820 -1.2940 -0.8497
 1828TIP3    H226900   3.321   5.253   3.067  0.9260 -1.1239  1.2141
 1829TIP3   OH226901   4.741   0.194   4.780 -0.4252 -0.0360  0.2905
 1829TIP3    H126902   4.764   0.250   4.855  1.3019  0.7085 -0.7324
 1829TIP3    H226903   4.647   0.203   4.772 -0.7558 -0.5643  2.6872
 1830TIP3   OH226904   3.300   4.022   2.111  0.2135  0.1861 -0.7085
 1830TIP3    H126905   3.261   4.074   2.181  1.7965  0.3448  0.0903
 1830TIP3    H226906   3.389   4.054   2.104  0.6837 -1.1943 -1.4315
 1831TIP3   OH226907   2.752   5.166   3.335 -0.4053 -0.0723  0.2834
 1831TIP3    H126908   2.683   5.225   3.365 -0.2619 -0.7222  1.9995
 1831TIP3    H226909   2.825   5.223   3.312 -1.0053  0.5284 -0.1665
 1832TIP3   OH226910   1.788   4.574   0.298 -0.1219  0.1128 -0.1642
 1832TIP3    H126911   1.800   4.545   0.389  0.7758  0.8954 -0.0142
 1832TIP3    H226912   1.786   4.670   0.304 -3.0190  0.1507 -0.6362
 1833TIP3   OH226913   1.196   5.438   4.060 -0.0399  0.1505 -0.6847
 1833TIP3    H126914   1.205   5.413   4.152  1.6334 -1.0268 -1.1213
 1833TIP3    H226915   1.119   5.389   4.030  0.9182 -1.5297 -0.5271
 1834TIP3   OH226916   4.480   2.156  14.860 -0.2464 -0.3949  0.2839
 1834TIP3    H126917   4.539   2.088  14.828  0.5696  0.5267 -0.1974
 1834TIP3    H226918   4.521   2.187  14.941  0.4915  0.9433 -0.5721
 1835TIP3   OH226919   2.085   4.891  13.036 -0.5518 -0.7125 -0.2373
 1835TIP3    H126920   2.110   4.879  13.127  0.6356 -0.3540 -0.5008
 1835TIP3    H226921   2.117   4.978  13.013  1.8996 -1.9118 -1.8319
 1836TIP3   OH226922   4.848   6.498   6.179  0.3375 -0.2798  0.8046
 1836TIP3    H126923   4.838   6.403   6.179  0.5348 -0.3678  2.9967
 1836TIP3    H226924   4.788   6.529   6.247  1.4620  0.9697  1.2901
 1837TIP3   OH226925   2.932   3.933  10.597 -0.1278  0.6294  0.0615
 1837TIP3    H126926   3.002   3.998  10.602  0.1492  0.3076  0.5217
 1837TIP3    H226927   2.854   3.979  10.628  0.5074  0.1645  2.5973
 1838TIP3   OH226928   5.573   1.001  11.300  0.2145 -0.8579  0.1864
 1838TIP3    H126929   5.488   0.962  11.284  0.2367 -0.6878 -0.3949
 1838TIP3    H226930   5.627   0.929  11.333 -0.1249 -0.9867  0.4666
 1839TIP3   OH226931   0.516   5.661   1.979 -1.3192  0.1363  0.0646
 1839TIP3    H126932   0.571   5.705   2.044 -3.2449  1.4927  0.8590
 1839TIP3    H226933   0.450   5.615   2.029 -2.2395  0.3661 -0.8970
 1840TIP3   OH226934   4.937   3.177  11.881 -0.1618 -0.0110 -0.2714
 1840TIP3    H126935   4.879   3.152  11.809  1.1398  0.3139 -1.4715
 1840TIP3    H226936   5.024   3.181  11.841  0.2070  2.9910  0.6279
 1841TIP3   OH226937   5.421   2.011   1.650 -0.1552 -0.0659  0.0346
 1841TIP3    H126938   5.499   1.961   1.627 -1.3005 -1.3558 -1.3057
 1841TIP3    H226939   5.361   1.996   1.577 -1.9368  0.2292  1.3688
 1842TIP3   OH226940   3.203   1.407   3.284 -0.1849  0.1546  0.0028
 1842TIP3    H126941   3.296   1.427   3.271 -0.2836  0.9227  0.3991
 1842TIP3    H226942   3.159   1.451   3.211 -0.2374 -0.2468 -0.2110
 1843TIP3   OH226943   3.903   5.753  11.819  0.0937 -0.1588 -0.2613
 1843TIP3    H126944   3.932   5.814  11.751 -0.6849  0.3321 -0.1672
 1843TIP3    H226945   3.810   5.774  11.832  0.1462 -0.4755  0.7155
 1844TIP3   OH226946   6.501   3.302   1.596  0.1580  0.3277 -0.2048
 1844TIP3    H126947   6.516   3.388   1.636  0.8219  0.4761 -0.7578
 1844TIP3    H226948   6.578   3.287   1.541  0.4405 -0.9911  0.5130
 1845TIP3   OH226949   1.248   5.896  16.458  0.3859 -0.2068  0.0253
 1845TIP3    H126950   1.319   5.953  16.488  1.0787 -1.2666  0.4542
 1845TIP3    H226951   1.225   5.844  16.534 -1.0611  0.3066 -0.0344
 1846TIP3   OH226952   4.076   0.740   5.079 -0.3953  0.0526 -0.3590
 1846TIP3    H126953   4.077   0.669   5.144 -0.2919  0.0763 -0.3344
 1846TIP3    H226954   4.041   0.816   5.126 -0.7029 -0.0355 -0.4419
 1847TIP3   OH226955   3.660   4.374  11.147 -0.3017  0.0287  0.5197
 1847TIP3    H126956   3.722   4.419  11.089 -0.2999 -0.9872 -0.3086
 1847TIP3    H226957   3.697   4.287  11.158 -1.8403 -0.8080 -0.4740
 1848TIP3   OH226958   0.062   2.046  13.983  0.2791  0.3760  1.1546
 1848TIP3    H126959   0.024   2.048  13.895  0.8404 -0.2260  0.8861
 1848TIP3    H226960   0.000   1.993  14.033  0.6026 -0.3661  0.7900
 1849TIP3   OH226961   2.731   2.776  14.441 -0.1371 -0.7285 -0.5509
 1849TIP3    H126962   2.643   2.743  14.457 -0.6527 -0.6724 -2.9621
 1849TIP3    H226963   2.786   2.697  14.437 -0.7653 -1.1167 -2.7604
 1850TIP3   OH226964   5.934   3.909   6.749  0.5863  0.2154 -0.5286
 1850TIP3    H126965   5.855   3.936   6.796  0.7914  0.5152 -0.3483
 1850TIP3    H226966   5.992   3.985   6.756  1.5844 -0.6303  0.8866
 1851TIP3   OH226967   1.534   0.155  13.489 -0.2983  0.1485 -0.4498
 1851TIP3    H126968   1.534   0.120  13.400 -0.8589  1.6098 -1.0584
 1851TIP3    H226969   1.608   0.215  13.491 -0.1463 -0.0494  0.1550
 1852TIP3   OH226970   4.066   3.062   2.824 -0.1121  0.3653 -0.3400
 1852TIP3    H126971   4.023   3.079   2.908  0.3033  2.4577 -0.4886
 1852TIP3    H226972   4.159   3.051   2.847 -0.1437 -0.1399 -0.4342
 1853TIP3   OH226973   1.051   3.625  12.681  0.1377 -0.3821  0.2038
 1853TIP3    H126974   0.973   3.619  12.736  0.6866  0.1868  1.0803
 1853TIP3    H226975   1.094   3.540  12.691  1.1912  0.3282  2.1774
 1854TIP3   OH226976   2.702   0.258   0.656  0.0015  0.3923 -0.0274
 1854TIP3    H126977   2.678   0.226   0.743  0.9195  1.1886  0.5257
 1854TIP3    H226978   2.621   0.298   0.623 -1.1532 -2.2385 -0.6767
 1855TIP3   OH226979   6.622   0.952   4.207  0.3858 -0.5348 -0.4421
 1855TIP3    H126980   6.612   0.857   4.204  2.8561 -0.8730 -0.7480
 1855TIP3    H226981   6.667   0.968   4.290 -0.1279  0.3726 -0.3406
 1856TIP3   OH226982   0.430   4.735   4.255 -0.6337 -0.2578  0.3681
 1856TIP3    H126983   0.367   4.794   4.298 -0.0767  0.2386  0.5033
 1856TIP3    H226984   0.379   4.655   4.238 -0.9512 -0.3780  1.7158
 1857TIP3   OH226985   4.202   3.062   5.112  0.1086 -0.2829  0.0173
 1857TIP3    H126986   4.209   2.987   5.054  1.0453 -0.3433  0.1969
 1857TIP3    H226987   4.255   3.039   5.188  3.0842  1.7918 -1.2647
 1858TIP3   OH226988   3.141   3.515  16.661 -0.2285 -0.6619  0.6409
 1858TIP3    H126989   3.102   3.479  16.740  0.1550  0.2968  1.2817
 1858TIP3    H226990   3.128   3.610  16.668  0.3843 -0.5038 -0.1251
 1859TIP3   OH226991   2.199   3.473   5.970 -0.4139  0.5268 -0.6761
 1859TIP3    H126992   2.269   3.518   5.921  0.5911 -0.4062 -0.1382
 1859TIP3    H226993   2.205   3.509   6.058  0.6993 -0.9332 -0.1181
 1860TIP3   OH226994   3.423   1.677   2.165 -0.6049 -0.5464  0.2170
 1860TIP3    H126995   3.392   1.609   2.105 -0.8996  0.7392 -1.1771
 1860TIP3    H226996   3.432   1.755   2.110 -1.6607  0.9291  1.9846
 1861TIP3   OH226997   0.657   3.119   2.029 -0.1406  0.6511  0.4377
 1861TIP3    H126998   0.710   3.172   1.970 -0.5075 -0.8735 -1.3573
 1861TIP3    H226999   0.579   3.096   1.978  0.4999 -2.4986  0.6501
 1862TIP3   OH227000   2.330   0.824   5.162  0.5803 -0.7364  0.2041
 1862TIP3    H127001   2.264   0.778   5.214 -2.2662  1.7709 -0.8802
 1862TIP3    H227002   2.345   0.907   5.208  1.5396 -0.4478 -0.5677
 1863TIP3   OH227003   4.751   3.136  12.104  0.1623 -0.2505  0.2237
 1863TIP3    H127004   4.734   3.070  12.172 -0.6274  1.5649  1.8969
 1863TIP3    H227005   4.806   3.091  12.040 -0.7722 -2.6795  0.9978
 1864TIP3   OH227006   5.038   3.741   0.872  0.1323  0.0486 -0.6123
 1864TIP3    H127007   4.971   3.674   0.856  0.7697 -1.4981  2.3810
 1864TIP3    H227008   5.120   3.691   0.878  0.8220  1.2565  0.4442
 1865TIP3   OH227009   3.331   4.345  10.867  0.0061  0.1602 -0.0829
 1865TIP3    H127010   3.292   4.424  10.906  0.2872 -0.2722  1.1116
 1865TIP3    H227011   3.287   4.336  10.783 -1.2453  0.6575  0.4932
 1866TIP3   OH227012   6.376   5.422   0.838 -0.8322 -0.0455 -0.3619
 1866TIP3    H127013   6.398   5.471   0.917 -0.3844 -1.3751  0.3721
 1866TIP3    H227014   6.306   5.473   0.797 -1.9882  0.0461  1.5668
 1867TIP3   OH227015   3.541   3.574   2.526 -0.0021 -0.0022  0.1561
 1867TIP3    H127016   3.454   3.536   2.539  0.2178  0.1268  2.5021
 1867TIP3    H227017   3.536   3.660   2.568  1.2346  0.0198  0.2858
 1868TIP3   OH227018   0.296   0.313  14.332 -0.1661  0.5185  0.1558
 1868TIP3    H127019   0.338   0.375  14.392  0.5392 -1.4050  1.7599
 1868TIP3    H227020   0.204   0.314  14.358  0.2689 -0.9404  1.9745
 1869TIP3   OH227021   5.716   0.646  11.561  0.8759 -0.5816 -0.5372
 1869TIP3    H127022   5.760   0.695  11.491  0.6183 -1.4976 -1.3513
 1869TIP3    H227023   5.787   0.604  11.610  1.1694  1.2027  0.6753
 1870TIP3   OH227024   2.893   3.547   5.457  0.2677  0.0072  0.2682
 1870TIP3    H127025   2.909   3.640   5.473 -0.5668  0.0242  1.0918
 1870TIP3    H227026   2.843   3.544   5.376  0.1061  0.2934  0.3581
 1871TIP3   OH227027   1.170   4.307  16.447 -0.4304  0.1041 -0.0347
 1871TIP3    H127028   1.242   4.306  16.510 -0.1700  0.0384 -0.3275
 1871TIP3    H227029   1.127   4.391  16.460  0.8039  0.9389 -1.0782
 1872TIP3   OH227030   2.654   4.169   1.664 -0.1571 -0.1645  0.4641
 1872TIP3    H127031   2.627   4.085   1.627 -0.4310  0.2744 -0.3574
 1872TIP3    H227032   2.643   4.158   1.759 -0.9495 -0.7872  0.3081
 1873TIP3   OH227033   4.058   3.823   4.142  0.0021 -0.2101  0.4903
 1873TIP3    H127034   4.131   3.780   4.187  0.0624 -0.1976  0.4049
 1873TIP3    H227035   4.031   3.760   4.076 -1.6279 -1.2523  2.0554
 1874TIP3   OH227036   6.250   1.858  15.678  0.3056 -0.5065  0.0673
 1874TIP3    H127037   6.287   1.911  15.749  0.7741  0.3192 -0.7648
 1874TIP3    H227038   6.192   1.797  15.722 -3.1823  3.0079  0.9088
 1875TIP3   OH227039   4.117   1.370   0.994  0.0140  0.3774 -0.4366
 1875TIP3    H127040   4.146   1.319   0.918 -1.6220  0.3510 -1.0867
 1875TIP3    H227041   4.107   1.459   0.960  0.3958  0.6130  0.0574
 1876TIP3   OH227042   2.166   3.707   1.277 -0.1996 -0.2600 -0.4218
 1876TIP3    H127043   2.152   3.767   1.204  0.9727  0.7850  0.1786
 1876TIP3    H227044   2.247   3.737   1.318 -0.7367 -0.9076  1.2146
 1877TIP3   OH227045   6.697   3.016   4.187  0.1508  0.0071  0.0475
 1877TIP3    H127046   6.660   2.938   4.228 -1.7113 -0.3242 -2.0604
 1877TIP3    H227047   6.697   3.082   4.256 -0.9952 -1.0457  1.0972
 1878TIP3   OH227048   2.897   3.529  12.188  0.3462 -0.6938 -0.4603
 1878TIP3    H127049   2.838   3.593  12.148  0.4173 -0.1519  0.2794
 1878TIP3    H227050   2.841   3.452  12.204  0.2379 -0.7887 -1.2615
 1879TIP3   OH227051   5.978   1.446   3.535 -0.2520  0.3477  0.2862
 1879TIP3    H127052   6.016   1.396   3.464  0.1591  0.3926  0.4710
 1879TIP3    H227053   6.040   1.436   3.608  0.6096  2.2931 -0.1093
 1880TIP3   OH227054   5.586   3.100  14.137 -0.1428 -0.3063 -0.2395
 1880TIP3    H127055   5.638   3.020  14.143  0.4988  0.1382  0.1749
 1880TIP3    H227056   5.518   3.089  14.203  0.8277  0.1256  0.8550
 1881TIP3   OH227057   3.834   4.243  13.722 -0.3741 -0.4870 -0.1316
 1881TIP3    H127058   3.775   4.283  13.657  0.2324  1.4348  0.4127
 1881TIP3    H227059   3.844   4.153  13.693 -1.5062 -0.1597 -1.7148
 1882TIP3   OH227060   4.828   5.740   2.601  0.1348  0.1095 -1.0170
 1882TIP3    H127061   4.792   5.657   2.570  1.9806 -1.3045  0.3883
 1882TIP3    H227062   4.798   5.748   2.691 -0.2529  1.1499 -1.2189
 1883TIP3   OH227063   2.209   1.752  14.118  0.1060 -0.1755  0.1444
 1883TIP3    H127064   2.206   1.847  14.127 -1.2116 -0.0898 -0.9314
 1883TIP3    H227065   2.127   1.721  14.157 -0.7378 -0.6118 -1.8245
 1884TIP3   OH227066   3.446   1.711  17.144  0.1074  0.1632  0.6455
 1884TIP3    H127067   3.418   1.802  17.131 -2.0531 -0.8047 -2.4794
 1884TIP3    H227068   3.419   1.690  17.233 -0.0137  2.3266  1.1640
 1885TIP3   OH227069   5.159   0.140   0.429 -0.0148 -0.2971 -0.5965
 1885TIP3    H127070   5.140   0.049   0.451  0.6391 -0.7797 -1.9388
 1885TIP3    H227071   5.254   0.148   0.438 -0.1128  0.3981 -0.0361
 1886TIP3   OH227072   1.475   1.347  11.080 -0.5594 -0.5247 -0.0061
 1886TIP3    H127073   1.443   1.390  11.001  0.9086 -0.6323 -0.6978
 1886TIP3    H227074   1.523   1.415  11.127 -0.4673 -0.7379  0.2144
 1887TIP3   OH227075   3.979   2.180  15.456 -0.0596  0.3820 -0.0641
 1887TIP3    H127076   4.073   2.198  15.448 -0.2008  1.4457  0.5675
 1887TIP3    H227077   3.975   2.084  15.466  0.9438  0.3111 -0.1745
 1888TIP3   OH227078   5.337   5.782  17.328 -0.3191  0.1610 -0.1034
 1888TIP3    H127079   5.350   5.794  17.234 -0.8803 -0.2101 -0.2319
 1888TIP3    H227080   5.326   5.688  17.340  1.4397 -0.0127  0.5668
 1889TIP3   OH227081   5.333   6.002   6.471 -0.0644 -0.0803 -0.1429
 1889TIP3    H127082   5.402   5.937   6.484 -0.4515 -0.7302 -1.2768
 1889TIP3    H227083   5.348   6.037   6.384  0.2607  1.5300  0.5138
 1890TIP3   OH227084   1.070   1.049   3.236 -0.2166  0.4514 -0.3193
 1890TIP3    H127085   1.033   1.128   3.196  0.7835  0.9433 -0.2946
 1890TIP3    H227086   1.164   1.067   3.241  0.0801 -0.9124 -0.7120
 1891TIP3   OH227087   4.427   6.221  12.303  0.1034  1.1075  0.3286
 1891TIP3    H127088   4.389   6.134  12.293 -1.8464  1.8647  0.7758
 1891TIP3    H227089   4.460   6.243  12.215 -2.4829  1.2725 -0.6786
 1892TIP3   OH227090   6.275   5.049  15.899 -0.1536  0.1163 -0.1281
 1892TIP3    H127091   6.244   5.025  15.986  1.1938 -0.0979  0.3163
 1892TIP3    H227092   6.345   5.112  15.916  0.3506 -0.1921 -1.0461
 1893TIP3   OH227093   1.842   1.029  12.799 -0.2386 -0.1326 -0.3950
 1893TIP3    H127094   1.759   1.000  12.838  0.3649 -0.2212  0.8641
 1893TIP3    H227095   1.908   1.004  12.863  0.6794  0.6975 -1.0061
 1894TIP3   OH227096   5.994   2.607   4.388 -0.0686 -0.2157  0.1686
 1894TIP3    H127097   5.980   2.673   4.456  0.6559 -0.4951  0.5974
 1894TIP3    H227098   6.087   2.614   4.367  0.1103 -1.3691  0.5099
 1895TIP3   OH227099   0.939   5.834  13.362 -0.6127  0.3598 -0.1758
 1895TIP3    H127100   0.876   5.793  13.302  0.8249 -0.4480 -1.2015
 1895TIP3    H227101   0.974   5.761  13.414 -0.6237  0.8172  0.4840
 1896TIP3   OH227102   5.867   5.499  14.823  0.1415 -0.2361 -0.0865
 1896TIP3    H127103   5.951   5.538  14.797 -0.1261  0.6841  0.4250
 1896TIP3    H227104   5.810   5.573  14.841 -0.9063 -0.8471 -0.7560
 1897TIP3   OH227105   1.575   2.335   3.748 -0.4995  0.0914  0.1608
 1897TIP3    H127106   1.507   2.291   3.697 -1.7375  0.6368  1.2862
 1897TIP3    H227107   1.570   2.295   3.834  0.7097  0.0671  0.2370
 1898TIP3   OH227108   5.967   1.358  12.733 -0.1794  0.4413 -0.0296
 1898TIP3    H127109   5.936   1.278  12.691 -0.7218  0.6071  0.0435
 1898TIP3    H227110   6.045   1.382  12.683 -0.7287  0.5564 -0.8600
 1899TIP3   OH227111   1.474   1.316   5.701  0.3627 -0.1106 -0.0136
 1899TIP3    H127112   1.489   1.324   5.795 -1.7900 -1.7647  0.5457
 1899TIP3    H227113   1.449   1.224   5.687 -2.1364  0.6855 -1.7000
 1900TIP3   OH227114   0.286   0.794   0.576 -0.4409  0.0349  0.0343
 1900TIP3    H127115   0.227   0.855   0.532 -1.8260 -1.2217  0.0565
 1900TIP3    H227116   0.344   0.850   0.628 -1.9830  1.3260  0.4697
 1901TIP3   OH227117   4.995   0.214  16.831  0.3396 -0.1562  0.1721
 1901TIP3    H127118   5.086   0.242  16.846  0.1615  0.4591  0.1362
 1901TIP3    H227119   4.971   0.255  16.748  0.4009 -1.2660 -0.4132
 1902TIP3   OH227120   3.935   3.905   0.859 -0.1502 -0.1126  0.1963
 1902TIP3    H127121   3.941   3.973   0.926 -0.7249  1.2691 -1.0828
 1902TIP3    H227122   3.983   3.830   0.896  1.5769  1.3808  1.1648
 1903TIP3   OH227123   5.210   2.296  13.451  0.3166  0.2583  0.3720
 1903TIP3    H127124   5.164   2.372  13.486 -1.0449 -0.1873 -0.3934
 1903TIP3    H227125   5.197   2.301  13.356  0.9156 -0.4863  0.2333
 1904TIP3   OH227126   2.181   0.388   2.301 -0.1465  0.2447 -0.2488
 1904TIP3    H127127   2.100   0.339   2.313  0.7711 -1.1261  0.5799
 1904TIP3    H227128   2.155   0.480   2.311 -1.1174 -0.2758  2.9972
 1905TIP3   OH227129   4.299   3.180  15.155  0.6417 -0.1304  0.4497
 1905TIP3    H127130   4.252   3.135  15.225 -0.9139  1.1381  0.2696
 1905TIP3    H227131   4.251   3.158  15.076  1.1723  0.1014  0.0579
 1906TIP3   OH227132   0.775   5.515  12.963 -0.0861 -0.0174 -1.1306
 1906TIP3    H127133   0.682   5.504  12.984 -0.6842  2.4240 -2.1270
 1906TIP3    H227134   0.783   5.487  12.872 -0.0177  0.4796 -1.2802
 1907TIP3   OH227135   0.088   4.493   1.887 -0.0655 -0.3384 -0.2366
 1907TIP3    H127136   0.046   4.547   1.954  3.0611 -1.1861  2.6917
 1907TIP3    H227137   0.026   4.422   1.872 -2.7722  2.1292 -1.6757
 1908TIP3   OH227138   3.030   6.282  14.375 -0.3067 -0.4638  0.4186
 1908TIP3    H127139   2.991   6.366  14.353  1.0673  0.1601  0.2734
 1908TIP3    H227140   2.988   6.220  14.316  0.0686  0.4570 -0.8793
 1909TIP3   OH227141   2.412   2.691   6.119  0.6728  0.1004 -0.5696
 1909TIP3    H127142   2.427   2.764   6.180  2.0539  0.6551 -1.5367
 1909TIP3    H227143   2.422   2.729   6.032 -2.3076 -0.4521 -1.2442
 1910TIP3   OH227144   4.125   6.580   1.907 -0.0760 -0.0268 -0.3045
 1910TIP3    H127145   4.132   6.496   1.862 -0.7814  0.3636 -1.2063
 1910TIP3    H227146   4.093   6.559   1.994 -1.2414 -0.6386 -0.8567
 1911TIP3   OH227147   3.643   1.163  17.153 -0.6963  0.9459 -0.0903
 1911TIP3    H127148   3.737   1.145  17.148 -0.5536  1.1205  1.4904
 1911TIP3    H227149   3.618   1.186  17.064  0.6881  0.5486 -0.6043
 1912TIP3   OH227150   2.341   0.263   1.787 -0.1190  0.5059  0.0006
 1912TIP3    H127151   2.407   0.332   1.790 -2.0916  2.4710  1.6365
 1912TIP3    H227152   2.315   0.249   1.878  0.6323 -2.9657 -0.1588
 1913TIP3   OH227153   1.214   1.750   2.336  0.4901  0.2002 -0.4280
 1913TIP3    H127154   1.198   1.732   2.243  1.9086  2.5218 -1.2012
 1913TIP3    H227155   1.291   1.697   2.358 -0.2853 -0.9224 -0.3214
 1914TIP3   OH227156   3.365   6.604  12.383 -0.0346  0.1320  0.5091
 1914TIP3    H127157   3.297   6.664  12.355 -0.2972 -0.7073 -0.7526
 1914TIP3    H227158   3.441   6.660  12.402 -0.6974  0.9596  0.7672
 1915TIP3   OH227159   3.619   4.772  12.303  0.9641  0.0893 -0.2272
 1915TIP3    H127160   3.597   4.847  12.358  3.0237 -0.1397  1.0213
 1915TIP3    H227161   3.670   4.811  12.231  0.2072  0.1229 -0.7506
 1916TIP3   OH227162   3.925   1.391  13.314  0.2529 -0.7849 -0.3789
 1916TIP3    H127163   3.865   1.390  13.388  2.0584 -0.2791  1.1633
 1916TIP3    H227164   3.998   1.335  13.342  1.9297  1.0211 -0.8774
 1917TIP3   OH227165   2.914   3.843  14.532 -0.1620 -0.1558 -0.2205
 1917TIP3    H127166   2.990   3.899  14.516  0.6007 -0.8005  0.9250
 1917TIP3    H227167   2.866   3.841  14.449 -0.2221  2.1651 -0.3034
 1918TIP3   OH227168   6.755   0.046   5.269  0.1551  1.0313  0.0863
 1918TIP3    H127169   6.771   0.141   5.264  1.1273  0.8861  0.1850
 1918TIP3    H227170   6.716   0.024   5.184  0.6863  1.3890 -0.2570
 1919TIP3   OH227171   2.586   3.837   4.351  0.4013 -0.1041  0.4676
 1919TIP3    H127172   2.575   3.905   4.418  2.5759 -1.2584  2.0791
 1919TIP3    H227173   2.627   3.883   4.278  0.2227  0.6690  0.8367
 1920TIP3   OH227174   4.964   4.406  13.156 -0.0698 -0.1755 -0.3518
 1920TIP3    H127175   4.974   4.497  13.183  0.8298 -1.3938  4.2279
 1920TIP3    H227176   4.921   4.363  13.230 -0.4571 -3.5358 -2.3095
 1921TIP3   OH227177   1.871   0.248   6.102  0.2965  0.2014  0.0778
 1921TIP3    H127178   1.931   0.302   6.154  0.8394  0.5595 -0.8918
 1921TIP3    H227179   1.785   0.265   6.140  0.7731 -0.2154  1.4051
 1922TIP3   OH227180   0.929   4.259  12.391  0.0783 -0.2464  0.0650
 1922TIP3    H127181   0.910   4.226  12.303  0.0151  1.3658 -0.5719
 1922TIP3    H227182   1.022   4.284  12.387 -0.3442  1.4067 -0.1183
 1923TIP3   OH227183   5.664   3.950  13.971 -0.2820 -0.4364 -0.2349
 1923TIP3    H127184   5.671   3.986  14.060  0.6189 -0.5679 -0.2443
 1923TIP3    H227185   5.723   3.874  13.971 -1.8628 -1.7111 -0.3286
 1924TIP3   OH227186   1.933   5.323   6.341  0.5863  0.3827 -0.4470
 1924TIP3    H127187   1.881   5.384   6.290 -2.7985 -0.5126  1.6223
 1924TIP3    H227188   1.952   5.369   6.422  0.0765 -0.4843  0.1734
 1925TIP3   OH227189   0.358   4.566  17.281 -0.0830  0.1521  0.7517
 1925TIP3    H127190   0.360   4.523  17.196  0.8070 -0.6272  1.1471
 1925TIP3    H227191   0.265   4.564  17.306 -0.9581  3.2853 -1.5546
 1926TIP3   OH227192   1.544   6.286  14.671 -0.3073 -0.4961 -0.1935
 1926TIP3    H127193   1.620   6.254  14.622  0.5731  0.3622  0.5759
 1926TIP3    H227194   1.490   6.329  14.605  0.6906  0.3440 -0.4792
 1927TIP3   OH227195   6.356   2.212   6.210 -1.0068 -0.3499  0.1719
 1927TIP3    H127196   6.447   2.180   6.210 -1.0455 -0.4682 -0.5773
 1927TIP3    H227197   6.364   2.306   6.224 -0.8902 -0.6326  2.4348
 1928TIP3   OH227198   2.124   1.499  11.506 -0.5159  0.8878  0.2707
 1928TIP3    H127199   2.105   1.454  11.588  0.3429  2.0996  1.1875
 1928TIP3    H227200   2.042   1.497  11.457 -0.7639 -0.7315  0.7167
 1929TIP3   OH227201   5.138   2.864  12.222 -0.0565 -0.0093  0.0698
 1929TIP3    H127202   5.191   2.784  12.221 -0.6431 -0.4179  0.9831
 1929TIP3    H227203   5.102   2.870  12.134  0.3197 -0.5209 -0.1254
 1930TIP3   OH227204   3.590   6.045   0.013  0.4153  0.1359  0.0871
 1930TIP3    H127205   3.592   6.138  -0.010 -2.9077  0.5819  1.0755
 1930TIP3    H227206   3.560   6.001  -0.067 -0.1372  0.2201  0.2431
 1931TIP3   OH227207   0.003   3.860   2.806 -0.1949  0.2359 -0.1167
 1931TIP3    H127208   0.006   3.833   2.715  1.6840  0.5219 -0.1785
 1931TIP3    H227209  -0.029   3.950   2.804 -1.9069 -0.3334 -0.2980
 1932TIP3   OH227210   5.819   4.407   3.635  0.0123  0.5082 -0.4548
 1932TIP3    H127211   5.828   4.337   3.571  1.8842  1.5827 -1.4702
 1932TIP3    H227212   5.725   4.419   3.645 -0.3350 -1.3396 -1.1267
 1933TIP3   OH227213   4.856   5.401   0.526  0.0790 -0.6243 -0.1023
 1933TIP3    H127214   4.854   5.323   0.471  0.1088 -2.1884  1.9903
 1933TIP3    H227215   4.808   5.376   0.605 -0.1880  1.6062  0.5185
 1934TIP3   OH227216   4.284   6.194  14.017 -0.0147 -0.1093 -0.0528
 1934TIP3    H127217   4.271   6.107  13.978  0.4448 -1.2476  2.1995
 1934TIP3    H227218   4.366   6.186  14.066 -0.3315  1.3915  0.7604
 1935TIP3   OH227219   4.931   5.369  12.742  0.5008  0.0445 -0.3592
 1935TIP3    H127220   5.022   5.337  12.741  0.8646  1.0511 -1.4380
 1935TIP3    H227221   4.879   5.293  12.714  1.2213  0.0158 -1.6732
 1936TIP3   OH227222   4.932   6.089   6.428 -0.0302 -0.0606 -0.8275
 1936TIP3    H127223   5.019   6.101   6.467  0.0594 -2.4570 -0.1621
 1936TIP3    H227224   4.928   5.997   6.405 -2.4631 -0.0553 -0.7041
 1937TIP3   OH227225   4.651   3.457   4.712  0.2182 -0.0699  0.8049
 1937TIP3    H127226   4.690   3.459   4.625  1.8063  0.5320  1.4936
 1937TIP3    H227227   4.636   3.549   4.734  1.5988 -0.0644  1.8889
 1938TIP3   OH227228   3.522   2.733  12.643 -0.0237  0.1917 -0.2664
 1938TIP3    H127229   3.584   2.802  12.666 -0.8993  1.3063 -1.1114
 1938TIP3    H227230   3.452   2.778  12.596 -2.1977 -0.7670  1.8274
 1939TIP3   OH227231   4.951   0.821  13.122  0.1671 -0.0135  0.2333
 1939TIP3    H127232   5.015   0.784  13.182  0.5459 -0.8713 -0.6680
 1939TIP3    H227233   4.902   0.884  13.175  2.3325  1.3683  0.7521
 1940TIP3   OH227234   1.890   0.727   3.254  0.2807  0.7206 -0.8139
 1940TIP3    H127235   1.858   0.745   3.342  1.9294 -0.7365  0.1540
 1940TIP3    H227236   1.985   0.728   3.262  0.4714 -0.8748 -2.2358
 1941TIP3   OH227237   3.923   4.481   5.536  0.9241 -0.1280 -0.5562
 1941TIP3    H127238   3.955   4.416   5.473 -1.9646 -1.8347 -0.4220
 1941TIP3    H227239   3.879   4.430   5.603 -0.0930  1.9031  0.4047
 1942TIP3   OH227240   2.245   5.006  17.022 -0.5091 -0.3415  0.2035
 1942TIP3    H127241   2.324   4.968  17.060  0.1302  0.8031  0.0595
 1942TIP3    H227242   2.208   5.060  17.092  1.0473  2.3333 -0.8664
 1943TIP3   OH227243   2.492   0.522   4.904 -0.6261  0.6534  0.4965
 1943TIP3    H127244   2.537   0.559   4.981 -0.0531 -1.9555  1.5199
 1943TIP3    H227245   2.532   0.436   4.893 -0.8273  0.8707 -2.6778
 1944TIP3   OH227246   0.188   0.337   0.113  0.1797  0.0869  0.0695
 1944TIP3    H127247   0.217   0.259   0.161 -1.4732 -0.3420  0.4557
 1944TIP3    H227248   0.181   0.307   0.022  0.8880  0.1943 -0.0273
 1945TIP3   OH227249   3.157   2.054  15.958 -0.2688 -0.2785  0.0525
 1945TIP3    H127250   3.244   2.018  15.942 -0.9709 -2.1084  0.2067
 1945TIP3    H227251   3.143   2.044  16.052 -0.2029  1.1109  0.2346
 1946TIP3   OH227252   2.098   1.798  14.837  0.1123  0.0031 -0.4284
 1946TIP3    H127253   2.012   1.790  14.797  0.2888 -1.8527 -0.5121
 1946TIP3    H227254   2.149   1.726  14.800  0.8135 -0.7361  1.8041
 1947TIP3   OH227255   0.043   4.154   2.790 -0.1816 -0.0341 -0.0736
 1947TIP3    H127256   0.003   4.219   2.732  1.8975  1.2542 -0.1250
 1947TIP3    H227257   0.078   4.088   2.730  0.6241  0.5203 -0.2292
 1948TIP3   OH227258   5.637   3.306  15.740 -0.0894  0.0793 -0.2297
 1948TIP3    H127259   5.591   3.223  15.732  0.9465 -0.5381  0.0467
 1948TIP3    H227260   5.722   3.284  15.778  1.4902  0.7874 -3.0558
 1949TIP3   OH227261   3.214   4.867   2.113  0.0612  0.2132 -0.1762
 1949TIP3    H127262   3.272   4.899   2.043  0.4691  0.3632  0.2241
 1949TIP3    H227263   3.152   4.939   2.127  0.1234  0.2776 -0.2283
 1950TIP3   OH227264   2.633   0.991   5.957  0.3865  0.3623 -0.6473
 1950TIP3    H127265   2.576   1.068   5.949 -0.2213  0.0369  0.2707
 1950TIP3    H227266   2.573   0.920   5.980  1.0231 -0.2454 -0.8404
 1951TIP3   OH227267   2.675   4.655   5.290  0.2465  0.1343 -0.6562
 1951TIP3    H127268   2.737   4.584   5.307  0.6132  0.3824 -0.9235
 1951TIP3    H227269   2.624   4.625   5.215 -0.8487 -0.6295  0.3546
 1952TIP3   OH227270   5.537   0.300   0.263 -0.5202  0.0719 -0.3816
 1952TIP3    H127271   5.525   0.380   0.211 -2.1649 -0.0106 -0.1675
 1952TIP3    H227272   5.588   0.328   0.339 -0.5443  0.7920 -0.6234
 1953TIP3   OH227273   6.550   5.307  16.135 -0.3329  0.1171  0.0742
 1953TIP3    H127274   6.585   5.332  16.220 -1.1845  2.1628 -0.1281
 1953TIP3    H227275   6.607   5.353  16.072 -1.7003  1.3467 -0.3232
 1954TIP3   OH227276   0.962   0.687  13.014 -0.3208 -0.6117  0.0964
 1954TIP3    H127277   0.948   0.739  13.093 -2.3646 -1.1462  0.1536
 1954TIP3    H227278   0.984   0.599  13.047 -1.5849 -0.9402  0.1167
 1955TIP3   OH227279   3.117   0.540  15.708 -0.0078 -0.3597  0.8588
 1955TIP3    H127280   3.196   0.580  15.672 -0.5791 -0.0107 -0.0251
 1955TIP3    H227281   3.101   0.464  15.653 -0.8774  0.1686  0.3637
 1956TIP3   OH227282   6.517   3.769  11.952  0.0525  0.0219 -0.2881
 1956TIP3    H127283   6.561   3.854  11.952 -0.5065  0.3674  1.5612
 1956TIP3    H227284   6.492   3.755  12.044 -3.9103 -0.0071 -1.1820
 1957TIP3   OH227285   3.665   4.841   2.357  0.1767 -1.1744  0.1284
 1957TIP3    H127286   3.596   4.906   2.371  0.2078 -0.7754 -1.3843
 1957TIP3    H227287   3.654   4.813   2.266  2.2066 -0.8552 -0.2625
 1958TIP3   OH227288   5.359   6.436   4.664  0.0230 -0.1190 -0.0828
 1958TIP3    H127289   5.279   6.480   4.635  0.2045  2.1833  2.5588
 1958TIP3    H227290   5.417   6.507   4.692  1.6860 -1.9039  1.2299
 1959TIP3   OH227291   2.950   4.705  14.186  0.1294  0.0056  0.3454
 1959TIP3    H127292   2.865   4.735  14.153 -0.3506 -1.8666 -0.2224
 1959TIP3    H227293   3.007   4.707  14.109 -0.2485 -1.6765 -0.0169
 1960TIP3   OH227294   3.841   5.404  14.150  0.0635 -0.3850 -0.5956
 1960TIP3    H127295   3.746   5.420  14.152  0.1094 -0.1513  0.2248
 1960TIP3    H227296   3.850   5.319  14.108 -0.4653 -0.1150 -1.2841
 1961TIP3   OH227297   1.308   1.447   0.872  0.0784 -0.2232 -0.3305
 1961TIP3    H127298   1.331   1.530   0.913  0.9750 -1.6664  2.3240
 1961TIP3    H227299   1.379   1.431   0.809  1.8675 -0.5466  1.6502
 1962TIP3   OH227300   3.241   1.782   1.396  0.0229  0.3184  0.3262
 1962TIP3    H127301   3.274   1.697   1.423 -0.7829 -0.2853 -0.5626
 1962TIP3    H227302   3.292   1.804   1.317 -1.0741 -0.2277 -0.5550
 1963TIP3   OH227303   2.121   0.747  13.881  0.0628  0.2122  0.4603
 1963TIP3    H127304   2.057   0.702  13.826 -2.3946  0.8590  2.5829
 1963TIP3    H227305   2.170   0.676  13.924 -0.5247 -0.3455  0.2212
 1964TIP3   OH227306   2.531   4.221   3.312 -0.0198  0.2047  0.2835
 1964TIP3    H127307   2.461   4.207   3.248 -0.0836  1.8963 -0.0666
 1964TIP3    H227308   2.595   4.152   3.293 -0.2106  0.4245 -1.3853
 1965TIP3   OH227309   4.964   5.764   0.166 -0.3868 -0.3438  0.4944
 1965TIP3    H127310   4.967   5.854   0.198  0.9960 -0.5889  1.1242
 1965TIP3    H227311   4.918   5.716   0.235 -1.7151 -0.0332 -0.1395
 1966TIP3   OH227312   5.970   1.022   3.829 -0.0875  0.4737 -0.0866
 1966TIP3    H127313   5.892   0.975   3.800  0.2203 -0.9431  1.2869
 1966TIP3    H227314   5.965   1.106   3.784 -1.5185 -0.2321 -1.3291
 1967TIP3   OH227315   5.572   5.144  12.969  0.3652  0.0256 -0.1826
 1967TIP3    H127316   5.649   5.102  12.931 -0.3644  0.6698 -2.5338
 1967TIP3    H227317   5.597   5.237  12.977 -0.4121  0.4169 -1.8375
 1968TIP3   OH227318   6.380   0.593  15.722  0.5225 -0.6162  0.1461
 1968TIP3    H127319   6.334   0.649  15.659  0.2728  0.4930  1.2808
 1968TIP3    H227320   6.429   0.654  15.777  0.8516 -1.5728  0.9331
 1969TIP3   OH227321   2.196   2.150   4.214 -0.5024  0.1411  0.2068
 1969TIP3    H127322   2.254   2.076   4.229  0.5414  1.1334  1.3321
 1969TIP3    H227323   2.189   2.157   4.118 -0.6321 -1.3791  0.0892
 1970TIP3   OH227324   5.819   3.034   5.437  0.0511  0.1478  0.4193
 1970TIP3    H127325   5.795   3.048   5.346 -0.4891 -0.8892  0.3829
 1970TIP3    H227326   5.836   2.940   5.442 -1.5481 -0.1108  1.7467
 1971TIP3   OH227327   1.918   2.173   4.350  0.2324  0.6163 -0.0738
 1971TIP3    H127328   1.877   2.090   4.372 -1.6490  0.6486 -2.9321
 1971TIP3    H227329   2.007   2.150   4.322 -0.5412 -0.6011 -1.6495
 1972TIP3   OH227330   0.553   3.264   1.473  0.2207 -0.2835 -0.0666
 1972TIP3    H127331   0.535   3.338   1.530  2.2030  0.6555 -0.5582
 1972TIP3    H227332   0.491   3.196   1.500  0.1529  0.6118  2.2072
 1973TIP3   OH227333   2.102   2.042   6.118  0.1649 -0.0972 -0.1825
 1973TIP3    H127334   2.043   1.980   6.074 -2.4333  0.8700  1.6853
 1973TIP3    H227335   2.045   2.094   6.174  2.8895  0.7654  2.0233
 1974TIP3   OH227336   5.306   3.397   2.048  0.0967 -0.2575 -0.8251
 1974TIP3    H127337   5.265   3.320   2.087  0.2310  1.0378  2.1298
 1974TIP3    H227338   5.233   3.456   2.030  0.3048  1.5914  3.3892
 1975TIP3   OH227339   3.371   5.864   0.294  0.4094  0.1215 -0.0199
 1975TIP3    H127340   3.349   5.919   0.219  0.8287  1.5589  0.8848
 1975TIP3    H227341   3.316   5.786   0.283 -1.3492  1.3735 -0.5408
 1976TIP3   OH227342   3.748   4.915   5.196  0.3094  0.2937  0.1260
 1976TIP3    H127343   3.713   4.830   5.170  0.4076  0.1749  0.3797
 1976TIP3    H227344   3.794   4.947   5.118  1.1440 -0.3444  0.3406
 1977TIP3   OH227345   2.813   5.653   5.060  0.5595 -0.0576 -0.1663
 1977TIP3    H127346   2.765   5.723   5.103 -1.9466 -1.1642 -0.9519
 1977TIP3    H227347   2.882   5.629   5.122 -0.3865  1.0886  1.4035
 1978TIP3   OH227348   4.228   2.091   0.739  0.3437 -0.1055  0.1711
 1978TIP3    H127349   4.318   2.125   0.739 -0.0155  1.0125  2.3385
 1978TIP3    H227350   4.176   2.162   0.701  0.1498  0.0465  0.7095
 1979TIP3   OH227351   5.160   1.950   6.275  0.2442  0.6739 -0.3406
 1979TIP3    H127352   5.232   2.001   6.311  1.5827 -1.1002 -0.3511
 1979TIP3    H227353   5.108   1.925   6.351  2.9793 -2.9421  0.6513
 1980TIP3   OH227354   6.707   2.773   2.370 -0.2068 -0.1748  0.0047
 1980TIP3    H127355   6.632   2.824   2.339 -0.6979 -0.2402  1.0468
 1980TIP3    H227356   6.737   2.725   2.293  0.6212  2.0715 -1.1478
 1981TIP3   OH227357   0.757   3.432   4.473 -0.2801 -0.2467  0.7049
 1981TIP3    H127358   0.752   3.496   4.544 -0.3648 -0.1396  0.6029
 1981TIP3    H227359   0.768   3.348   4.517 -1.3052 -0.3053  0.8900
 1982TIP3   OH227360   5.350   6.248   2.911 -0.2153  0.7124 -0.0523
 1982TIP3    H127361   5.326   6.231   2.820 -0.1807 -0.4502  0.1369
 1982TIP3    H227362   5.426   6.305   2.906  0.3481 -0.0901 -0.7789
 1983TIP3   OH227363   5.689   4.745   5.149 -0.1699 -0.0254 -0.4950
 1983TIP3    H127364   5.634   4.726   5.073  0.4570  0.5653 -1.1046
 1983TIP3    H227365   5.707   4.838   5.143 -1.1315  0.2874  1.0745
 1984TIP3   OH227366   0.577   2.828   3.781  0.0094 -0.1628  0.1549
 1984TIP3    H127367   0.646   2.860   3.723  3.0687 -3.2573  1.7565
 1984TIP3    H227368   0.556   2.740   3.749 -0.1551 -0.8885  2.1278
 1985TIP3   OH227369   6.371   2.812  17.187  0.0289  0.2184 -0.4894
 1985TIP3    H127370   6.413   2.894  17.213 -0.1002  0.0633  0.2163
 1985TIP3    H227371   6.346   2.770  17.269  0.8073 -0.9071 -0.8120
 1986TIP3   OH227372   1.777   3.353   1.606 -0.7168  0.2313 -0.0365
 1986TIP3    H127373   1.836   3.340   1.680  0.3561  0.3653 -0.8516
 1986TIP3    H227374   1.819   3.309   1.533 -1.2368  0.9935 -0.8253
 1987TIP3   OH227375   6.561   1.483   0.207  0.2507 -0.3762  0.0924
 1987TIP3    H127376   6.549   1.533   0.127 -2.2861 -0.0388  0.6128
 1987TIP3    H227377   6.549   1.392   0.181 -0.5252 -0.2695  0.0579
 1988TIP3   OH227378   3.227   4.357  10.611  0.0463  0.0086  0.0165
 1988TIP3    H127379   3.266   4.352  10.524  2.3670 -0.7029  1.0100
 1988TIP3    H227380   3.202   4.448  10.622 -1.7597 -0.1700 -1.9269
 1989TIP3   OH227381   2.804   5.510   0.059 -0.0241 -0.1333  0.1078
 1989TIP3    H127382   2.790   5.470   0.145 -0.1567  1.2867  0.7715
 1989TIP3    H227383   2.840   5.597   0.078  1.0572 -0.2292 -1.3135
 1990TIP3   OH227384   6.558   4.635  15.615 -0.1910  0.0525 -0.0929
 1990TIP3    H127385   6.603   4.671  15.692 -2.1631  1.2484  0.5936
 1990TIP3    H227386   6.626   4.624  15.550  1.0365  2.2179  0.7208
 1991TIP3   OH227387   0.159   6.418  12.045  0.1046  0.5596  0.0429
 1991TIP3    H127388   0.216   6.404  12.121  1.7286  0.3796 -1.1616
 1991TIP3    H227389   0.207   6.380  11.971 -2.2802 -0.9793 -0.8231
 1992TIP3   OH227390   3.259   1.742   5.725 -0.6020 -0.3080 -0.7220
 1992TIP3    H127391   3.238   1.754   5.632 -2.4388 -1.5705 -0.5036
 1992TIP3    H227392   3.246   1.829   5.763  0.1935  0.2337 -1.6250
 1993TIP3   OH227393   1.373   0.744   0.056  0.4958 -0.3909 -0.0381
 1993TIP3    H127394   1.356   0.650   0.052  2.1841 -0.7701  0.8339
 1993TIP3    H227395   1.469   0.751   0.059  0.4197  1.3879 -0.6983
 1994TIP3   OH227396   2.293   3.918  14.794 -0.0805  0.2302 -0.1856
 1994TIP3    H127397   2.316   4.010  14.787  0.0250  0.1456 -1.0717
 1994TIP3    H227398   2.214   3.917  14.847  1.1665  0.6285  1.7665
 1995TIP3   OH227399   4.558   1.359   2.456  0.2675 -0.5245 -0.2207
 1995TIP3    H127400   4.525   1.380   2.369  1.2286 -0.9267 -0.6833
 1995TIP3    H227401   4.598   1.440   2.487  0.6817 -0.6265 -0.4956
 1996TIP3   OH227402   2.548   4.493   3.348 -0.1627 -0.3790  0.0341
 1996TIP3    H127403   2.543   4.398   3.337 -0.0129 -0.3252 -0.5653
 1996TIP3    H227404   2.593   4.506   3.431  0.3866 -0.8324 -0.1891
 1997TIP3   OH227405   4.338   3.838   3.679 -0.6746  0.4338  0.1342
 1997TIP3    H127406   4.282   3.896   3.628 -0.3889  1.9155  1.4194
 1997TIP3    H227407   4.344   3.879   3.765  2.8228  0.6904 -0.0771
 1998TIP3   OH227408   4.778   4.125   0.969 -0.2221  0.4626  0.1121
 1998TIP3    H127409   4.740   4.091   0.888 -0.3054  0.5029  0.1341
 1998TIP3    H227410   4.705   4.167   1.014 -0.2635  0.0882  0.3967
 1999TIP3   OH227411   6.760   4.688  15.773 -0.1938  0.3635  0.8702
 1999TIP3    H127412   6.811   4.751  15.824  0.3542  0.4547  0.2148
 1999TIP3    H227413   6.811   4.608  15.776 -0.1105  0.3992  0.3764
 2000TIP3   OH227414   6.217   1.329   5.349 -0.0518  0.2495 -0.4757
 2000TIP3    H127415   6.186   1.419   5.351  2.0192  1.0029  1.0809
 2000TIP3    H227416   6.280   1.323   5.421 -1.0345 -2.8045  0.3021
 2001TIP3   OH227417   3.989   3.022  12.956  0.5012 -0.5901 -0.2545
 2001TIP3    H127418   4.002   3.032  13.050  0.3438 -1.4384 -0.1348
 2001TIP3    H227419   3.936   3.098  12.931  0.1210 -0.6234  0.4305
 2002TIP3   OH227420   6.716   2.303  14.139  0.4867 -0.1824 -0.2677
 2002TIP3    H127421   6.803   2.263  14.140  0.5155 -0.1388  1.1334
 2002TIP3    H227422   6.722   2.374  14.202 -0.6671 -0.4021  0.1089
 2003TIP3   OH227423   1.854   5.018   4.274  0.3891  0.0315  0.5144
 2003TIP3    H127424   1.806   5.045   4.196  0.1546 -0.4643  0.4878
 2003TIP3    H227425   1.877   4.927   4.259 -1.5984 -0.7914  1.9534
 2004TIP3   OH227426   3.915   3.355  15.189 -0.3596  0.1242  0.0126
 2004TIP3    H127427   3.980   3.338  15.256 -1.4232  0.5654  1.1944
 2004TIP3    H227428   3.948   3.431  15.141  0.0892  0.2049  0.4464
 2005TIP3   OH227429   0.962   5.029   4.562  0.0969 -0.6180 -0.7231
 2005TIP3    H127430   1.051   5.057   4.583 -0.0685 -0.9497  0.4588
 2005TIP3    H227431   0.911   5.047   4.641 -1.2986  1.2303 -1.9499
 2006TIP3   OH227432   6.148   3.803  16.497  0.2856  0.2457 -0.6528
 2006TIP3    H127433   6.119   3.888  16.463 -3.2998 -0.9135 -0.9401
 2006TIP3    H227434   6.114   3.739  16.433 -1.3129 -1.6117  1.8601
 2007TIP3   OH227435   4.348   1.395   6.042  0.0449 -0.0188 -0.1279
 2007TIP3    H127436   4.261   1.435   6.045  0.9967  2.1119  1.4107
 2007TIP3    H227437   4.385   1.412   6.129  2.1214 -0.5885 -0.8514
 2008TIP3   OH227438   4.534   6.368  15.521 -0.1854 -0.4933 -0.4524
 2008TIP3    H127439   4.618   6.327  15.501  0.0958 -0.1457 -0.0032
 2008TIP3    H227440   4.518   6.346  15.613 -0.0292  0.4071 -0.2052
 2009TIP3   OH227441   2.963   1.269   2.372 -0.1015 -0.2749  0.7296
 2009TIP3    H127442   2.941   1.338   2.309 -0.8802 -0.7031  0.5306
 2009TIP3    H227443   2.918   1.191   2.340  0.8564 -0.9161  0.8969
 2010TIP3   OH227444   2.884   3.091  15.625  0.0792 -0.0435  0.4761
 2010TIP3    H127445   2.814   3.093  15.690  2.2702  1.2857  2.9621
 2010TIP3    H227446   2.941   3.020  15.653 -0.6598 -1.7993 -2.1133
 2011TIP3   OH227447   6.441   4.487  12.963 -0.1162  0.0735 -0.3967
 2011TIP3    H127448   6.489   4.565  12.993 -0.2729  0.1877 -0.4364
 2011TIP3    H227449   6.366   4.523  12.915 -1.9105  0.0164  2.1579
 2012TIP3   OH227450   4.947   4.910   1.425  0.1890  0.0614 -0.8755
 2012TIP3    H127451   4.918   4.819   1.420 -0.0095  0.1563 -1.5181
 2012TIP3    H227452   5.032   4.910   1.381 -0.4551  0.4484 -2.1562
 2013TIP3   OH227453   6.358   1.178  11.571  0.7228 -0.2506 -0.1334
 2013TIP3    H127454   6.394   1.187  11.483  1.8694 -1.1759  0.2133
 2013TIP3    H227455   6.432   1.148  11.624 -0.5710 -2.3498  0.5902
 2014TIP3   OH227456   0.954   2.847  15.785  0.2716  0.3652  0.4364
 2014TIP3    H127457   0.977   2.767  15.738 -0.7319  0.6459 -0.5684
 2014TIP3    H227458   0.887   2.821  15.848 -0.1588  0.4322  0.0106
 2015TIP3   OH227459   2.185   3.860  16.403 -0.0588  0.0324  0.1426
 2015TIP3    H127460   2.198   3.914  16.325  0.7098  1.2796  1.1032
 2015TIP3    H227461   2.194   3.770  16.371  2.3135  0.5405 -0.8903
 2016TIP3   OH227462   5.042   0.480  11.711  0.5025 -0.5765  0.1699
 2016TIP3    H127463   5.049   0.467  11.616 -0.8267 -3.0078  0.3095
 2016TIP3    H227464   5.105   0.418  11.748 -0.4640 -1.1614  0.8727
 2017TIP3   OH227465   0.539   5.363  14.659  0.0654  0.2209 -0.2455
 2017TIP3    H127466   0.497   5.281  14.686  1.0528 -0.0117  0.6805
 2017TIP3    H227467   0.488   5.394  14.585 -2.1513  0.3012  1.2167
 2018TIP3   OH227468   3.077   3.384  12.942  0.2835 -0.2083  0.5862
 2018TIP3    H127469   3.126   3.307  12.913  1.2616  0.0509  1.4535
 2018TIP3    H227470   3.132   3.458  12.918  0.0515  0.1286  1.0590
 2019TIP3   OH227471   4.123   6.026   5.097 -0.0432  0.1605  0.0828
 2019TIP3    H127472   4.123   5.940   5.055 -0.5810 -1.5616  3.2821
 2019TIP3    H227473   4.215   6.040   5.121  0.1478  0.8232 -0.9622
 2020TIP3   OH227474   6.362   6.175  10.958 -0.2170 -0.7028  0.4666
 2020TIP3    H127475   6.351   6.251  10.902 -0.4443 -0.3031  1.0512
 2020TIP3    H227476   6.300   6.110  10.923 -0.7100 -0.2859  0.5567
 2021TIP3   OH227477   6.668   6.090  15.087  0.0825 -0.4862  0.5864
 2021TIP3    H127478   6.683   6.098  15.181 -0.4754 -0.5741  0.6881
 2021TIP3    H227479   6.749   6.052  15.053  1.0923  1.4043  0.7293
 2022TIP3   OH227480   3.239   6.132   0.842 -0.2572 -0.3541 -0.2750
 2022TIP3    H127481   3.249   6.055   0.899 -1.4632 -0.3611 -0.0471
 2022TIP3    H227482   3.322   6.136   0.793 -0.6006 -2.5308 -1.1765
 2023TIP3   OH227483   1.175   6.080  16.292 -0.7460 -0.1452 -0.1607
 2023TIP3    H127484   1.082   6.081  16.268 -0.7637  1.4971 -0.1789
 2023TIP3    H227485   1.184   6.006  16.351 -1.9770 -0.5961 -0.5063
 2024TIP3   OH227486   3.496   3.726  17.372  0.1145 -0.0309  0.2823
 2024TIP3    H127487   3.411   3.759  17.343 -0.3091  0.5902  2.0988
 2024TIP3    H227488   3.497   3.635  17.343 -1.1353 -0.0315  0.1564
 2025TIP3   OH227489   4.244   5.093  16.268 -0.4510  0.8087 -0.0359
 2025TIP3    H127490   4.304   5.046  16.210 -0.9889  0.2370 -0.1476
 2025TIP3    H227491   4.272   5.184  16.263  0.9989  0.4270  0.6486
 2026TIP3   OH227492   1.663   0.913  14.271 -0.1786 -0.4292  0.2062
 2026TIP3    H127493   1.686   0.918  14.178 -0.4580  0.5488  0.1818
 2026TIP3    H227494   1.582   0.863  14.273 -0.4812  0.0388 -0.1403
 2027TIP3   OH227495   2.663   1.997   2.148  0.3798  0.1788 -0.2501
 2027TIP3    H127496   2.588   2.051   2.123 -0.4261 -0.3825  0.9043
 2027TIP3    H227497   2.636   1.907   2.128  1.0568  0.0364 -0.5640
 2028TIP3   OH227498   0.931   2.106  12.474 -0.7094  0.3034 -0.1425
 2028TIP3    H127499   0.983   2.185  12.460 -1.2602  0.6707 -0.1527
 2028TIP3    H227500   0.988   2.035  12.446 -0.4189  0.7421 -0.6846
 2029TIP3   OH227501   2.591   6.234  16.893  0.2255  0.3115  0.1955
 2029TIP3    H127502   2.619   6.143  16.890 -2.7602 -0.9330  3.3655
 2029TIP3    H227503   2.628   6.268  16.974 -0.2324  1.3426 -0.0083
 2030TIP3   OH227504   1.835   1.874  11.763  0.9989 -0.1894  0.4717
 2030TIP3    H127505   1.762   1.821  11.797  0.3227 -0.5636 -1.4430
 2030TIP3    H227506   1.851   1.839  11.676  2.4403  0.9365  0.2544
 2031TIP3   OH227507   6.351   4.760   4.446  0.3230  0.0932  0.3224
 2031TIP3    H127508   6.346   4.671   4.479 -0.2397 -0.2108 -0.5591
 2031TIP3    H227509   6.437   4.792   4.476  0.8886 -1.0272 -0.0556
 2032TIP3   OH227510   0.169   4.898   6.057 -0.1706  0.1857 -0.2814
 2032TIP3    H127511   0.182   4.843   6.134 -0.6937 -2.4139 -1.8989
 2032TIP3    H227512   0.177   4.987   6.089 -1.5751 -0.7227  3.0040
 2033TIP3   OH227513   2.565   0.398   1.860 -0.3290 -0.4905 -0.1386
 2033TIP3    H127514   2.621   0.476   1.860 -0.3592 -0.3626  2.3344
 2033TIP3    H227515   2.619   0.330   1.900 -1.2423 -0.9304  0.3865
 2034TIP3   OH227516   2.355   4.474   5.915 -0.4933 -0.1651  0.0930
 2034TIP3    H127517   2.357   4.423   5.834  0.2726  2.2886 -1.5490
 2034TIP3    H227518   2.321   4.413   5.981 -0.6267 -2.4258 -1.9216
 2035TIP3   OH227519   2.123   1.645  15.812 -0.1909 -0.0343  0.5277
 2035TIP3    H127520   2.031   1.618  15.810 -0.2717  0.2686 -0.6222
 2035TIP3    H227521   2.119   1.739  15.830 -0.1098  0.0007  0.3608
 2036TIP3   OH227522   6.649   5.215  15.753  0.3384  0.2617 -0.4053
 2036TIP3    H127523   6.653   5.307  15.779 -0.4581  0.1359  0.1834
 2036TIP3    H227524   6.704   5.210  15.674  2.3598  0.7726  0.8839
 2037TIP3   OH227525   5.362   4.687  12.846 -0.0457  0.5765 -0.1937
 2037TIP3    H127526   5.319   4.768  12.817 -0.0597  1.0011  0.9514
 2037TIP3    H227527   5.331   4.675  12.936 -0.2668 -0.8744 -0.4484
 2038TIP3   OH227528   5.045   3.936  14.234  0.1211  0.0127  0.6118
 2038TIP3    H127529   4.965   3.910  14.188  0.7475 -2.8076  0.9036
 2038TIP3    H227530   5.024   3.927  14.327  0.4000  0.5967  0.7381
 2039TIP3   OH227531   1.576   0.906  10.506 -0.5235 -0.0051  0.0123
 2039TIP3    H127532   1.632   0.982  10.495  0.6172 -0.8830 -0.4167
 2039TIP3    H227533   1.601   0.847  10.435  0.3201 -1.7802  1.6968
 2040TIP3   OH227534   3.662   2.567  12.390 -0.4998  0.6147 -0.3022
 2040TIP3    H127535   3.592   2.569  12.324 -1.9137  0.4028  1.1148
 2040TIP3    H227536   3.665   2.476  12.419  1.0833  0.4067 -1.0199
 2041TIP3   OH227537   1.067   0.174  16.665  0.2679 -0.0174  0.0850
 2041TIP3    H127538   1.053   0.131  16.581 -3.8846 -0.1006  0.5850
 2041TIP3    H227539   1.026   0.115  16.729 -1.3292  2.3420  1.4113
 2042TIP3   OH227540   6.350   0.167   3.869 -0.1203  0.1772  0.2547
 2042TIP3    H127541   6.331   0.231   3.939 -3.0158 -0.9928  0.6713
 2042TIP3    H227542   6.431   0.125   3.897  0.5575  2.0021  1.1917
 2043TIP3   OH227543   2.138   1.367   0.014  0.2679  0.2534 -0.1701
 2043TIP3    H127544   2.060   1.363   0.069 -0.2166  1.6844 -0.7086
 2043TIP3    H227545   2.174   1.454   0.030  2.0521 -0.5279  0.4124
 2044TIP3   OH227546   4.662   5.816  16.523  0.1100 -0.2177 -0.2138
 2044TIP3    H127547   4.591   5.878  16.510 -0.4252 -1.0853 -1.6547
 2044TIP3    H227548   4.734   5.850  16.471  0.5218  0.2696  0.6544
 2045TIP3   OH227549   0.336   5.518   3.910  0.3066 -0.1545 -0.1753
 2045TIP3    H127550   0.361   5.556   3.994 -3.2333  1.2496  0.3892
 2045TIP3    H227551   0.337   5.591   3.849 -0.2799 -0.4801 -0.5875
 2046TIP3   OH227552   5.495   5.163  16.809 -0.1477  0.3012  0.1694
 2046TIP3    H127553   5.496   5.235  16.872  1.6481 -1.0341  1.8227
 2046TIP3    H227554   5.420   5.110  16.834  1.2693 -0.9178  2.2013
 2047TIP3   OH227555   2.727   1.117   5.658  0.4358  0.2326  0.2554
 2047TIP3    H127556   2.638   1.119   5.692  0.2801 -0.8735 -0.0308
 2047TIP3    H227557   2.731   1.188   5.594 -0.7433 -0.6813 -0.8866
 2048TIP3   OH227558   6.152   0.967   5.065  0.5561 -0.1436 -0.1182
 2048TIP3    H127559   6.120   0.948   5.154  3.8190  0.7320  1.3839
 2048TIP3    H227560   6.182   1.058   5.070 -0.4983  0.4118 -2.6232
 2049TIP3   OH227561   6.469   5.431   5.021 -0.2355  0.2297  0.2554
 2049TIP3    H127562   6.424   5.375   5.084  0.6838 -1.9817 -0.9550
 2049TIP3    H227563   6.560   5.431   5.049 -0.2502  1.3709  0.3738
 2050TIP3   OH227564   4.800   4.910   0.413  0.2290 -0.2371  0.3175
 2050TIP3    H127565   4.743   4.881   0.484 -0.7714  1.8184  0.4431
 2050TIP3    H227566   4.813   4.833   0.359 -1.1780 -1.2081  1.3007
 2051TIP3   OH227567   5.204   1.087  12.134 -0.6152 -0.0254  0.0124
 2051TIP3    H127568   5.292   1.058  12.111 -0.6979  0.1353 -0.5160
 2051TIP3    H227569   5.146   1.025  12.090 -0.7877  0.7312 -0.8526
 2052TIP3   OH227570   5.934   6.117  15.580 -0.1295  0.2123 -0.4357
 2052TIP3    H127571   5.919   6.059  15.505  1.4225  0.0699 -0.6633
 2052TIP3    H227572   5.870   6.088  15.645  0.5239 -1.7011 -0.5873
 2053TIP3   OH227573   5.891   3.479   5.447  0.1317  0.4252 -0.2759
 2053TIP3    H127574   5.850   3.525   5.374  0.5511 -0.3052 -0.9786
 2053TIP3    H227575   5.856   3.391   5.444  0.4730  0.2696  0.1415
 2054TIP3   OH227576   1.019   0.975   1.325 -0.3965 -0.2631  0.3705
 2054TIP3    H127577   1.105   1.009   1.303 -0.8842  1.1556  0.5961
 2054TIP3    H227578   0.981   0.949   1.241  0.8710 -2.5432  0.4115
 2055TIP3   OH227579   1.072   4.663   6.123 -0.5716 -0.5969 -0.0605
 2055TIP3    H127580   0.994   4.617   6.092 -1.0027  0.1846 -0.1762
 2055TIP3    H227581   1.065   4.662   6.218 -0.4120 -1.0537 -0.0553
 2056TIP3   OH227582   5.637   1.068   0.071 -0.0769 -0.3752 -0.5630
 2056TIP3    H127583   5.631   1.110  -0.015  0.5725 -1.1456 -0.9962
 2056TIP3    H227584   5.669   0.980   0.053 -1.2893 -1.0292  0.3542
 2057TIP3   OH227585   1.162   0.460   3.702  0.4121  0.1730 -0.5011
 2057TIP3    H127586   1.252   0.458   3.672  0.7771  0.9285  0.4617
 2057TIP3    H227587   1.133   0.369   3.699  1.1580 -0.0561 -0.9561
 2058TIP3   OH227588   0.882   4.157   5.085 -0.4157 -0.0563 -0.0646
 2058TIP3    H127589   0.861   4.078   5.035  0.8027 -0.0045 -0.6938
 2058TIP3    H227590   0.880   4.228   5.020 -2.4050  0.6139  0.6560
 2059TIP3   OH227591   2.161   2.695  11.371  0.2636 -0.0592  0.1101
 2059TIP3    H127592   2.237   2.686  11.314 -0.1053 -2.0073 -0.1302
 2059TIP3    H227593   2.106   2.760  11.327  0.8799 -0.0863 -0.7242
 2060TIP3   OH227594   0.055   2.327  14.524  0.4279 -0.1484  0.4530
 2060TIP3    H127595   0.054   2.378  14.605 -1.5571  0.4798  0.0871
 2060TIP3    H227596   0.002   2.378  14.463  1.0533 -1.1021 -0.9323
 2061TIP3   OH227597   1.604   2.595  15.918 -0.0609  0.1958 -0.0815
 2061TIP3    H127598   1.576   2.587  15.827 -1.0802 -1.1095  0.3119
 2061TIP3    H227599   1.544   2.539  15.966 -0.4765  1.9950  1.6105
 2062TIP3   OH227600   2.889   2.552   3.395 -0.1296  0.2130 -0.4748
 2062TIP3    H127601   2.878   2.463   3.361  0.7783 -0.3026  0.5361
 2062TIP3    H227602   2.800   2.578   3.421 -0.1721 -1.0444  0.7467
 2063TIP3   OH227603   6.510   0.180  11.141 -0.0559 -0.4782 -0.2891
 2063TIP3    H127604   6.528   0.087  11.128  0.8151 -0.5059  0.8764
 2063TIP3    H227605   6.493   0.187  11.235  1.3322  0.7391 -0.0932
 2064TIP3   OH227606   0.289   5.364  17.056  0.5667  0.5637  0.2039
 2064TIP3    H127607   0.335   5.284  17.079  1.0935  1.3321  1.9757
 2064TIP3    H227608   0.278   5.359  16.961 -0.0809 -1.9417  0.3324
 2065TIP3   OH227609   5.432   5.291   1.071 -0.2142 -1.0418 -0.1320
 2065TIP3    H127610   5.387   5.328   1.147  1.8908 -0.2068  0.7738
 2065TIP3    H227611   5.364   5.286   1.004 -1.3378  1.7314  0.6311
 2066TIP3   OH227612   4.510   5.816  13.080 -0.0928 -0.5702 -0.0838
 2066TIP3    H127613   4.561   5.747  13.123 -2.2720 -1.4046  1.2805
 2066TIP3    H227614   4.467   5.863  13.151  1.2412  2.2461 -0.9836
 2067TIP3   OH227615   5.488   5.444   4.657 -0.1046  0.5203 -0.1967
 2067TIP3    H127616   5.482   5.427   4.563 -0.0462  0.6227 -0.2196
 2067TIP3    H227617   5.473   5.539   4.665  0.4118  0.6014 -0.1516
 2068TIP3   OH227618   1.145   2.546   1.753  0.7315 -0.1464 -0.7303
 2068TIP3    H127619   1.192   2.540   1.836 -2.5833  3.2639  1.7288
 2068TIP3    H227620   1.120   2.456   1.732  0.5743 -1.0092  2.7064
 2069TIP3   OH227621   1.885   1.235  13.607  0.2055 -0.1083  0.0525
 2069TIP3    H127622   1.883   1.330  13.619 -1.2246 -0.3133  1.8910
 2069TIP3    H227623   1.936   1.202  13.681  2.0241 -0.7330 -1.3922
 2070TIP3   OH227624   0.775   5.724  15.997 -0.6919 -0.5613  0.0197
 2070TIP3    H127625   0.726   5.669  16.058  1.9293 -0.4488  2.4531
 2070TIP3    H227626   0.835   5.663  15.953  0.9183 -0.0052  1.3472
 2071TIP3   OH227627   6.552   2.890   2.679  0.2659  0.0319 -0.3626
 2071TIP3    H127628   6.596   2.960   2.728  0.0166 -0.4703  0.6204
 2071TIP3    H227629   6.622   2.827   2.659  0.5982  0.8062 -1.7482
 2072TIP3   OH227630   5.845   5.515   5.660 -0.0655 -0.0964 -0.0285
 2072TIP3    H127631   5.794   5.444   5.699 -0.7392 -0.1627 -1.0087
 2072TIP3    H227632   5.872   5.481   5.575 -0.9624  1.0489 -0.7987
 2073TIP3   OH227633   5.827   2.752  15.565  0.3968 -0.0409  0.7130
 2073TIP3    H127634   5.752   2.789  15.611  0.1827  1.3032 -0.6430
 2073TIP3    H227635   5.895   2.820  15.569 -0.0303  0.6668 -1.8999
 2074TIP3   OH227636   3.655   0.226   5.799  0.4393  0.0663 -0.0290
 2074TIP3    H127637   3.728   0.268   5.844  1.1343  0.5843 -1.5622
 2074TIP3    H227638   3.582   0.235   5.859  1.2714  0.9036  0.9106
 2075TIP3   OH227639   2.326   0.854   4.880 -0.3938  0.1767 -0.5177
 2075TIP3    H127640   2.241   0.857   4.835 -0.8706 -1.5126  0.1765
 2075TIP3    H227641   2.304   0.846   4.973  0.5501  0.9434 -0.2120
 2076TIP3   OH227642   2.882   0.713  12.504  0.1496 -0.1282  0.6042
 2076TIP3    H127643   2.936   0.641  12.536  3.2506  0.8383 -1.7891
 2076TIP3    H227644   2.904   0.718  12.410 -0.6386  3.2679  0.4821
 2077TIP3   OH227645   4.866   0.177  13.419  0.5256  0.0853  0.2791
 2077TIP3    H127646   4.839   0.195  13.510 -1.4777 -2.5350  0.3205
 2077TIP3    H227647   4.961   0.171  13.423  0.5703  1.0585  1.9679
 2078TIP3   OH227648   2.231   2.600  15.487 -0.4918 -0.0382  0.3548
 2078TIP3    H127649   2.276   2.590  15.572 -1.8611  0.0419  1.1153
 2078TIP3    H227650   2.176   2.523  15.480 -2.2052  1.1040  0.6969
 2079TIP3   OH227651   1.034   5.740   5.711  0.3212  0.5939 -0.0189
 2079TIP3    H127652   0.971   5.668   5.724  1.3464  0.0365  2.5791
 2079TIP3    H227653   0.980   5.818   5.703 -0.7891 -0.2943 -1.8621
 2080TIP3   OH227654   5.513   3.920  16.544  0.7429 -0.0524 -0.0749
 2080TIP3    H127655   5.423   3.889  16.555  0.4411  1.1078  1.1053
 2080TIP3    H227656   5.509   3.979  16.469  0.0825  1.3530  1.0038
 2081TIP3   OH227657   6.418   2.339   4.192 -0.1121  0.4608 -0.2402
 2081TIP3    H127658   6.406   2.330   4.097  0.8901 -0.5753 -0.2941
 2081TIP3    H227659   6.506   2.303   4.208 -0.8535 -0.7868  1.2768
 2082TIP3   OH227660   5.807   0.583  16.083 -0.0477  0.8444  0.1612
 2082TIP3    H127661   5.832   0.673  16.061  1.5677  0.0264 -1.6037
 2082TIP3    H227662   5.886   0.544  16.120 -0.2191 -0.3084 -0.6429
 2083TIP3   OH227663   3.648   6.671  16.712 -0.0589 -0.1699  0.1726
 2083TIP3    H127664   3.579   6.605  16.717  0.1552 -0.4370 -0.3665
 2083TIP3    H227665   3.717   6.631  16.658 -0.1792  0.6973 -0.6580
 2084TIP3   OH227666   5.656   1.862   4.082 -0.1362 -0.1061  0.0132
 2084TIP3    H127667   5.608   1.942   4.106 -0.3409 -0.4635  0.8338
 2084TIP3    H227668   5.743   1.893   4.057 -0.5217  0.4694 -0.6429
 2085TIP3   OH227669   4.475   5.639  16.760 -0.1760 -0.0325  0.1080
 2085TIP3    H127670   4.391   5.683  16.770 -0.0915  0.2972 -0.5783
 2085TIP3    H227671   4.459   5.571  16.694 -0.6342 -1.9107  2.0587
 2086TIP3   OH227672   5.278   4.238  14.707 -0.4273  0.7225 -0.3125
 2086TIP3    H127673   5.215   4.305  14.680 -0.2862  2.1674  2.5614
 2086TIP3    H227674   5.363   4.283  14.705 -0.2244  0.4181  0.9151
 2087TIP3   OH227675   5.475   4.259  15.888  0.2628 -0.3554 -0.0286
 2087TIP3    H127676   5.490   4.166  15.872 -0.1396 -0.2629 -1.0516
 2087TIP3    H227677   5.460   4.296  15.801 -0.9901  0.4218  0.4828
 2088TIP3   OH227678   6.183   3.048  15.170 -0.2970  0.0943 -0.8742
 2088TIP3    H127679   6.119   2.977  15.171  0.4067 -0.5527 -0.5868
 2088TIP3    H227680   6.142   3.119  15.219 -0.5240 -0.5637 -0.0943
 2089TIP3   OH227681   2.319   0.785  16.653 -0.3724 -0.0917  0.1119
 2089TIP3    H127682   2.308   0.701  16.697  0.6644  0.6089  1.7882
 2089TIP3    H227683   2.371   0.765  16.575  0.1305 -0.9466  0.6551
 2090TIP3   OH227684   2.167   5.757  15.417  0.0952  0.2901 -0.3305
 2090TIP3    H127685   2.224   5.691  15.456  0.2640  0.5453 -0.1436
 2090TIP3    H227686   2.139   5.811  15.491 -0.7857 -0.1311 -0.3509
 2091TIP3   OH227687   2.544   2.412  16.034  0.2339  0.1559 -0.0783
 2091TIP3    H127688   2.591   2.467  15.971  0.2331  0.7457  0.4255
 2091TIP3    H227689   2.483   2.361  15.981 -0.5124  1.4105 -0.4400
 2092TIP3   OH227690   0.138   0.716  14.564  0.2712 -0.0031  0.0319
 2092TIP3    H127691   0.071   0.759  14.511 -0.0997 -0.6100 -0.0002
 2092TIP3    H227692   0.136   0.763  14.647  1.9951  2.0367 -0.9992
 2093TIP3   OH227693   6.078   0.608   0.565 -0.5254 -0.0570 -0.0111
 2093TIP3    H127694   5.998   0.595   0.515 -1.0881 -0.5480  0.9746
 2093TIP3    H227695   6.142   0.638   0.501 -1.0362 -1.2766 -1.1340
 2094TIP3   OH227696   1.586   2.285   5.613  0.2619  0.1004  0.2830
 2094TIP3    H127697   1.501   2.242   5.603  1.2233 -1.8349  0.0840
 2094TIP3    H227698   1.636   2.259   5.536  0.6501  2.2615 -0.2678
 2095TIP3   OH227699   1.007   4.297   5.989  0.4818 -0.5044  0.3161
 2095TIP3    H127700   1.055   4.229   5.942  3.2738  0.2648  1.8588
 2095TIP3    H227701   1.040   4.380   5.953 -1.7996  0.1352 -0.4995
 2096TIP3   OH227702   4.454   1.057   1.532 -0.2271 -0.2093  0.4310
 2096TIP3    H127703   4.523   1.112   1.568  0.0659 -1.2370  1.4986
 2096TIP3    H227704   4.496   1.009   1.461 -0.1934  0.1436  0.2125
 2097TIP3   OH227705   0.857   3.424   0.838 -0.0020  0.2771  0.0674
 2097TIP3    H127706   0.830   3.333   0.851 -0.1558  0.1403 -1.1361
 2097TIP3    H227707   0.789   3.475   0.882 -0.9974 -0.1421 -0.9259
 2098TIP3   OH227708   0.415   3.932   0.518 -0.4708 -0.3572  0.3165
 2098TIP3    H127709   0.384   4.022   0.510 -1.9988 -1.0039 -1.7869
 2098TIP3    H227710   0.502   3.940   0.557 -0.7808  1.9642  0.6791
 2099TIP3   OH227711   5.339   0.495   5.735 -0.3415  0.3712 -0.0316
 2099TIP3    H127712   5.269   0.461   5.790  0.7938 -1.8056  0.1973
 2099TIP3    H227713   5.372   0.419   5.688 -0.2460  1.8875 -2.6115
 2100TIP3   OH227714   4.556   5.731   6.706  0.6137  0.1383 -0.1322
 2100TIP3    H127715   4.488   5.706   6.770 -0.7553 -0.7386 -1.8413
 2100TIP3    H227716   4.579   5.821   6.730 -0.6551  0.2165  0.9233
 2101TIP3   OH227717   1.395   4.876  16.716  0.1617  0.0550  0.2518
 2101TIP3    H127718   1.469   4.902  16.770  0.6481 -2.5005  0.9552
 2101TIP3    H227719   1.434   4.838  16.637 -0.4868  1.2251 -0.6566
 2102TIP3   OH227720   0.992   6.353  12.654 -0.7626 -0.2506  0.5044
 2102TIP3    H127721   0.941   6.352  12.735 -2.8343  0.8211 -0.7034
 2102TIP3    H227722   0.984   6.443  12.622 -0.3341 -0.7549 -1.1023
 2103TIP3   OH227723   1.978   3.722   3.264  0.2686 -0.3759 -0.0093
 2103TIP3    H127724   2.050   3.766   3.218 -0.2641  0.1031 -0.3975
 2103TIP3    H227725   1.918   3.697   3.194  0.0271 -0.7243  0.3206
 2104TIP3   OH227726   0.731   1.328  14.071 -0.2858  0.1945 -0.1535
 2104TIP3    H127727   0.686   1.396  14.022 -0.4216 -0.7581 -1.3845
 2104TIP3    H227728   0.812   1.370  14.101 -0.7804  1.1510 -0.0950
 2105TIP3   OH227729   4.185   3.739   0.778  0.0388 -0.1361  0.2526
 2105TIP3    H127730   4.106   3.711   0.732 -0.4927 -0.7113  1.4655
 2105TIP3    H227731   4.186   3.835   0.769  0.6217 -0.3041 -1.9617
 2106TIP3   OH227732   1.525   6.559   3.919  0.1239 -0.4436 -0.1042
 2106TIP3    H127733   1.608   6.515   3.933 -0.0820 -0.1146  2.7991
 2106TIP3    H227734   1.537   6.646   3.956 -0.7870  0.5311 -1.9269
 2107TIP3   OH227735   0.034   6.484   6.313 -0.7822 -0.0373  0.0153
 2107TIP3    H127736   0.004   6.482   6.404 -3.0892 -1.8949 -0.6784
 2107TIP3    H227737   0.024   6.575   6.287  0.3702  0.6270  1.7242
 2108TIP3   OH227738   0.612   3.048   6.440 -0.1699  0.0034 -0.0207
 2108TIP3    H127739   0.579   3.014   6.523  1.3197 -1.8830 -0.1444
 2108TIP3    H227740   0.587   3.140   6.441 -2.8864 -0.6301  1.1177
 2109TIP3   OH227741   3.406   4.548   2.972 -0.0550 -0.5257 -0.1757
 2109TIP3    H127742   3.488   4.500   2.983  0.3149 -0.3004 -1.6740
 2109TIP3    H227743   3.412   4.621   3.033  0.6405 -0.7840  0.0749
 2110TIP3   OH227744   6.211   3.456   6.752  0.0065  0.6295 -0.4644
 2110TIP3    H127745   6.171   3.542   6.738  0.0448  0.5365 -1.1692
 2110TIP3    H227746   6.180   3.429   6.838 -1.2963  0.6597 -0.8983
 2111TIP3   OH227747   3.011   4.064   2.799 -0.1158  0.1712  0.4334
 2111TIP3    H127748   3.041   4.028   2.715  0.3338  1.1951  0.1408
 2111TIP3    H227749   2.990   4.155   2.780  1.2584  0.7968  1.6980
 2112TIP3   OH227750   4.740   2.538  16.996 -0.1570 -0.2783 -0.0773
 2112TIP3    H127751   4.691   2.537  17.078  1.3064 -0.5984  0.8251
 2112TIP3    H227752   4.826   2.572  17.020  0.5697 -1.1573 -1.3256
 2113TIP3   OH227753   0.169   6.198   2.803  0.1530 -0.4689  0.1888
 2113TIP3    H127754   0.177   6.260   2.875  0.1090  0.8241 -0.8860
 2113TIP3    H227755   0.075   6.177   2.799 -0.2895  1.5210 -1.1199
 2114TIP3   OH227756   2.446   5.171   1.861  0.2953  0.2417 -0.1231
 2114TIP3    H127757   2.352   5.170   1.880  0.1075  0.0402 -1.0362
 2114TIP3    H227758   2.482   5.101   1.916 -0.3414 -0.7868 -0.9774
 2115TIP3   OH227759   3.802   5.319   2.993  0.4275  0.0866  0.1156
 2115TIP3    H127760   3.871   5.384   2.984  1.2216 -0.8730 -1.0521
 2115TIP3    H227761   3.816   5.258   2.920 -1.4597 -0.3128  0.0279
 2116TIP3   OH227762   2.713   0.498  13.280 -0.7014 -0.2135 -0.3736
 2116TIP3    H127763   2.660   0.547  13.344 -1.6996 -0.1882 -1.2000
 2116TIP3    H227764   2.651   0.438  13.239 -0.0991 -0.1122 -1.4449
 2117TIP3   OH227765   5.475   2.621   3.942 -0.0661 -0.2522  0.4605
 2117TIP3    H127766   5.531   2.634   3.865 -1.4459 -0.1769 -0.5704
 2117TIP3    H227767   5.386   2.636   3.910 -0.5530  2.0482  2.5919
 2118TIP3   OH227768   3.844   5.552   5.286 -0.5156  0.1916 -0.2516
 2118TIP3    H127769   3.780   5.547   5.215 -1.6898 -0.8401  0.8323
 2118TIP3    H227770   3.831   5.639   5.324  0.3205  0.8637 -1.4359
 2119TIP3   OH227771   2.939   4.973  14.292 -0.2607 -0.0415 -0.5808
 2119TIP3    H127772   2.849   4.971  14.261 -1.2909 -3.6787  2.0279
 2119TIP3    H227773   2.977   4.889  14.264  1.9752  0.8992 -0.6260
 2120TIP3   OH227774   0.262   5.204   2.460  0.1698 -0.5550  0.0375
 2120TIP3    H127775   0.220   5.120   2.477  0.3134 -0.8062 -0.8214
 2120TIP3    H227776   0.339   5.183   2.408  0.3035  0.0910 -0.0365
 2121TIP3   OH227777   0.148   5.442  12.993  0.0289  0.0703  0.0898
 2121TIP3    H127778   0.176   5.374  13.055  0.4648  0.1679  0.0072
 2121TIP3    H227779   0.191   5.418  12.911 -0.7691 -0.2091 -0.2463
 2122TIP3   OH227780   6.364   5.149   3.673  0.0474 -0.1699 -0.3239
 2122TIP3    H127781   6.323   5.107   3.597 -2.2708  2.3223 -0.6149
 2122TIP3    H227782   6.325   5.106   3.749 -0.5042 -0.1476 -0.5907
 2123TIP3   OH227783   0.838   1.813  14.427 -0.1298 -0.0451  0.5917
 2123TIP3    H127784   0.914   1.783  14.477 -1.0770  0.7483  2.6302
 2123TIP3    H227785   0.784   1.860  14.491 -0.1993  3.3769 -1.7463
 2124TIP3   OH227786   1.439   5.554  16.689  0.2065 -0.2830  0.2262
 2124TIP3    H127787   1.520   5.517  16.655 -1.1318 -2.8617 -0.4553
 2124TIP3    H227788   1.410   5.492  16.756 -1.2028  0.5592  0.4482
 2125TIP3   OH227789   1.165   3.836   1.614  0.0065 -0.2292 -0.1411
 2125TIP3    H127790   1.135   3.771   1.551  2.6666 -2.2902  0.5903
 2125TIP3    H227791   1.102   3.830   1.686 -0.9921 -0.4126 -1.0069
 2126TIP3   OH227792   0.470   3.479  13.933 -0.3417 -0.6033 -0.0482
 2126TIP3    H127793   0.412   3.528  13.990  0.0304  0.1719 -0.3305
 2126TIP3    H227794   0.420   3.468  13.851 -0.9097 -1.7908  0.4244
 2127TIP3   OH227795   5.778   5.371   1.777  0.1850 -0.0866  0.3526
 2127TIP3    H127796   5.700   5.401   1.731  0.9390  0.6420 -0.4791
 2127TIP3    H227797   5.823   5.315   1.713 -0.6406 -2.1766  1.4952
 2128TIP3   OH227798   0.825   3.172  14.087  0.4877  0.0486  0.2312
 2128TIP3    H127799   0.730   3.172  14.098  0.2436 -1.9271 -1.3915
 2128TIP3    H227800   0.841   3.238  14.019  0.2524  0.1891  0.3115
 2129TIP3   OH227801   1.796   4.755   5.434 -0.1963  0.8387  0.6820
 2129TIP3    H127802   1.852   4.682   5.410 -1.6811 -0.7893  1.9313
 2129TIP3    H227803   1.737   4.765   5.359 -0.7176 -0.0025  0.9754
 2130TIP3   OH227804   0.077   5.116  12.561 -0.3203  0.9141 -0.0641
 2130TIP3    H127805   0.020   5.070  12.623 -0.2816  0.7672 -0.1374
 2130TIP3    H227806   0.023   5.127  12.482  0.1717 -0.4105 -0.6240
 2131TIP3   OH227807   5.575   4.439  12.930  0.2706  0.5773 -0.1976
 2131TIP3    H127808   5.485   4.448  12.961  0.4005  1.5994 -0.0977
 2131TIP3    H227809   5.577   4.488  12.849  1.0265  1.5524  0.3942
 2132TIP3   OH227810   4.498   0.579   5.251  0.5540  0.2603 -0.1591
 2132TIP3    H127811   4.491   0.515   5.180 -0.4424 -1.0434  1.0536
 2132TIP3    H227812   4.586   0.615   5.241  0.6477 -0.2973 -1.7009
 2133TIP3   OH227813   2.945   2.911  13.894  0.4277  0.9034  1.0014
 2133TIP3    H127814   2.914   2.910  13.803 -0.0130  0.2700  1.1439
 2133TIP3    H227815   3.012   2.842  13.897 -1.8905 -1.5312  1.8791
 2134TIP3   OH227816   0.455   4.242   3.740  0.1457 -0.4282 -0.2241
 2134TIP3    H127817   0.449   4.190   3.820 -0.1231  1.1033  0.8064
 2134TIP3    H227818   0.543   4.226   3.707  0.7198 -0.1529  1.0780
 2135TIP3   OH227819   5.665   3.157  16.724  0.2951  0.1224 -0.1235
 2135TIP3    H127820   5.730   3.097  16.762  0.5033 -0.4364 -1.3302
 2135TIP3    H227821   5.591   3.154  16.785  0.8449 -0.3103  0.5359
 2136TIP3   OH227822   5.881   1.682  11.072  0.1226  0.4284 -0.1349
 2136TIP3    H127823   5.792   1.689  11.037  0.4314  2.3046 -0.6122
 2136TIP3    H227824   5.872   1.623  11.147 -1.5757  0.8216  0.0150
 2137TIP3   OH227825   5.547   6.045   5.632 -0.0352 -0.3840 -0.3041
 2137TIP3    H127826   5.466   6.036   5.582 -0.9651 -0.8068  1.2418
 2137TIP3    H227827   5.546   5.972   5.694  0.7890  0.4625  0.7519
 2138TIP3   OH227828   1.608   0.279  15.536 -0.3848  0.3363 -0.3992
 2138TIP3    H127829   1.687   0.227  15.549 -1.0243 -0.6326 -0.3134
 2138TIP3    H227830   1.553   0.226  15.479 -0.4014  1.6291 -1.6593
 2139TIP3   OH227831   6.679   2.240   5.125 -0.2013 -0.5341 -0.0573
 2139TIP3    H127832   6.661   2.266   5.034 -0.5343 -1.5868 -0.3026
 2139TIP3    H227833   6.637   2.308   5.178  0.3282  0.3064 -0.6789
 2140TIP3   OH227834   5.938   3.855  15.763  0.4613  0.0755 -0.1286
 2140TIP3    H127835   5.936   3.782  15.702 -1.1184  0.6978 -0.8750
 2140TIP3    H227836   5.993   3.921  15.721 -0.9394  0.6562 -1.1080
 2141TIP3   OH227837   0.307   0.037   2.816  0.3352 -0.0998  0.0611
 2141TIP3    H127838   0.305   0.089   2.735 -0.2984  0.7704  0.6231
 2141TIP3    H227839   0.221  -0.004   2.821 -0.0945  0.8614  0.9209
 2142TIP3   OH227840   5.194   1.013   4.970  0.3051 -0.5113 -0.2989
 2142TIP3    H127841   5.264   0.992   5.031 -0.3687 -1.4851  0.1552
 2142TIP3    H227842   5.227   0.984   4.885  0.4829 -0.9386 -0.0891
 2143TIP3   OH227843   2.312   3.509  10.740 -0.2186  0.5024  0.2169
 2143TIP3    H127844   2.240   3.540  10.795 -1.0870 -1.4560  0.2558
 2143TIP3    H227845   2.360   3.448  10.796  1.5784  1.8299  0.2186
 2144TIP3   OH227846   1.749   0.525   6.060  0.5230  0.0308  0.4355
 2144TIP3    H127847   1.721   0.442   6.022 -0.2839  1.8784 -3.5958
 2144TIP3    H227848   1.829   0.547   6.013 -1.2040  3.0727 -1.4448
 2145TIP3   OH227849   4.359   0.013   5.287 -0.5012 -0.2327 -0.5934
 2145TIP3    H127850   4.437   0.065   5.270  0.1366 -0.9322  0.0994
 2145TIP3    H227851   4.362  -0.005   5.381 -2.8264  1.7854 -0.0361
 2146TIP3   OH227852   4.256   2.213  15.734 -0.3888 -0.1655 -0.3546
 2146TIP3    H127853   4.316   2.282  15.706 -0.7572  0.3818  0.1867
 2146TIP3    H227854   4.194   2.257  15.792  0.6063 -1.3261  1.7207
 2147TIP3   OH227855   1.453   4.689  13.575  0.4010 -0.1667 -0.1091
 2147TIP3    H127856   1.535   4.641  13.575  1.3418  1.3471  0.7563
 2147TIP3    H227857   1.479   4.781  13.577 -1.3140  0.3573  0.0942
 2148TIP3   OH227858   1.036   0.142  15.690  0.1292  0.1029 -0.2369
 2148TIP3    H127859   1.025   0.198  15.767 -1.4113  1.6934 -1.5114
 2148TIP3    H227860   1.131   0.138  15.676  0.5768 -1.3846  2.4650
 2149TIP3   OH227861   1.271   5.114  16.781  0.5879 -0.1034 -0.3870
 2149TIP3    H127862   1.304   5.027  16.759 -0.4619 -0.5742 -0.2092
 2149TIP3    H227863   1.176   5.103  16.783  0.5069  0.5774  1.5707
 2150TIP3   OH227864   1.073   6.359  15.969  0.5162  0.6264  0.4771
 2150TIP3    H127865   1.000   6.313  16.010  1.2205 -0.2286  0.7999
 2150TIP3    H227866   1.150   6.332  16.019  1.1108  1.2080 -0.1037
 2151TIP3   OH227867   0.003   6.151   3.367 -0.1841  0.1679  0.2661
 2151TIP3    H127868   0.038   6.235   3.338 -1.4823  0.4392 -0.6105
 2151TIP3    H227869  -0.092   6.161   3.361 -0.3692 -1.6536 -0.7574
 2152TIP3   OH227870   5.947   4.675   3.610  0.5965  0.0708 -0.1993
 2152TIP3    H127871   5.925   4.584   3.632  0.3758 -0.2016 -1.4661
 2152TIP3    H227872   5.928   4.724   3.690  0.8838 -1.0147  0.5715
 2153TIP3   OH227873   0.803   0.042  14.795 -0.4546 -1.2955  0.4722
 2153TIP3    H127874   0.759   0.125  14.777  0.9796 -0.5661  0.2473
 2153TIP3    H227875   0.760   0.009  14.874 -0.5585  0.0053  0.9777
 2154TIP3   OH227876   4.910   3.192   2.052  0.1035 -0.6690  0.3157
 2154TIP3    H127877   4.822   3.163   2.076 -0.3770  1.3814  1.3019
 2154TIP3    H227878   4.901   3.225   1.963  0.1033 -1.3843  0.0528
 2155TIP3   OH227879   1.420   3.597   5.782  0.0993 -0.2078 -0.6762
 2155TIP3    H127880   1.454   3.652   5.852  2.2469 -2.5782  0.2892
 2155TIP3    H227881   1.394   3.515   5.826  0.0952 -1.1928 -2.4208
 2156TIP3   OH227882   3.036   2.690  12.653 -0.1966  0.6583 -0.0091
 2156TIP3    H127883   3.090   2.698  12.732  0.7128  0.7429 -0.6289
 2156TIP3    H227884   2.971   2.623  12.674 -0.8007  1.5947  1.2724
 2157TIP3   OH227885   4.629   1.458   5.675 -0.2514 -0.7583  0.2795
 2157TIP3    H127886   4.594   1.381   5.721 -0.2542 -0.7335  0.3185
 2157TIP3    H227887   4.625   1.434   5.582 -1.6995 -0.2226  0.1710
 2158TIP3   OH227888   3.147   4.001  16.085  0.4435 -0.2211 -0.0970
 2158TIP3    H127889   3.083   3.992  16.015 -0.6405 -0.6389  0.9075
 2158TIP3    H227890   3.178   3.912  16.102  1.0791 -0.0600 -0.3687
 2159TIP3   OH227891   3.673   3.808  14.463  0.8597  0.3697 -0.0913
 2159TIP3    H127892   3.629   3.724  14.448  1.5917  0.2523 -1.8704
 2159TIP3    H227893   3.740   3.789  14.528  0.6638 -0.3079 -0.0775
 2160TIP3   OH227894   3.050   1.404   5.827 -0.1474  0.4581  0.4086
 2160TIP3    H127895   3.055   1.480   5.885  0.7326 -1.1271  2.5366
 2160TIP3    H227896   3.070   1.439   5.740 -3.4465  3.3094  0.5731
 2161TIP3   OH227897   4.124   0.886  15.925  0.8369 -0.6778 -0.1377
 2161TIP3    H127898   4.153   0.925  15.842 -0.7376  0.4837 -0.1868
 2161TIP3    H227899   4.113   0.961  15.984 -0.5814 -1.2020  0.3034
 2162TIP3   OH227900   6.225   4.525   0.858 -0.6535  0.2196 -0.2566
 2162TIP3    H127901   6.315   4.524   0.828 -0.5961  2.5734 -0.3693
 2162TIP3    H227902   6.177   4.472   0.794  0.3333  0.5993 -1.3291
 2163TIP3   OH227903   0.169   0.136  13.479  0.1991  0.1974  0.5463
 2163TIP3    H127904   0.252   0.095  13.503  0.8827  0.0913 -1.8262
 2163TIP3    H227905   0.105   0.065  13.484  0.2233  0.2437  2.2174
 2164TIP3   OH227906   4.511   5.778   6.421  0.1476  0.3855 -0.0290
 2164TIP3    H127907   4.430   5.825   6.439 -0.3334 -0.0987 -0.8753
 2164TIP3    H227908   4.560   5.782   6.504 -1.0711  0.0002  0.7292
 2165TIP3   OH227909   1.771   2.750  14.338  0.1913  0.0364  0.1627
 2165TIP3    H127910   1.687   2.765  14.382  1.2942 -0.1189  2.4531
 2165TIP3    H227911   1.747   2.728  14.248 -2.0643  2.9449 -0.0936
 2166TIP3   OH227912   1.314   2.008   4.147  0.1040 -0.2865 -0.2270
 2166TIP3    H127913   1.385   2.049   4.096 -0.2389 -0.9604 -1.2712
 2166TIP3    H227914   1.239   2.067   4.135  0.6656  0.8971  1.5874
 2167TIP3   OH227915   1.377   2.359   3.254 -0.4915  0.3053 -0.3332
 2167TIP3    H127916   1.400   2.341   3.163 -2.4095 -2.4559 -0.4035
 2167TIP3    H227917   1.290   2.320   3.265  0.5579 -1.5041  3.2168
 2168TIP3   OH227918   3.527   0.525  13.739  0.9162 -0.2488 -0.0037
 2168TIP3    H127919   3.621   0.514  13.753  0.8217 -0.8454  0.2019
 2168TIP3    H227920   3.487   0.451  13.786  0.3151  0.2669  0.3199
 2169TIP3   OH227921   1.005   1.892  13.762 -0.5941  0.1809  0.4159
 2169TIP3    H127922   0.953   1.840  13.701  1.2888 -0.6735 -0.5387
 2169TIP3    H227923   1.055   1.828  13.811  0.7121  1.0193  0.2214
 2170TIP3   OH227924   1.847   0.195   6.414 -0.3785 -0.0097  0.3613
 2170TIP3    H127925   1.939   0.179   6.437  0.4885  2.3074 -1.1336
 2170TIP3    H227926   1.825   0.277   6.459 -0.6855  1.1003 -1.7125
 2171TIP3   OH227927   2.517   0.590   1.620  0.1090 -0.4843  0.4624
 2171TIP3    H127928   2.593   0.597   1.677  1.1537 -1.9146 -0.6769
 2171TIP3    H227929   2.533   0.512   1.567 -2.1768 -0.8463  0.1979
 2172TIP3   OH227930   0.245   6.490   2.471  0.2960 -0.0209  0.1186
 2172TIP3    H127931   0.181   6.498   2.541  0.0184 -0.3184 -0.0923
 2172TIP3    H227932   0.330   6.494   2.514  0.1786  1.7854  0.2550
 2173TIP3   OH227933   5.819   0.011  11.817 -0.1226 -0.4713 -0.2467
 2173TIP3    H127934   5.812  -0.017  11.908  1.3942 -1.0704 -0.2817
 2173TIP3    H227935   5.740  -0.023  11.775 -0.4572 -0.8658  0.6767
 2174TIP3   OH227936   0.836   1.889  16.047  0.6945 -0.8056  0.1660
 2174TIP3    H127937   0.876   1.866  15.963 -1.0241 -1.2176 -0.5791
 2174TIP3    H227938   0.763   1.945  16.024  2.5522  2.5409  1.6907
 2175TIP3   OH227939   5.530   1.277   4.035 -0.2152 -0.3957 -0.1270
 2175TIP3    H127940   5.586   1.239   3.968 -0.2041 -1.3482  0.3923
 2175TIP3    H227941   5.585   1.280   4.113 -0.9605 -1.6503  0.4725
 2176TIP3   OH227942   3.165   4.609   1.563 -0.2993  0.0105 -0.5400
 2176TIP3    H127943   3.149   4.542   1.496 -0.1622 -1.1937  0.5800
 2176TIP3    H227944   3.078   4.637   1.591 -0.3692 -0.2847 -0.4587
 2177TIP3   OH227945   5.884   5.077  13.980 -0.4248  0.2401  0.1265
 2177TIP3    H127946   5.943   5.013  13.940 -0.4224  1.0514 -1.2365
 2177TIP3    H227947   5.796   5.044  13.959 -0.4526  1.7658 -2.5590
 2178TIP3   OH227948   5.066   2.378   4.516  0.1356  0.4859  0.1349
 2178TIP3    H127949   5.153   2.373   4.476 -0.9450  0.7172 -2.4414
 2178TIP3    H227950   5.060   2.301   4.572  1.6447 -0.0593 -0.4171
 2179TIP3   OH227951   4.277   6.757  16.936  0.0017 -0.9397 -0.1795
 2179TIP3    H127952   4.361   6.802  16.942 -0.6000  0.4042 -1.2744
 2179TIP3    H227953   4.262   6.746  16.843 -1.0410 -1.1526 -0.0006
 2180TIP3   OH227954   1.156   6.268   1.677 -0.2210  0.0887 -0.2024
 2180TIP3    H127955   1.061   6.264   1.684 -0.2907  1.8194  0.1579
 2180TIP3    H227956   1.172   6.309   1.592  0.2828 -2.0227 -1.2069
 2181TIP3   OH227957   0.366   6.026   4.183 -0.6110  0.0360 -0.1108
 2181TIP3    H127958   0.336   6.000   4.096 -2.7848 -0.9890  0.8581
 2181TIP3    H227959   0.292   6.006   4.241  1.8593 -2.4802  2.5087
 2182TIP3   OH227960   4.740   2.316  11.240  0.1092  0.0336  0.0713
 2182TIP3    H127961   4.672   2.334  11.305 -1.4274  0.0635 -1.4685
 2182TIP3    H227962   4.708   2.239  11.192  1.0552  0.1834 -0.8398
 2183TIP3   OH227963   2.714   6.115   1.003  0.5891 -0.2994  0.3851
 2183TIP3    H127964   2.668   6.170   1.066 -0.0479 -0.7957  0.3715
 2183TIP3    H227965   2.712   6.164   0.921  2.4141  0.8651  0.9751
 2184TIP3   OH227966   4.699   4.594  16.561 -0.2057  0.5020  0.3595
 2184TIP3    H127967   4.778   4.629  16.602 -0.0754  1.7093 -0.8413
 2184TIP3    H227968   4.730   4.524  16.503  0.3403  2.3360 -1.7251
 2185TIP3   OH227969   0.418   3.367  16.744  0.6746  0.2965  0.2137
 2185TIP3    H127970   0.347   3.311  16.775  1.1423 -0.8141 -0.6599
 2185TIP3    H227971   0.482   3.368  16.816 -0.4762  1.8845  1.3102
 2186TIP3   OH227972   1.631   2.452   4.872  0.2131  0.1101  0.1518
 2186TIP3    H127973   1.713   2.432   4.918  0.2274  0.8726  0.4693
 2186TIP3    H227974   1.658   2.503   4.796  0.0641  0.0237  0.0395
 2187TIP3   OH227975   0.316   5.011   0.580  0.5333 -0.3852 -0.0667
 2187TIP3    H127976   0.409   5.023   0.558  0.9658 -0.4577  1.5815
 2187TIP3    H227977   0.310   4.919   0.607 -0.3187 -0.7527 -1.4197
 2188TIP3   OH227978   6.681   3.759  14.047 -0.1371  0.1908  0.3271
 2188TIP3    H127979   6.717   3.841  14.013 -0.9870  0.2620 -0.4839
 2188TIP3    H227980   6.590   3.780  14.067 -0.6207 -0.7538 -0.7372
 2189TIP3   OH227981   4.336   3.272   5.481  0.1660 -0.2478  0.3165
 2189TIP3    H127982   4.245   3.294   5.459  0.3712 -0.3309 -0.6718
 2189TIP3    H227983   4.359   3.333   5.551 -0.7637 -0.4734  0.8313
 2190TIP3   OH227984   3.284   1.624  11.387  0.1028  0.5054 -0.1304
 2190TIP3    H127985   3.296   1.555  11.321 -1.9108  0.9929 -1.1010
 2190TIP3    H227986   3.323   1.588  11.466 -2.3999 -2.6062 -0.1000
 2191TIP3   OH227987   4.103   6.132   2.711  0.2641 -0.1860  0.6949
 2191TIP3    H127988   4.136   6.216   2.679  0.8414  0.4693  2.8357
 2191TIP3    H227989   4.032   6.156   2.771 -1.5680 -1.4133 -0.8705
 2192TIP3   OH227990   4.460   5.944   0.209 -0.1311  0.2592 -0.1378
 2192TIP3    H127991   4.529   5.978   0.267 -0.9732  1.0457  0.4253
 2192TIP3    H227992   4.465   5.849   0.220 -0.0514  0.3736  0.9682
 2193TIP3   OH227993   6.546   6.691  16.580  0.1607 -0.6808  0.4619
 2193TIP3    H127994   6.516   6.781  16.569 -0.3203 -0.5799  2.3078
 2193TIP3    H227995   6.640   6.699  16.595  0.1560 -0.5191  0.4090
 2194TIP3   OH227996   0.701   2.225  14.727 -0.5220  0.1372 -0.4949
 2194TIP3    H127997   0.778   2.275  14.754  0.4934 -0.9823 -1.2114
 2194TIP3    H227998   0.631   2.290  14.723  0.0290  0.9416  1.5163
 2195TIP3   OH227999   5.109   1.760   1.441  0.0233 -0.0887  0.1899
 2195TIP3    H128000   5.015   1.763   1.461 -0.1846 -1.3920 -0.4757
 2195TIP3    H228001   5.150   1.732   1.523 -0.0165  1.6316  0.8311
 2196TIP3   OH228002   5.695   5.429   1.038 -0.3252  0.0320 -0.6124
 2196TIP3    H128003   5.722   5.402   0.950 -1.0479  0.1514 -0.8806
 2196TIP3    H228004   5.602   5.406   1.042 -0.2165 -0.2964  0.2503
 2197TIP3   OH228005   1.586   6.531   2.539  0.5870 -0.1863  0.3642
 2197TIP3    H128006   1.577   6.543   2.445  1.4587  1.2124  0.4268
 2197TIP3    H228007   1.496   6.520   2.570 -0.3218  4.0617 -0.1153
 2198TIP3   OH228008   5.375   0.212  13.546 -0.0645  0.5259  0.1033
 2198TIP3    H128009   5.462   0.219  13.584 -0.1021  2.0090 -0.0321
 2198TIP3    H228010   5.389   0.229  13.453 -0.0132 -2.7494 -0.6327
 2199TIP3   OH228011   1.664   0.608  11.250 -0.0866 -0.6202 -0.1410
 2199TIP3    H128012   1.721   0.572  11.319  0.5287 -0.1865 -0.4156
 2199TIP3    H228013   1.611   0.533  11.222 -0.9639 -0.6045  1.3960
 2200TIP3   OH228014   0.262   4.140  14.586  0.0443 -0.3258  0.5735
 2200TIP3    H128015   0.343   4.090  14.584  0.5966  0.5020  1.2843
 2200TIP3    H228016   0.286   4.226  14.551 -0.2966  0.2262  1.6481
 2201TIP3   OH228017   2.140   4.780  14.194 -0.3893 -0.0657 -0.4209
 2201TIP3    H128018   2.131   4.867  14.233  0.3561 -0.0204 -0.3380
 2201TIP3    H228019   2.055   4.738  14.210 -0.4406  0.3109  0.3697
 2202TIP3   OH228020   0.917   4.792   4.441 -0.3253  0.0702  0.3752
 2202TIP3    H128021   0.961   4.869   4.476  0.5794 -1.4675  2.8980
 2202TIP3    H228022   0.826   4.818   4.433  0.3774  2.3023 -1.8577
 2203TIP3   OH228023   5.461   0.703   6.339  0.5882  0.3815 -0.0941
 2203TIP3    H128024   5.444   0.660   6.255  2.2350 -0.9271  0.1873
 2203TIP3    H228025   5.403   0.779   6.339 -0.6388 -0.4855 -1.7025
 2204TIP3   OH228026   3.297   6.325   5.883  0.3998  0.2077 -0.3398
 2204TIP3    H128027   3.260   6.310   5.796 -0.5367  0.4337  0.0039
 2204TIP3    H228028   3.357   6.252   5.897  1.1875  0.6078 -1.5029
 2205TIP3   OH228029   0.139   6.086   2.136 -0.0221  0.9222  0.7377
 2205TIP3    H128030   0.157   6.166   2.185  0.6055 -0.0276  2.1113
 2205TIP3    H228031   0.209   6.026   2.160 -0.2324  0.0902 -0.6094
 2206TIP3   OH228032   2.055   5.552  16.406 -0.3611 -0.3027  0.2360
 2206TIP3    H128033   2.142   5.510  16.404 -0.8836 -1.4221  0.1859
 2206TIP3    H228034   2.005   5.500  16.469 -0.9265  0.5041  0.4704
 2207TIP3   OH228035   5.689   6.532  11.167  0.3748 -0.2517 -0.3498
 2207TIP3    H128036   5.615   6.580  11.130  0.3920 -0.7735 -1.0865
 2207TIP3    H228037   5.694   6.451  11.115  0.8215 -0.6959  0.3650
 2208TIP3   OH228038   6.255   5.892  15.607 -0.0208  0.2947 -0.9216
 2208TIP3    H128039   6.184   5.863  15.550  0.7365 -2.1035 -0.7591
 2208TIP3    H228040   6.334   5.885  15.553  0.4053  0.2983 -0.3143
 2209TIP3   OH228041   3.155   4.092  10.621  0.2237  0.2809 -0.0899
 2209TIP3    H128042   3.221   4.024  10.615  0.2032  0.1514  1.0936
 2209TIP3    H228043   3.204   4.171  10.645  0.3958  0.9575 -2.3870
 2210TIP3   OH228044   1.837   1.911  16.176 -0.0065  0.2524 -0.1026
 2210TIP3    H128045   1.820   1.848  16.107  0.7968  0.9671 -0.9808
 2210TIP3    H228046   1.852   1.858  16.254  0.1563 -0.6204 -0.7207
 2211TIP3   OH228047   2.421   2.861   3.030 -0.0879 -0.4161 -0.3363
 2211TIP3    H128048   2.495   2.908   2.992 -0.9363 -0.1145 -1.6582
 2211TIP3    H228049   2.360   2.929   3.058  0.2089 -0.6561  0.9539
 2212TIP3   OH228050   3.194   1.582   4.675  0.4804 -0.5110  0.4205
 2212TIP3    H128051   3.203   1.626   4.759  1.3608  1.4132 -0.6262
 2212TIP3    H228052   3.132   1.636   4.626  2.1076  0.0250 -1.1419
 2213TIP3   OH228053   4.585   4.900   5.372  0.1908 -0.3508  0.3684
 2213TIP3    H128054   4.594   4.952   5.292  1.1550 -0.6870  0.2552
 2213TIP3    H228055   4.508   4.845   5.356 -0.7276  0.8686  0.4069
 2214TIP3   OH228056   5.848   4.032   1.777  0.1196  0.5249 -0.0657
 2214TIP3    H128057   5.893   4.046   1.860 -0.5487  0.7700  0.2622
 2214TIP3    H228058   5.893   3.957   1.738 -1.1581 -1.2729  1.6933
 2215TIP3   OH228059   2.485   4.715  11.452 -0.6663  0.2585 -0.2994
 2215TIP3    H128060   2.405   4.761  11.427  0.6386  2.8251 -0.1307
 2215TIP3    H228061   2.523   4.687  11.369 -1.7482 -1.1110 -0.3715
 2216TIP3   OH228062   0.531   2.731  16.304 -0.3397  0.7694 -0.1128
 2216TIP3    H128063   0.627   2.734  16.304 -0.3284  3.6146 -0.2587
 2216TIP3    H228064   0.505   2.816  16.269 -2.9480 -0.0911 -0.4588
 2217TIP3   OH228065   4.525   2.005  13.051  0.2250 -0.6341 -0.4045
 2217TIP3    H128066   4.442   2.007  13.099  0.2080  2.7736 -0.3997
 2217TIP3    H228067   4.592   2.015  13.119  0.6739 -2.5882 -0.4956
 2218TIP3   OH228068   6.628   2.493  17.269  0.1348 -0.1787  0.5141
 2218TIP3    H128069   6.723   2.491  17.255  0.3046 -3.7323  1.2571
 2218TIP3    H228070   6.590   2.474  17.183  0.1552  0.0529  0.4545
 2219TIP3   OH228071   2.386   4.179  14.838  0.6053 -0.1488 -0.4654
 2219TIP3    H128072   2.339   4.257  14.868 -0.4121 -1.8185  2.7616
 2219TIP3    H228073   2.479   4.202  14.846  0.3481  0.2921  2.1256
 2220TIP3   OH228074   2.326   4.911  12.809 -0.5316 -0.1735 -0.5904
 2220TIP3    H128075   2.308   4.818  12.825  2.7931 -0.8646 -0.2740
 2220TIP3    H228076   2.324   4.951  12.895  0.2810 -0.4274 -0.4474
 2221TIP3   OH228077   3.894   3.745  14.584 -0.1743 -0.1407 -0.7054
 2221TIP3    H128078   3.900   3.680  14.654  0.9816  1.5559  0.8615
 2221TIP3    H228079   3.985   3.762  14.559 -0.4034  1.2913 -0.6445
 2222TIP3   OH228080   1.297   0.007  12.073  0.1501  0.3766 -0.1497
 2222TIP3    H128081   1.314   0.099  12.056 -0.6724  1.0697  2.4005
 2222TIP3    H228082   1.361  -0.018  12.140 -0.5376 -0.5117  0.2004
 2223TIP3   OH228083   0.390   0.776   1.528  0.2610  0.1056  0.0426
 2223TIP3    H128084   0.433   0.860   1.545  0.7010 -0.1589  0.2673
 2223TIP3    H228085   0.379   0.737   1.614  1.0319 -0.5324 -0.1305
 2224TIP3   OH228086   4.206   0.092  13.095 -0.0748  0.4051  0.2087
 2224TIP3    H128087   4.182   0.079  13.003  1.8954 -0.8495 -0.1755
 2224TIP3    H228088   4.138   0.045  13.143 -0.0017 -0.7102 -0.7204
 2225TIP3   OH228089   3.714   3.551   0.716 -0.0095 -0.5659  0.0088
 2225TIP3    H128090   3.705   3.456   0.721 -1.0212 -0.4083  2.3091
 2225TIP3    H228091   3.658   3.577   0.643 -0.8150 -1.6399  0.2269
 2226TIP3   OH228092   0.716   5.272   3.017  0.2493  0.6749 -0.5657
 2226TIP3    H128093   0.724   5.335   2.946 -0.5792  1.1756 -0.2331
 2226TIP3    H228094   0.690   5.191   2.975 -0.2814  0.9813 -0.8404
 2227TIP3   OH228095   3.908   4.639  12.823 -0.3092 -0.3511  0.2694
 2227TIP3    H128096   3.900   4.552  12.863  0.0024  0.1909  1.5515
 2227TIP3    H228097   3.862   4.697  12.884  2.0686  0.8339  1.0289
 2228TIP3   OH228098   4.154   1.540   3.137 -0.1968  0.0495  0.0381
 2228TIP3    H128099   4.217   1.492   3.190  0.8837 -1.0296 -2.0945
 2228TIP3    H228100   4.206   1.603   3.089 -0.9839  0.2911 -0.5208
 2229TIP3   OH228101   0.549   4.565  14.758  0.5017  0.0172  0.5708
 2229TIP3    H128102   0.457   4.556  14.782 -0.0887 -1.1992 -1.7862
 2229TIP3    H228103   0.549   4.631  14.689  0.8839 -1.9743 -1.4753
 2230TIP3   OH228104   4.260   4.630  16.211 -0.0642  0.1569  0.1811
 2230TIP3    H128105   4.224   4.544  16.189  0.1713  0.3383 -0.9587
 2230TIP3    H228106   4.327   4.646  16.145  1.0021  0.5429  1.3033
 2231TIP3   OH228107   1.578   5.471   0.512 -0.2886 -0.6251  0.0819
 2231TIP3    H128108   1.567   5.395   0.569 -2.1994  0.3327  1.0622
 2231TIP3    H228109   1.490   5.493   0.484  0.5810 -1.2955 -3.6902
 2232TIP3   OH228110   1.995   6.668  13.877  0.3827 -0.2086  0.0042
 2232TIP3    H128111   1.949   6.677  13.961  2.6128  0.4289  1.2420
 2232TIP3    H228112   2.077   6.624  13.899  1.1752  0.2807 -1.7898
 2233TIP3   OH228113   4.232   6.521  14.692 -0.4146  0.4821  0.1849
 2233TIP3    H128114   4.214   6.427  14.681  1.4173 -0.0131  0.9882
 2233TIP3    H228115   4.237   6.555  14.603 -1.1640 -0.1573 -0.1165
 2234TIP3   OH228116   6.624   1.651  15.016  0.1807 -0.1436  0.1131
 2234TIP3    H128117   6.622   1.581  15.081 -2.6368  0.0431  0.3255
 2234TIP3    H228118   6.622   1.732  15.067  0.0738  0.0366 -0.1701
 2235TIP3   OH228119   4.004   2.752   5.868  0.4613  0.7709  0.0441
 2235TIP3    H128120   3.998   2.752   5.964 -0.6901 -0.7800  0.0056
 2235TIP3    H228121   3.976   2.840   5.842  1.1390  1.3323  1.1341
 2236TIP3   OH228122   6.468   2.667  16.576  0.3392 -0.0741  0.1668
 2236TIP3    H128123   6.489   2.589  16.626  1.3676  0.7868  1.1465
 2236TIP3    H228124   6.515   2.657  16.493 -0.0277 -0.7472  0.0341
 2237TIP3   OH228125   1.259   4.953  15.801  0.0838 -0.5036 -0.6362
 2237TIP3    H128126   1.294   5.029  15.848  0.5275 -1.0170 -0.1180
 2237TIP3    H228127   1.164   4.960  15.811  0.1965 -1.0644  1.1015
 2238TIP3   OH228128   3.342   0.970  14.834 -0.5357  0.3305 -0.1389
 2238TIP3    H128129   3.346   0.886  14.789  0.9109  0.0778  0.4180
 2238TIP3    H228130   3.401   0.960  14.909 -0.3927  1.8133 -0.0281
 2239TIP3   OH228131   2.334   6.525  16.690  0.0783  0.1919 -0.0051
 2239TIP3    H128132   2.268   6.528  16.621 -0.1641  0.8934  0.2401
 2239TIP3    H228133   2.283   6.532  16.771  0.3218 -1.0486  0.2777
 2240TIP3   OH228134   5.345   5.769  17.010 -0.1703  0.4138  0.2168
 2240TIP3    H128135   5.280   5.699  17.018  1.9227 -1.6736 -0.0926
 2240TIP3    H228136   5.338   5.798  16.919  1.5847 -2.2510 -0.8753
 2241TIP3   OH228137   3.259   4.284  16.457 -0.2286  0.3560 -0.3333
 2241TIP3    H128138   3.320   4.329  16.516  0.5852 -0.6262 -0.3986
 2241TIP3    H228139   3.209   4.226  16.514  1.5655 -1.6909 -0.7399
 2242TIP3   OH228140   5.893   1.676  15.155  0.3962 -0.4550  0.1370
 2242TIP3    H128141   5.852   1.701  15.072 -1.4155 -0.5950  0.9406
 2242TIP3    H228142   5.906   1.581  15.146 -0.6799 -0.6401  0.3429
 2243TIP3   OH228143   0.602   2.749  14.791  0.3002 -0.0723  0.4131
 2243TIP3    H128144   0.606   2.826  14.848 -0.8683 -0.2368  0.7507
 2243TIP3    H228145   0.651   2.774  14.713 -0.9785  1.4394  0.0518
 2244TIP3   OH228146   0.618   5.884  12.160  0.4455 -0.5599  0.2739
 2244TIP3    H128147   0.564   5.962  12.157  3.4772  1.6960 -1.7043
 2244TIP3    H228148   0.662   5.888  12.245 -0.2740 -0.8126  0.6677
 2245TIP3   OH228149   2.100   6.074   0.896 -0.5937  0.6750 -0.9807
 2245TIP3    H128150   2.044   6.080   0.974 -0.2007  1.7136 -0.7640
 2245TIP3    H228151   2.172   6.134   0.914 -0.5351  0.9919 -2.1830
 2246TIP3   OH228152   0.450   5.775  16.674 -0.9237  0.0522  0.4110
 2246TIP3    H128153   0.521   5.781  16.738 -0.3824 -0.0625 -0.1711
 2246TIP3    H228154   0.409   5.862  16.677 -1.6094 -0.2802  1.6901
 2247TIP3   OH228155   4.744   2.964   1.861  0.1246  0.2600  0.2077
 2247TIP3    H128156   4.658   2.933   1.833  0.9144 -1.2293 -0.7100
 2247TIP3    H228157   4.766   3.035   1.801  0.1255 -0.2938 -0.4470
 2248TIP3   OH228158   1.796   3.498  17.264 -0.0598  0.4469  0.1976
 2248TIP3    H128159   1.845   3.563  17.213  0.1733 -0.6214 -0.9966
 2248TIP3    H228160   1.704   3.521  17.250  0.0403  1.3598  0.9538
 2249TIP3   OH228161   2.349   1.906   4.276  0.2101 -0.1433  0.3798
 2249TIP3    H128162   2.364   1.852   4.354  0.8291  0.4275  0.6635
 2249TIP3    H228163   2.300   1.848   4.216 -1.6657 -0.1104  1.7748
 2250TIP3   OH228164   1.453   0.211  15.256 -0.1579  0.2168  0.4349
 2250TIP3    H128165   1.485   0.122  15.267 -0.7190 -0.3571 -1.9339
 2250TIP3    H228166   1.518   0.253  15.199 -2.0803 -0.1940 -2.3127
 2251TIP3   OH228167   3.035   0.962  12.448  0.3668  0.2594 -0.0189
 2251TIP3    H128168   2.960   0.902  12.443  0.9955 -0.5620  0.2462
 2251TIP3    H228169   3.009   1.037  12.394  0.2297 -0.9661 -1.7183
 2252TIP3   OH228170   3.680   6.471   1.951  0.8015 -0.3149  0.4197
 2252TIP3    H128171   3.758   6.463   1.895  1.4273  2.4638  0.7218
 2252TIP3    H228172   3.614   6.511   1.895  0.3778 -0.4736  0.8007
 2253TIP3   OH228173   4.937   1.601  11.772  0.2250 -0.2801 -0.3151
 2253TIP3    H128174   4.868   1.553  11.726 -0.8598  0.0289  0.9003
 2253TIP3    H228175   4.896   1.628  11.854  1.8822 -0.2468  0.5436
 2254TIP3   OH228176   1.521   2.499   1.777  0.2698 -0.5685  0.0144
 2254TIP3    H128177   1.479   2.584   1.792  1.2467  0.1794 -1.3245
 2254TIP3    H228178   1.607   2.508   1.816  0.7234 -0.5869 -0.9468
 2255TIP3   OH228179   3.562   3.378  16.377 -0.0704  0.1053  0.4068
 2255TIP3    H128180   3.472   3.409  16.392 -0.2103 -0.3641  0.5445
 2255TIP3    H228181   3.573   3.381  16.282  0.1943  1.3465  0.4593
 2256TIP3   OH228182   3.904   3.633  14.216  0.0128  0.4200 -0.3012
 2256TIP3    H128183   3.988   3.673  14.239  0.3025  0.1462 -0.8506
 2256TIP3    H228184   3.878   3.585  14.294  0.1124  0.9216  0.0506
 2257TIP3   OH228185   0.016   1.508  13.152  0.0309  0.2135 -0.6393
 2257TIP3    H128186   0.083   1.557  13.103  0.9557 -1.3067 -1.0010
 2257TIP3    H228187  -0.017   1.569  13.217  1.3352  1.2123 -0.8786
 2258TIP3   OH228188   2.701   5.731  13.138  0.5025 -0.1561 -0.0211
 2258TIP3    H128189   2.674   5.665  13.074  1.6866 -0.1230 -0.5790
 2258TIP3    H228190   2.769   5.688  13.189 -0.2060 -0.0698  1.0241
 2259TIP3   OH228191   4.038   3.877   1.720 -0.7317  0.2786 -0.0148
 2259TIP3    H128192   4.068   3.946   1.779  2.2904  1.4353 -2.5926
 2259TIP3    H228193   4.021   3.802   1.777  1.7918  1.3562  2.3950
 2260TIP3   OH228194   2.299   0.137   5.565  0.4635  0.5531 -0.4739
 2260TIP3    H128195   2.217   0.089   5.579 -0.7778  2.5594 -0.3711
 2260TIP3    H228196   2.352   0.117   5.642 -0.4407  0.1885  0.0682
 2261TIP3   OH228197   5.108   2.532  14.662  0.3043  0.1397 -0.0463
 2261TIP3    H128198   5.031   2.476  14.651  0.2855  0.0301  0.5842
 2261TIP3    H228199   5.118   2.540  14.757  0.9322  0.3451 -0.1253
 2262TIP3   OH228200   5.484   1.036  11.782 -0.0681  0.2914  0.1658
 2262TIP3    H128201   5.413   1.056  11.721  0.0952  0.5599  0.0589
 2262TIP3    H228202   5.544   0.981  11.731 -0.5145 -0.4862  0.4563
 2263TIP3   OH228203   4.961   6.400  12.708 -0.0923  0.0288 -0.0767
 2263TIP3    H128204   4.936   6.482  12.664  0.4437  0.3436  0.2034
 2263TIP3    H228205   4.908   6.399  12.787 -1.3586 -0.7350 -0.8934
 2264TIP3   OH228206   1.843   0.770   4.129  0.0695 -0.3506 -0.0783
 2264TIP3    H128207   1.801   0.797   4.211  1.4458 -0.6655  0.7482
 2264TIP3    H228208   1.867   0.679   4.143  0.1647 -0.4643 -0.9080
 2265TIP3   OH228209   3.601   3.654   5.961 -0.0706 -0.4783  0.1956
 2265TIP3    H128210   3.581   3.651   6.054  3.3529 -1.4099  1.0480
 2265TIP3    H228211   3.616   3.747   5.943  0.5722 -0.4205  0.9564
 2266TIP3   OH228212   3.871   0.836  10.936  0.5206  0.3797 -0.2408
 2266TIP3    H128213   3.831   0.859  11.020  2.7183  2.0464  0.4420
 2266TIP3    H228214   3.842   0.746  10.920 -2.4975  1.0660  0.6889
 2267TIP3   OH228215   6.299   0.916   0.926  0.0477 -0.2020 -0.3637
 2267TIP3    H128216   6.327   0.828   0.901  0.6498  0.1186 -0.8428
 2267TIP3    H228217   6.206   0.906   0.947  0.3267 -1.1242  0.4893
 2268TIP3   OH228218   6.710   0.912  14.449 -0.3493  0.0285 -0.5125
 2268TIP3    H128219   6.768   0.987  14.440 -2.1914  1.4744 -0.9812
 2268TIP3    H228220   6.642   0.941  14.510 -1.6933 -0.8656 -1.5250
 2269TIP3   OH228221   3.321   1.453  12.304  0.0554 -0.0884 -0.1670
 2269TIP3    H128222   3.296   1.372  12.347  1.1355 -0.5838 -0.4528
 2269TIP3    H228223   3.355   1.426  12.219  0.2203  0.6800 -0.3532
 2270TIP3   OH228224   1.094   5.316   4.287 -0.1111 -0.2036  0.1436
 2270TIP3    H128225   1.012   5.274   4.311 -0.0248 -0.5102 -0.0985
 2270TIP3    H228226   1.161   5.267   4.335  0.2680 -2.0112 -2.0759
 2271TIP3   OH228227   5.078   6.656   1.264 -0.7717 -0.2286  0.4228
 2271TIP3    H128228   5.084   6.597   1.339  0.4657 -0.2630  0.3157
 2271TIP3    H228229   5.139   6.619   1.199 -2.7216 -0.9225 -1.1197
 2272TIP3   OH228230   4.437   4.726  13.206  0.0027  0.4169 -0.7055
 2272TIP3    H128231   4.358   4.671  13.201  0.6934 -0.6121 -0.5439
 2272TIP3    H228232   4.407   4.805  13.251 -0.7082 -0.4232  0.3663
 2273TIP3   OH228233   5.554   1.738   6.526  0.3987 -0.4771 -0.0638
 2273TIP3    H128234   5.585   1.748   6.436  0.5894  0.2540  0.0720
 2273TIP3    H228235   5.633   1.737   6.579  0.2265  1.4023  0.2858
 2274TIP3   OH228236   0.261   4.102  16.923  0.4236 -0.3477 -0.2292
 2274TIP3    H128237   0.325   4.074  16.988 -0.9604 -0.0428  1.3283
 2274TIP3    H228238   0.217   4.021  16.896  1.2583 -0.5225 -1.0938
 2275TIP3   OH228239   6.238   1.582   0.054  0.4595 -0.2882 -0.2147
 2275TIP3    H128240   6.265   1.543   0.137  1.4843  1.9976  0.6144
 2275TIP3    H228241   6.162   1.636   0.076 -1.3185 -2.1349 -1.4534
 2276TIP3   OH228242   3.763   1.448   1.423  0.4511 -0.1316  0.3216
 2276TIP3    H128243   3.738   1.525   1.474 -0.0176 -0.5739  0.7717
 2276TIP3    H228244   3.858   1.445   1.429  0.7850  2.0013 -2.0275
 2277TIP3   OH228245   2.686   0.254   2.052 -0.7618 -0.5472 -0.8032
 2277TIP3    H128246   2.657   0.208   2.130 -2.0327 -0.7457 -1.3547
 2277TIP3    H228247   2.780   0.240   2.048 -0.9543 -2.1346 -0.3423
 2278TIP3   OH228248   4.546   0.087  15.871 -0.5928 -0.4076 -0.4757
 2278TIP3    H128249   4.490   0.069  15.795  1.0232  0.2269 -1.8940
 2278TIP3    H228250   4.583   0.002  15.894  1.1384 -0.2030 -2.2930
 2279TIP3   OH228251   6.311   5.404  12.415  0.1670  0.1288 -0.5360
 2279TIP3    H128252   6.399   5.434  12.389 -0.3467  2.3527  0.1023
 2279TIP3    H228253   6.313   5.404  12.511 -0.1354 -1.1604 -0.5128
 2280TIP3   OH228254   2.354   0.511  14.503 -0.5382 -0.0582  1.0722
 2280TIP3    H128255   2.332   0.577  14.438 -1.0936  0.3053  1.6230
 2280TIP3    H228256   2.410   0.556  14.566 -0.5858 -0.2182  1.2310
 2281TIP3   OH228257   1.912   4.285  12.019 -0.0733 -0.3656 -0.1113
 2281TIP3    H128258   1.937   4.200  12.056  0.5127 -0.3881 -0.5376
 2281TIP3    H228259   1.874   4.263  11.934  1.1006 -0.1320 -0.7085
 2282TIP3   OH228260   3.645   2.015  12.391  0.1532 -0.3402 -0.2496
 2282TIP3    H128261   3.620   1.998  12.482 -0.7818  0.3624 -0.3536
 2282TIP3    H228262   3.568   1.988  12.340  1.0787 -1.7593 -0.9369
 2283TIP3   OH228263   1.356   1.396  13.479  0.2231  0.7247 -0.4779
 2283TIP3    H128264   1.267   1.386  13.443 -0.3514  1.5872  0.6280
 2283TIP3    H228265   1.383   1.483  13.449 -0.3597  1.5591  1.3185
 2284TIP3   OH228266   0.293   4.434   0.956 -0.3030 -0.6853  0.4881
 2284TIP3    H128267   0.278   4.340   0.948  1.5603 -0.9327 -0.8918
 2284TIP3    H228268   0.266   4.470   0.871 -0.0157 -0.1403  0.6229
 2285TIP3   OH228269   6.461   1.735  12.761 -0.8627  0.1840  0.0010
 2285TIP3    H128270   6.421   1.772  12.839  1.4134 -0.4012  1.5499
 2285TIP3    H228271   6.517   1.806  12.727 -0.7152 -0.0434 -0.2369
 2286TIP3   OH228272   5.905   1.429   3.948 -0.5133 -0.5548 -0.4931
 2286TIP3    H128273   5.960   1.409   4.023 -0.5914 -0.0888 -0.3117
 2286TIP3    H228274   5.862   1.346   3.927 -1.7005 -0.3400  0.9451
 2287TIP3   OH228275   5.028   1.362  15.704  0.0602  0.1097 -0.3035
 2287TIP3    H128276   5.068   1.288  15.748 -0.2823  0.0143 -0.1554
 2287TIP3    H228277   4.991   1.416  15.774  0.6889  0.6526 -0.3719
 2288TIP3   OH228278   4.405   4.344   5.752  0.0208  0.2954  0.1302
 2288TIP3    H128279   4.332   4.383   5.799 -0.4595 -2.2534  1.6581
 2288TIP3    H228280   4.482   4.394   5.782 -0.9036  2.4223 -0.8377
 2289TIP3   OH228281   2.488   4.021  16.238  0.4558 -0.1652 -0.0265
 2289TIP3    H128282   2.393   4.014  16.228  0.5542 -1.2375 -0.3272
 2289TIP3    H228283   2.500   4.065  16.323 -0.3089 -0.2891  0.1488
 2290TIP3   OH228284   3.199   3.903  15.407  0.2131 -0.4630 -0.1460
 2290TIP3    H128285   3.139   3.833  15.431  0.2937 -0.4090  0.2245
 2290TIP3    H228286   3.175   3.976  15.464  0.9828 -0.6173  0.3944
 2291TIP3   OH228287   1.509   4.481   3.824  0.4802  0.0508  0.1022
 2291TIP3    H128288   1.581   4.459   3.765  0.9005  0.4118  0.4773
 2291TIP3    H228289   1.436   4.502   3.766  0.5032 -0.8597 -0.2770
 2292TIP3   OH228290   2.238   1.648  16.829 -0.1775 -0.1401 -0.1859
 2292TIP3    H128291   2.256   1.556  16.848 -0.0008  0.1558  1.1424
 2292TIP3    H228292   2.143   1.657  16.842 -0.0511  0.0707  0.6336
 2293TIP3   OH228293   1.201   1.949   0.879 -0.0686 -0.0528 -0.0325
 2293TIP3    H128294   1.238   2.002   0.949 -1.6639 -0.6764  1.3511
 2293TIP3    H228295   1.147   1.884   0.924 -1.7316 -0.0271 -1.8508
 2294TIP3   OH228296   3.756   5.132  11.261  0.4196 -0.5915 -0.4554
 2294TIP3    H128297   3.813   5.127  11.184 -0.4963  1.2734 -1.3201
 2294TIP3    H228298   3.670   5.153  11.225 -0.2884 -0.9071  1.0006
 2295TIP3   OH228299   1.332   1.215   1.066  0.0003 -0.6889  0.0035
 2295TIP3    H128300   1.335   1.298   1.019  1.5445 -1.4428 -1.3681
 2295TIP3    H228301   1.276   1.159   1.012 -0.2597 -0.8238  0.4096
 2296TIP3   OH228302   4.918   1.602   0.072 -0.4302  0.2092 -0.4158
 2296TIP3    H128303   5.001   1.643   0.047  0.1366 -0.7379 -0.1338
 2296TIP3    H228304   4.941   1.512   0.094 -1.3043  0.3051  1.0590
 2297TIP3   OH228305   1.537   5.083  12.039  0.0352  0.1852  0.1264
 2297TIP3    H128306   1.612   5.123  11.995 -0.4358 -0.2588 -1.1250
 2297TIP3    H228307   1.465   5.145  12.025 -0.1320  0.0077  0.1855
 2298TIP3   OH228308   2.448   6.182   6.043  0.1119 -0.3334  1.0315
 2298TIP3    H128309   2.425   6.122   6.113  0.2894 -1.5097  0.1134
 2298TIP3    H228310   2.432   6.269   6.079 -0.9893 -0.9554  2.0884
 2299TIP3   OH228311   6.172   4.936  16.507  0.1090 -0.1155 -0.1324
 2299TIP3    H128312   6.097   4.890  16.547  0.7372 -0.3774  0.7760
 2299TIP3    H228313   6.162   5.027  16.537 -1.5455  0.5955 -2.5226
 2300TIP3   OH228314   1.687   6.736  11.194 -0.1340  0.0700  0.3152
 2300TIP3    H128315   1.781   6.738  11.213  0.1925  1.6295 -1.2133
 2300TIP3    H228316   1.678   6.787  11.113 -2.1762 -0.9393 -0.1482
 2301TIP3   OH228317   1.999   3.322   4.345 -0.2015  0.6134  0.1256
 2301TIP3    H128318   2.014   3.284   4.432  2.6826  0.5897 -0.2937
 2301TIP3    H228319   2.087   3.332   4.308 -1.3334  0.6392 -2.7935
 2302TIP3   OH228320   5.123   2.199   6.458  0.0632 -0.1145 -0.2457
 2302TIP3    H128321   5.029   2.218   6.459  0.0136 -0.3030 -0.9983
 2302TIP3    H228322   5.152   2.227   6.371  0.8761  0.7409  0.2802
 2303TIP3   OH228323   2.859   6.674   5.616 -0.0951 -0.6491  0.1988
 2303TIP3    H128324   2.777   6.630   5.639 -0.7827 -0.0118 -0.9286
 2303TIP3    H228325   2.836   6.729   5.541  0.7699  1.5297  1.4550
 2304TIP3   OH228326   6.363   6.086  15.375  0.2712  0.2222 -0.2979
 2304TIP3    H128327   6.319   6.170  15.390  0.3902  0.4339 -1.0675
 2304TIP3    H228328   6.295   6.029  15.340  0.3322  0.1905 -0.3660
 2305TIP3   OH228329   3.375   1.902  12.330 -0.0199 -0.2304  0.2971
 2305TIP3    H128330   3.348   1.892  12.421  0.0852  2.1256  0.6511
 2305TIP3    H228331   3.301   1.945  12.287  1.1075  1.5546  0.0518
 2306TIP3   OH228332   0.548   0.136   2.944 -0.0278  0.9767  0.1162
 2306TIP3    H128333   0.548   0.112   3.036 -0.2591  1.6293  0.2955
 2306TIP3    H228334   0.471   0.093   2.908 -0.3767  1.3575  0.4046
 2307TIP3   OH228335   0.322   3.560  16.370  0.2501  0.2556  0.4273
 2307TIP3    H128336   0.282   3.503  16.305 -0.6687 -0.0728  1.2691
 2307TIP3    H228337   0.328   3.645  16.326  1.5545 -0.4322 -0.8030
 2308TIP3   OH228338   3.803   1.385  11.171 -0.1412  0.3167  0.6524
 2308TIP3    H128339   3.877   1.404  11.113 -1.8032  0.8808 -1.4219
 2308TIP3    H228340   3.803   1.290  11.181  1.2807  0.3615  1.3478
 2309TIP3   OH228341   1.631   1.430  14.984 -0.6774 -0.3080  0.0765
 2309TIP3    H128342   1.547   1.477  14.977  0.2202  1.5977  1.4298
 2309TIP3    H228343   1.612   1.354  15.039 -1.6022 -0.1168  0.0348
 2310TIP3   OH228344   6.310   3.556   2.996 -0.1965  0.1909  0.6103
 2310TIP3    H128345   6.397   3.595   2.984 -0.8405  1.4256 -0.2936
 2310TIP3    H228346   6.303   3.541   3.090  0.8806  0.3261  0.7285
 2311TIP3   OH228347   6.605   3.692  16.163  0.5083  0.5772  0.7897
 2311TIP3    H128348   6.514   3.707  16.189  0.0992 -1.6083  0.8305
 2311TIP3    H228349   6.649   3.665  16.243  0.6819 -0.3707  0.3893
 2312TIP3   OH228350   6.728   3.476   2.346 -0.1135  0.4423  0.3001
 2312TIP3    H128351   6.740   3.518   2.261 -1.6461  0.2419 -0.0362
 2312TIP3    H228352   6.633   3.471   2.357  0.0640 -0.1629  1.7139
 2313TIP3   OH228353   5.018   0.767  11.080  0.0010  0.1673  0.5723
 2313TIP3    H128354   5.038   0.674  11.086 -0.3279  0.0964  0.5934
 2313TIP3    H228355   5.098   0.807  11.044 -0.8035 -0.5122 -2.2285
 2314TIP3   OH228356   5.292   5.014   1.869  0.0009 -0.0103 -0.3940
 2314TIP3    H128357   5.297   4.943   1.932 -0.1084  0.9130  0.7045
 2314TIP3    H228358   5.250   5.086   1.918 -0.7895  0.4868 -1.7540
 2315TIP3   OH228359   2.135   5.034  14.903 -0.0281  0.3832 -0.0642
 2315TIP3    H128360   2.046   5.062  14.883 -0.2910 -1.1451 -1.1819
 2315TIP3    H228361   2.124   4.962  14.965  0.4858  0.5763  0.2626
 2316TIP3   OH228362   0.361   1.378  12.759 -0.4033  0.0795 -0.4923
 2316TIP3    H128363   0.382   1.471  12.753 -0.3950  0.1281  0.2044
 2316TIP3    H228364   0.413   1.337  12.690  0.1251  0.5071 -0.3516
 2317TIP3   OH228365   5.802   1.070  14.388 -0.2108 -1.1178 -0.1194
 2317TIP3    H128366   5.810   1.051  14.482  0.6741  3.1564  0.8892
 2317TIP3    H228367   5.884   1.113  14.365 -0.1298 -2.6551 -3.1064
 2318TIP3   OH228368   5.709   5.762  12.942 -0.2058 -0.3901 -0.2255
 2318TIP3    H128369   5.615   5.750  12.958 -0.5571  1.8153 -0.4080
 2318TIP3    H228370   5.742   5.799  13.023  0.5048 -1.0485 -0.2069
 2319TIP3   OH228371   6.445   2.628   5.916  0.5605 -0.1078 -0.0657
 2319TIP3    H128372   6.351   2.613   5.924  0.5251  0.2383  0.1962
 2319TIP3    H228373   6.455   2.723   5.919  1.0479 -0.1758  1.4714
 2320TIP3   OH228374   0.342   2.919  15.739  0.2786  0.6981  0.2210
 2320TIP3    H128375   0.291   2.992  15.773  1.2192  0.9542  1.1547
 2320TIP3    H228376   0.282   2.871  15.683 -2.0834 -0.8729  3.6960
 2321TIP3   OH228377   1.825   0.100  16.376 -0.0542 -0.1598  0.8577
 2321TIP3    H128378   1.834   0.174  16.435 -0.0666  1.0492 -0.5858
 2321TIP3    H228379   1.828   0.139  16.288 -1.2744 -1.7235  0.0631
 2322TIP3   OH228380   2.804   5.419  14.063  0.7365  0.3364  0.3644
 2322TIP3    H128381   2.761   5.343  14.024  0.2655  1.3308 -1.1274
 2322TIP3    H228382   2.805   5.401  14.157 -0.1707 -1.0918  0.1214
 2323TIP3   OH228383   2.638   3.570  15.043 -0.1552  0.7760  0.3452
 2323TIP3    H128384   2.599   3.651  15.076 -0.7620  0.9153 -0.6803
 2323TIP3    H228385   2.564   3.510  15.033 -0.2620  1.2300 -2.1678
 2324TIP3   OH228386   5.909   2.941   5.149 -0.3742  0.4942 -0.1139
 2324TIP3    H128387   5.840   2.906   5.093 -1.6518  0.9374  1.1022
 2324TIP3    H228388   5.913   2.879   5.222  2.2010 -0.8218 -1.2573
 2325TIP3   OH228389   1.359   5.067  14.430 -0.0838 -0.0207 -0.0940
 2325TIP3    H128390   1.363   4.984  14.384  0.3073 -0.2323  0.3075
 2325TIP3    H228391   1.285   5.058  14.490  0.9211 -0.7129  1.1083
 2326TIP3   OH228392   4.659   4.522  15.879  0.6264 -0.7050  0.2011
 2326TIP3    H128393   4.751   4.547  15.893  0.1723  1.5197 -0.3488
 2326TIP3    H228394   4.654   4.502  15.786  0.9084 -2.7138  0.5757
 2327TIP3   OH228395   5.806   0.579  14.621 -0.2748  0.9884  0.0186
 2327TIP3    H128396   5.849   0.501  14.656  0.7226  1.0041 -1.1279
 2327TIP3    H228397   5.715   0.572  14.652  0.3803  0.6762  2.0074
 2328TIP3   OH228398   2.828   4.818   5.845  0.1386  0.4599  0.9250
 2328TIP3    H128399   2.889   4.832   5.773 -0.1218 -0.3886  0.5331
 2328TIP3    H228400   2.807   4.906   5.876 -0.4335  0.8910 -0.6054
 2329TIP3   OH228401   2.983   6.110   2.920 -0.9383  0.2796 -0.0930
 2329TIP3    H128402   2.938   6.171   2.979 -0.0518 -1.2487  2.3041
 2329TIP3    H228403   2.912   6.063   2.875 -1.6608  0.9211  0.3549
 2330TIP3   OH228404   3.801   5.693  13.121  0.3624 -0.0042 -0.3550
 2330TIP3    H128405   3.779   5.605  13.151 -0.3614 -0.3114 -1.6985
 2330TIP3    H228406   3.853   5.731  13.192  0.2101 -1.3091  0.4786
 2331TIP3   OH228407   3.397   0.649  17.034  0.1509  0.3467  0.0411
 2331TIP3    H128408   3.439   0.616  16.955  1.3558  2.4938 -0.2840
 2331TIP3    H228409   3.304   0.629  17.022  0.3353  0.4174 -1.8138
 2332TIP3   OH228410   1.015   6.102  15.354 -0.4495  0.2964 -1.1051
 2332TIP3    H128411   0.929   6.103  15.311 -0.7090 -2.0125 -0.7648
 2332TIP3    H228412   1.031   6.194  15.377 -2.7532  0.8153 -1.2982
 2333TIP3   OH228413   6.197   0.730   5.290 -0.6768  0.2929 -0.4940
 2333TIP3    H128414   6.282   0.771   5.309 -0.7149 -0.0144  0.4100
 2333TIP3    H228415   6.208   0.690   5.204 -0.5165  1.8639 -1.2477
 2334TIP3   OH228416   6.533   4.286  10.846  0.3288  0.4420 -0.5771
 2334TIP3    H128417   6.576   4.229  10.910 -1.5538  0.9300  1.2659
 2334TIP3    H228418   6.462   4.233  10.810 -0.1763  0.9536 -0.3585
 2335TIP3   OH228419   1.824   5.728  13.945  0.0146 -0.5234  0.4024
 2335TIP3    H128420   1.800   5.653  13.891  0.1574 -0.3723  0.1244
 2335TIP3    H228421   1.916   5.713  13.967  0.5398  0.3674 -1.0161
 2336TIP3   OH228422   1.267   2.609  14.229 -0.6236  0.1929 -0.5633
 2336TIP3    H128423   1.217   2.543  14.277 -1.3256  0.6216 -0.7011
 2336TIP3    H228424   1.357   2.575  14.229 -0.4548  0.5160  1.6741
 2337TIP3   OH228425   3.657   5.986  14.054  0.2790 -0.6255  0.3428
 2337TIP3    H128426   3.693   6.040  14.124  0.5147 -0.7053  0.2855
 2337TIP3    H228427   3.601   6.045  14.004 -0.8132 -0.8327  1.2640
 2338TIP3   OH228428   0.828   4.349   5.314 -0.5211 -0.0752  0.3011
 2338TIP3    H128429   0.782   4.292   5.375  1.6494  0.2142  2.3699
 2338TIP3    H228430   0.869   4.290   5.251  0.8309 -0.8205  1.7934
 2339TIP3   OH228431   1.686   3.444  10.868  0.2286  0.0231 -0.3531
 2339TIP3    H128432   1.699   3.529  10.827 -0.4484  0.5063  0.3899
 2339TIP3    H228433   1.618   3.402  10.815  0.2843  0.1121 -0.4944
 2340TIP3   OH228434   3.422   2.990  11.542 -0.6968 -0.1980  0.2179
 2340TIP3    H128435   3.469   3.068  11.571  2.0575 -1.5178 -0.2867
 2340TIP3    H228436   3.472   2.917  11.581 -0.8375 -1.7977 -2.3659
 2341TIP3   OH228437   0.919   3.891   1.779  0.0211 -0.1204  0.1365
 2341TIP3    H128438   0.850   3.918   1.720  0.4285 -1.0010 -0.7804
 2341TIP3    H228439   0.877   3.830   1.839 -0.1363 -0.1858 -0.0391
 2342TIP3   OH228440   2.988   5.314  15.594  0.5904 -0.3974 -0.4309
 2342TIP3    H128441   3.036   5.394  15.615 -0.9416  0.5851 -0.4927
 2342TIP3    H228442   3.050   5.261  15.545  1.9325  0.3584  0.3772
 2343TIP3   OH228443   6.011   4.401  14.959  0.2649  0.7493  0.2036
 2343TIP3    H128444   6.031   4.330  14.899 -0.4876  1.1602 -0.5540
 2343TIP3    H228445   6.012   4.361  15.046  0.9703  0.0669 -0.1076
 2344TIP3   OH228446   0.860   3.100  11.335 -0.1349  0.2205 -0.1276
 2344TIP3    H128447   0.847   3.096  11.430  2.6647 -1.1060  0.3149
 2344TIP3    H228448   0.837   3.012  11.305  1.2635 -0.1348 -0.2470
 2345TIP3   OH228449   3.005   1.041  14.413  0.4390  0.6793 -0.0860
 2345TIP3    H128450   2.928   0.991  14.388  1.7969 -0.3410 -2.6250
 2345TIP3    H228451   3.008   1.035  14.508  0.7144 -4.6140 -0.1196
 2346TIP3   OH228452   1.543   2.455  15.094 -0.0240  0.4513 -0.1817
 2346TIP3    H128453   1.527   2.524  15.159  0.8594  0.7900 -0.3105
 2346TIP3    H228454   1.563   2.378  15.147 -0.5395  0.4168 -0.0377
 2347TIP3   OH228455   4.509   4.488  16.376 -0.4428 -0.0212 -0.2256
 2347TIP3    H128456   4.526   4.467  16.467  1.1152 -2.2807 -0.9454
 2347TIP3    H228457   4.414   4.504  16.372 -0.5079  0.2571  1.7769
 2348TIP3   OH228458   1.959   0.424   1.404 -0.1797 -0.0356 -0.3048
 2348TIP3    H128459   1.983   0.442   1.494  0.6447  0.3868 -0.5959
 2348TIP3    H228460   1.881   0.368   1.410  0.6112 -1.0696  0.6619
 2349TIP3   OH228461   3.242   3.253   0.574 -0.3370  0.2200  0.3898
 2349TIP3    H128462   3.236   3.172   0.524 -0.0954  0.7099 -0.4547
 2349TIP3    H228463   3.321   3.244   0.626 -0.5980 -0.3020  0.7081
 2350TIP3   OH228464   1.650   6.195   5.322  0.4678 -0.0971 -0.1155
 2350TIP3    H128465   1.634   6.161   5.234 -1.2493 -0.1440  0.1883
 2350TIP3    H228466   1.611   6.130   5.381  0.6154  0.4790  0.6331
 2351TIP3   OH228467   1.535   5.895  11.443  0.5374  0.0551 -0.2077
 2351TIP3    H128468   1.456   5.883  11.497  0.7947 -0.1941  0.1216
 2351TIP3    H228469   1.515   5.848  11.362  0.8721 -1.2149  0.4136
 2352TIP3   OH228470   6.278   2.891  12.192 -0.6762  0.2400  0.3607
 2352TIP3    H128471   6.372   2.887  12.180 -0.8825  0.9607 -2.0708
 2352TIP3    H228472   6.264   2.877  12.286  1.7790 -0.4442  0.6721
 2353TIP3   OH228473   0.444   1.588  15.408  0.7939 -0.5886  0.1455
 2353TIP3    H128474   0.393   1.659  15.369  0.5984 -1.2080 -0.7856
 2353TIP3    H228475   0.437   1.516  15.344  0.8023 -1.5194  1.1524
 2354TIP3   OH228476   4.990   0.223  16.349 -0.4745  0.4362  0.1090
 2354TIP3    H128477   4.918   0.223  16.287  0.3104 -2.8469 -0.9718
 2354TIP3    H228478   5.069   0.216  16.295  0.4756  0.9224  1.3755
 2355TIP3   OH228479   6.559   4.981   1.115 -0.3306 -0.1272 -0.1112
 2355TIP3    H128480   6.651   5.004   1.126 -0.7690  1.6982 -0.0180
 2355TIP3    H228481   6.533   4.945   1.200  0.1171 -0.0337  0.0672
 2356TIP3   OH228482   0.963   2.467   2.421 -0.6716 -0.4490  0.7424
 2356TIP3    H128483   1.054   2.437   2.429 -0.2114  0.5014 -0.4493
 2356TIP3    H228484   0.937   2.490   2.510  0.5114 -0.0879  1.0155
 2357TIP3   OH228485   3.073   1.371  14.800  0.3313 -0.0635 -0.4167
 2357TIP3    H128486   3.002   1.313  14.773  0.9389 -0.1360 -1.9558
 2357TIP3    H228487   3.130   1.315  14.853  0.4340 -0.6309 -1.1129
 2358TIP3   OH228488   4.107   3.005  12.314 -0.4068  0.1023  0.0560
 2358TIP3    H128489   4.147   3.092  12.320 -0.3429  0.3975 -3.1634
 2358TIP3    H228490   4.175   2.945  12.346  1.5184  0.8761 -2.3206
 2359TIP3   OH228491   0.574   2.863  13.713  0.2273  0.3676 -0.6558
 2359TIP3    H128492   0.536   2.951  13.719 -2.0003 -0.4329 -1.9566
 2359TIP3    H228493   0.538   2.827  13.633  0.1435 -2.1835  0.4451
 2360TIP3   OH228494   2.425   1.767  14.489  0.3052  0.3447  0.4656
 2360TIP3    H128495   2.391   1.701  14.550  0.5763 -0.6011 -0.3837
 2360TIP3    H228496   2.440   1.719  14.407 -1.4280  1.8466 -0.8272
 2361TIP3   OH228497   3.829   0.196  12.594  0.4675  0.2652 -0.2129
 2361TIP3    H128498   3.808   0.231  12.507  0.6611 -0.8968 -0.7532
 2361TIP3    H228499   3.917   0.231  12.613  0.5631  0.2598 -0.6305
 2362TIP3   OH228500   6.237   2.191   5.974 -0.1048  0.1285 -0.2638
 2362TIP3    H128501   6.268   2.180   6.064 -0.5052  2.9283  0.3012
 2362TIP3    H228502   6.143   2.206   5.983 -0.1777  0.2523 -1.1599
 2363TIP3   OH228503   4.372   5.975   6.744  0.1008  0.1565 -0.2679
 2363TIP3    H128504   4.324   6.012   6.818  0.7266 -1.9205  1.2744
 2363TIP3    H228505   4.316   5.905   6.711  1.0775 -0.8015  0.0879
 2364TIP3   OH228506   5.354   0.369   4.889 -0.2031  0.1264 -0.1792
 2364TIP3    H128507   5.384   0.282   4.861 -0.4486  0.1234 -0.4406
 2364TIP3    H228508   5.434   0.419   4.905 -0.0585  0.1461 -0.9450
 2365TIP3   OH228509   5.765   2.676   0.271  0.4473  0.0292  0.4395
 2365TIP3    H128510   5.833   2.634   0.219  1.0682 -0.6400  1.7330
 2365TIP3    H228511   5.744   2.611   0.338 -0.8750  0.5650  0.5553
 2366TIP3   OH228512   0.790   0.354  15.646 -0.5471 -0.5643 -0.3239
 2366TIP3    H128513   0.880   0.383  15.656 -0.4509 -1.0958  0.3745
 2366TIP3    H228514   0.737   0.428  15.676 -0.3270 -0.6293  0.2285
 2367TIP3   OH228515   4.981   1.212   5.119 -0.0788 -0.9773 -0.0742
 2367TIP3    H128516   5.003   1.119   5.126  1.5827 -0.7282 -1.2992
 2367TIP3    H228517   5.012   1.238   5.032 -0.1222  0.8189  0.3901
 2368TIP3   OH228518   3.232   0.339  14.721  0.0311 -0.1360 -0.6161
 2368TIP3    H128519   3.268   0.276  14.659 -0.4186 -0.2078 -0.8116
 2368TIP3    H228520   3.140   0.313  14.731 -0.1481  0.4587 -0.6676
 2369TIP3   OH228521   2.968   0.995   0.025  0.3279 -0.3351  0.2532
 2369TIP3    H128522   3.035   1.056   0.056 -1.2404  0.6305  1.9402
 2369TIP3    H228523   2.954   1.020  -0.066  0.2949  1.3212  0.6793
 2370TIP3   OH228524   4.031   0.999   0.230 -0.1040  0.1626  0.0253
 2370TIP3    H128525   4.035   0.999   0.325  0.3406 -0.7291  0.0115
 2370TIP3    H228526   3.937   1.007   0.210 -0.4094 -1.6583  0.5672
 2371TIP3   OH228527   1.813   5.656   1.923 -0.2988  0.0236  0.0874
 2371TIP3    H128528   1.836   5.588   1.860  2.5814  0.6628  0.3507
 2371TIP3    H228529   1.848   5.737   1.887 -1.0413  0.8849  1.2136
 2372TIP3   OH228530   6.549   5.669   6.261  0.2355 -0.1833 -0.0283
 2372TIP3    H128531   6.485   5.599   6.276 -1.7198  1.7820  1.3839
 2372TIP3    H228532   6.497   5.740   6.223  1.2691  1.9156  2.2600
 2373TIP3   OH228533   5.781   0.158   2.031 -0.0792 -0.2685 -0.8264
 2373TIP3    H128534   5.686   0.172   2.033  0.0637  0.9688  1.8562
 2373TIP3    H228535   5.814   0.231   1.978 -0.5663 -0.4148 -1.3482
 2374TIP3   OH228536   0.082   1.566  14.283  0.0851 -0.0383  0.4047
 2374TIP3    H128537   0.028   1.608  14.351  1.5964  1.3510  0.8053
 2374TIP3    H228538   0.060   1.613  14.203 -0.2595 -0.3620  0.3073
 2375TIP3   OH228539   6.450   2.647  12.107 -0.1341 -0.4296  0.0112
 2375TIP3    H128540   6.414   2.652  12.196 -1.7816 -0.2478 -0.6377
 2375TIP3    H228541   6.517   2.578  12.113  0.8142  0.5615  1.7043
 2376TIP3   OH228542   6.665   6.507   0.505 -0.2919 -0.2630 -0.7302
 2376TIP3    H128543   6.714   6.466   0.577 -0.7327 -0.5937 -0.6122
 2376TIP3    H228544   6.611   6.436   0.470 -0.6605  0.0889 -0.8801
 2377TIP3   OH228545   1.348   5.962  12.996  0.7069  0.1689 -0.3253
 2377TIP3    H128546   1.260   5.944  13.028  0.7875 -0.4994 -0.4698
 2377TIP3    H228547   1.357   6.057  13.003  0.6506  0.0665  1.4097
 2378TIP3   OH228548   5.439   1.792   2.130 -0.4740  0.4756 -0.2117
 2378TIP3    H128549   5.385   1.718   2.104 -1.0265 -0.4413  3.1427
 2378TIP3    H228550   5.381   1.868   2.124 -1.4041 -0.1237  0.9339
 2379TIP3   OH228551   1.864   5.035  11.565 -0.4872 -0.0595 -0.3182
 2379TIP3    H128552   1.851   4.940  11.567  2.7785 -0.6159  0.0747
 2379TIP3    H228553   1.912   5.055  11.645  1.9631  1.2880 -1.9680
 2380TIP3   OH228554   1.610   0.062   6.016  0.5787  0.3378 -0.1430
 2380TIP3    H128555   1.600   0.136   6.076 -0.2193 -1.9656  2.7689
 2380TIP3    H228556   1.690   0.018   6.045 -0.8707 -1.9431  0.6452
 2381TIP3   OH228557   2.418   5.580   3.608 -0.3488  0.1775 -0.3043
 2381TIP3    H128558   2.504   5.592   3.568 -0.0174  0.4553  0.4751
 2381TIP3    H228559   2.404   5.485   3.606  1.4510 -0.2605  2.4828
 2382TIP3   OH228560   4.394   2.657  16.933  0.8431  0.0948  0.2207
 2382TIP3    H128561   4.388   2.577  16.880  4.1465 -2.0549  2.6991
 2382TIP3    H228562   4.453   2.714  16.883 -1.3167  1.0497 -1.4273
 2383TIP3   OH228563   0.937   3.880   2.238  0.1318  0.0235 -0.2978
 2383TIP3    H128564   0.909   3.932   2.314 -1.5369 -0.2794 -0.6614
 2383TIP3    H228565   0.953   3.945   2.169 -1.3984  0.1308 -0.5833
 2384TIP3   OH228566   2.682   6.615   4.736  0.1444  0.4876 -0.3330
 2384TIP3    H128567   2.759   6.641   4.685  0.4270  0.0034 -0.1647
 2384TIP3    H228568   2.690   6.520   4.745 -0.3859  0.4541 -0.1682
 2385TIP3   OH228569   4.523   2.962  10.781  0.1717 -0.8232 -0.0396
 2385TIP3    H128570   4.470   3.024  10.732  0.6381 -0.2833  0.1372
 2385TIP3    H228571   4.466   2.885  10.792 -0.8439  0.0236  0.7960
 2386TIP3   OH228572   5.557   1.327   3.607  0.0834  0.7150  0.3687
 2386TIP3    H128573   5.570   1.329   3.512 -0.8480 -0.4169  0.1946
 2386TIP3    H228574   5.487   1.263   3.620  2.7251 -2.1036  2.0645
 2387TIP3   OH228575   6.571   1.984  15.712 -0.2330 -0.1899 -0.2193
 2387TIP3    H128576   6.571   2.048  15.783 -1.4202  0.1650 -0.5193
 2387TIP3    H228577   6.608   1.905  15.751 -0.7375  0.0396  0.7686
 2388TIP3   OH228578   3.562   0.629   5.445 -0.0790  0.3778  0.0754
 2388TIP3    H128579   3.494   0.696   5.453 -0.6305 -0.2669  0.9413
 2388TIP3    H228580   3.551   0.575   5.523  0.2945 -0.7737 -0.6504
 2389TIP3   OH228581   6.636   2.869  15.174 -0.4759 -0.7131 -0.0782
 2389TIP3    H128582   6.729   2.882  15.156 -0.4318 -0.6632  0.1821
 2389TIP3    H228583   6.627   2.889  15.267 -1.1212  1.4738 -0.5343
 2390TIP3   OH228584   4.838   2.826   1.559  0.5100  0.2944 -0.4718
 2390TIP3    H128585   4.744   2.810   1.554  0.9642 -2.3788 -2.7199
 2390TIP3    H228586   4.846   2.920   1.580 -2.5771  0.2625  1.4522
 2391TIP3   OH228587   3.951   5.570  15.960 -0.5574  0.4594  0.0053
 2391TIP3    H128588   3.959   5.516  16.039 -5.1533 -0.4966  0.0728
 2391TIP3    H228589   4.019   5.537  15.902 -0.3036 -2.3328  1.7068
 2392TIP3   OH228590   6.138   3.155   3.772 -0.1452  0.2053 -0.3292
 2392TIP3    H128591   6.155   3.206   3.693  2.1700  0.1555  0.0676
 2392TIP3    H228592   6.046   3.130   3.765 -0.1115  0.5161 -2.8046
 2393TIP3   OH228593   0.188   3.882  14.517  0.8172  0.3592  0.2574
 2393TIP3    H128594   0.174   3.977  14.521 -2.4376  0.0343 -0.4860
 2393TIP3    H228595   0.188   3.854  14.608  0.6882  0.9671  0.4514
 2394TIP3   OH228596   2.414   3.183  11.895  0.3943 -0.5147 -0.3768
 2394TIP3    H128597   2.481   3.243  11.864  1.2404 -1.3381 -0.2073
 2394TIP3    H228598   2.332   3.230  11.885  1.0638  0.7831  0.0742
 2395TIP3   OH228599   3.291   0.224  16.369  0.3468  0.0995 -0.0014
 2395TIP3    H128600   3.213   0.180  16.404 -0.7467  0.9836 -1.1947
 2395TIP3    H228601   3.310   0.178  16.287  0.3602  0.6218 -0.2968
 2396TIP3   OH228602   3.864   0.277  11.575 -0.6686 -0.1598  0.2397
 2396TIP3    H128603   3.798   0.327  11.525  0.7685  2.8245  1.0972
 2396TIP3    H228604   3.938   0.268  11.515 -0.1620  0.5592  0.7450
 2397TIP3   OH228605   6.703   5.512   2.987 -0.0626 -0.0138 -0.0976
 2397TIP3    H128606   6.723   5.458   2.911 -3.3236 -1.2178 -0.2673
 2397TIP3    H228607   6.733   5.461   3.062 -0.7632 -0.8952 -0.3986
 2398TIP3   OH228608   6.437   5.812   5.441  0.0210 -0.0573  0.5278
 2398TIP3    H128609   6.426   5.732   5.493 -0.5571 -0.3131  0.0229
 2398TIP3    H228610   6.468   5.877   5.504 -0.6150 -0.3773  1.1859
 2399TIP3   OH228611   5.939   2.582   6.545 -0.3983 -0.0136 -0.4219
 2399TIP3    H128612   5.971   2.619   6.627 -1.6475  1.7119 -0.6446
 2399TIP3    H228613   5.950   2.487   6.555  1.1170  0.2671  0.9963
 2400TIP3   OH228614   3.250   2.252   2.076 -0.5098  0.4503  0.5567
 2400TIP3    H128615   3.320   2.234   2.013 -0.0978 -2.7661  1.7422
 2400TIP3    H228616   3.170   2.253   2.023  0.1834  2.3629 -0.5573
 2401TIP3   OH228617   0.095   6.112  12.193  0.4863  0.7094  0.1040
 2401TIP3    H128618   0.042   6.164  12.132  0.5246  0.1305 -0.4349
 2401TIP3    H228619   0.097   6.025  12.153  1.6203  0.6619  0.2570
 2402TIP3   OH228620   6.069   5.172   3.984  0.6336  0.0798 -0.2214
 2402TIP3    H128621   6.109   5.181   4.070 -0.3747 -0.6264  0.3404
 2402TIP3    H228622   6.064   5.078   3.970  2.2205  0.1774 -1.7585
 2403TIP3   OH228623   0.847   3.766  15.139  0.1044 -0.0849 -0.4297
 2403TIP3    H128624   0.884   3.792  15.055 -1.7562 -1.2776 -1.7006
 2403TIP3    H228625   0.846   3.846  15.191  1.2504  0.6925 -1.5311
 2404TIP3   OH228626   4.625   6.393   3.044 -0.1867  0.8188 -0.3673
 2404TIP3    H128627   4.565   6.319   3.034 -1.9746  2.2104 -0.4106
 2404TIP3    H228628   4.688   6.364   3.110  1.1825 -1.9407 -2.6965
 2405TIP3   OH228629   2.195   3.074   2.745 -0.4930 -0.1807  0.3083
 2405TIP3    H128630   2.201   3.046   2.836 -1.3976  0.1560  0.4787
 2405TIP3    H228631   2.143   3.006   2.702  1.6994 -1.4780 -0.4725
 2406TIP3   OH228632   5.989   6.049  14.851 -1.1174 -0.7022 -0.0208
 2406TIP3    H128633   5.993   6.012  14.763 -3.1566 -0.0143 -0.4414
 2406TIP3    H228634   5.899   6.078  14.862 -1.2784 -1.8847  2.7751
 2407TIP3   OH228635   3.786   5.196   6.665 -0.0553  0.7903 -0.1510
 2407TIP3    H128636   3.846   5.133   6.625 -1.8564  0.0330 -1.8561
 2407TIP3    H228637   3.815   5.281   6.631  1.8888  0.8526  1.5159
 2408TIP3   OH228638   3.192   6.311  12.678 -0.2674  0.5031 -0.1347
 2408TIP3    H128639   3.283   6.320  12.707 -0.8234  2.3315  1.2447
 2408TIP3    H228640   3.188   6.360  12.596  0.0956 -0.0424 -0.4847
 2409TIP3   OH228641   5.094   4.235   2.763  0.2260  0.1730 -0.2614
 2409TIP3    H128642   5.115   4.222   2.671 -0.1453  0.7543 -0.4316
 2409TIP3    H228643   5.136   4.162   2.808 -0.1270 -0.4717 -0.9619
 2410TIP3   OH228644   5.234   5.554   2.083 -0.3505  0.5929 -0.0122
 2410TIP3    H128645   5.256   5.623   2.146  1.3966  2.1926 -2.1819
 2410TIP3    H228646   5.208   5.602   2.003  0.7946 -1.2092 -1.5548
 2411TIP3   OH228647   5.098   2.825   3.887  0.4511  0.7092 -0.2499
 2411TIP3    H128648   5.172   2.869   3.845  1.8126 -1.5953 -0.3996
 2411TIP3    H228649   5.107   2.846   3.980  0.4665  1.5725 -0.4385
 2412TIP3   OH228650   6.494   0.256   4.991 -0.0003 -0.2518 -0.4257
 2412TIP3    H128651   6.494   0.176   5.044  0.0842 -0.5485 -0.8703
 2412TIP3    H228652   6.568   0.245   4.930  0.4580  0.4757 -0.0255
 2413TIP3   OH228653   2.047   1.652  12.034 -0.0519 -0.3907  0.0131
 2413TIP3    H128654   2.050   1.671  12.128 -0.6137 -2.2540  0.4555
 2413TIP3    H228655   2.071   1.735  11.992 -2.1744  1.2157  1.7201
 2414TIP3   OH228656   6.531   1.680  14.081 -0.3958  0.1756 -0.0051
 2414TIP3    H128657   6.591   1.743  14.121  1.7210 -0.9436 -1.2373
 2414TIP3    H228658   6.548   1.688  13.987 -1.4677 -0.8870 -0.3127
 2415TIP3   OH228659   1.542   3.480  15.596  0.4777  0.0449 -0.1586
 2415TIP3    H128660   1.525   3.438  15.681  0.2300  1.0407  0.2921
 2415TIP3    H228661   1.472   3.448  15.539 -0.4434  0.8106  0.5252
 2416TIP3   OH228662   4.012   2.722   2.113  0.2355  0.4454 -0.4511
 2416TIP3    H128663   4.084   2.665   2.085  1.0939  1.5639 -0.5556
 2416TIP3    H228664   3.992   2.694   2.202 -1.0822 -1.7145 -1.3167
 2417TIP3   OH228665   5.655   6.397   1.395 -0.5604 -0.3243  0.2107
 2417TIP3    H128666   5.723   6.440   1.448 -1.0844  0.4001  0.3160
 2417TIP3    H228667   5.633   6.462   1.328  0.3594 -1.3735 -1.1580
 2418TIP3   OH228668   3.028   3.714   3.067 -0.0127 -0.4751  0.2344
 2418TIP3    H128669   2.994   3.710   3.156 -1.2787 -0.3875 -0.2162
 2418TIP3    H228670   2.979   3.785   3.026  1.6283  0.5194 -0.1223
 2419TIP3   OH228671   3.318   3.138  14.334  0.7858  0.3954  0.0594
 2419TIP3    H128672   3.355   3.223  14.358 -0.4847  1.1280 -0.5092
 2419TIP3    H228673   3.263   3.156  14.258 -1.7988 -0.3725  1.6178
 2420TIP3   OH228674   0.971   0.850  11.374  0.1045  0.4462 -0.4595
 2420TIP3    H128675   1.028   0.834  11.299 -1.5259 -0.3642 -1.6040
 2420TIP3    H228676   0.984   0.775  11.431  1.8798  1.4030  0.4999
 2421TIP3   OH228677   1.344   6.440  13.833 -0.9738  0.1634  0.2900
 2421TIP3    H128678   1.359   6.369  13.897 -0.9766  0.9203  1.1518
 2421TIP3    H228679   1.331   6.518  13.887 -0.1336  0.9814 -0.6663
 2422TIP3   OH228680   0.470   4.198  16.345 -0.0863  0.1299  0.2479
 2422TIP3    H128681   0.564   4.216  16.349 -0.3943  1.6839  1.5165
 2422TIP3    H228682   0.458   4.120  16.400  0.3147  0.6497  1.0934
 2423TIP3   OH228683   0.691   3.372  11.197 -0.0675  0.1922 -0.0851
 2423TIP3    H128684   0.672   3.368  11.291  0.0485  1.4740  0.0144
 2423TIP3    H228685   0.623   3.431  11.162  0.1575  0.0745 -0.7317
 2424TIP3   OH228686   5.987   4.858  12.715  0.2572  0.6852  0.0223
 2424TIP3    H128687   5.926   4.841  12.786 -1.2971  0.9596 -1.1898
 2424TIP3    H228688   6.073   4.848  12.754 -0.5550 -0.9401  1.4972
 2425TIP3   OH228689   3.300   1.494  13.875 -0.2529 -0.1618 -0.4279
 2425TIP3    H128690   3.317   1.579  13.916 -0.4393 -0.3869  0.1166
 2425TIP3    H228691   3.358   1.433  13.920 -0.3517 -0.3838 -0.6008
 2426TIP3   OH228692   0.927   0.694  16.346  0.2594  0.0968 -0.2958
 2426TIP3    H128693   0.851   0.748  16.323  0.1413 -0.4575 -1.2587
 2426TIP3    H228694   0.890   0.616  16.387  0.2591 -0.4314 -1.2757
 2427TIP3   OH228695   2.243   5.873   0.777 -0.5965 -0.3489 -0.1720
 2427TIP3    H128696   2.313   5.923   0.734  1.6296 -1.4605  1.9370
 2427TIP3    H228697   2.199   5.937   0.833 -0.7046  0.1463 -0.7980
 2428TIP3   OH228698   2.250   2.688  15.236 -0.0427 -0.1042 -0.4029
 2428TIP3    H128699   2.244   2.620  15.303  0.9285  0.5679  0.3803
 2428TIP3    H228700   2.320   2.659  15.178 -0.2652 -0.2219 -0.6206
 2429TIP3   OH228701   4.765   6.435   4.503  0.1903 -0.7674  0.1429
 2429TIP3    H128702   4.744   6.468   4.591  1.9941 -0.9559  0.6917
 2429TIP3    H228703   4.794   6.512   4.455 -2.2946 -0.3664 -0.8539
 2430TIP3   OH228704   4.912   0.581   0.460  0.4812  0.0226 -1.1784
 2430TIP3    H128705   4.876   0.658   0.504  0.9282  0.3287 -1.3395
 2430TIP3    H228706   4.859   0.508   0.491  1.1987  0.1302  0.4050
 2431TIP3   OH228707   3.781   1.100  15.554  0.1064  0.0652 -0.0487
 2431TIP3    H128708   3.771   1.019  15.603 -1.1087  0.3114  0.1446
 2431TIP3    H228709   3.784   1.168  15.621 -2.2636  0.4752 -0.2539
 2432TIP3   OH228710   4.821   0.376   6.118 -0.2496 -0.0552  0.3298
 2432TIP3    H128711   4.760   0.316   6.075  3.0225 -3.0451 -0.6165
 2432TIP3    H228712   4.796   0.374   6.210 -1.0646 -1.8430  0.1089
 2433TIP3   OH228713   0.936   0.812   4.094 -0.6957  0.6404 -0.1131
 2433TIP3    H128714   0.950   0.757   4.171 -2.2833 -2.9074 -2.1217
 2433TIP3    H228715   0.898   0.892   4.129 -2.2285 -1.1526  2.7666
 2434TIP3   OH228716   0.405   6.150   3.149  0.0777 -0.0468 -0.6513
 2434TIP3    H128717   0.332   6.090   3.132  0.2705 -0.3540 -0.4116
 2434TIP3    H228718   0.481   6.093   3.156 -0.2083 -0.1777  3.0259
 2435TIP3   OH228719   0.099   6.261   5.306  0.1701 -0.3403  0.0127
 2435TIP3    H128720   0.101   6.316   5.384 -0.7404 -0.8644  0.4164
 2435TIP3    H228721   0.013   6.221   5.307  0.6407 -1.4022 -0.5429
 2436TIP3   OH228722   2.499   4.812  16.912 -0.6736  0.1294  0.3309
 2436TIP3    H128723   2.495   4.889  16.969 -1.7951 -0.2755  0.8241
 2436TIP3    H228724   2.434   4.752  16.948  0.3002 -1.1343  0.0694
 2437TIP3   OH228725   5.454   6.338   4.311 -0.1603  0.0693 -0.3646
 2437TIP3    H128726   5.384   6.295   4.360 -1.7518  2.2413 -0.5451
 2437TIP3    H228727   5.412   6.366   4.229  1.4375 -0.1602 -1.3063
 2438TIP3   OH228728   5.201   0.482  10.863 -0.3557  0.3589 -0.5591
 2438TIP3    H128729   5.163   0.523  10.785  0.6338 -0.2656 -1.4016
 2438TIP3    H228730   5.240   0.401  10.831  0.3853  0.2603  0.5277
 2439TIP3   OH228731   5.248   3.794   4.658  0.4194 -0.4779  0.2019
 2439TIP3    H128732   5.156   3.807   4.637  0.3502 -0.3338  0.5751
 2439TIP3    H228733   5.269   3.708   4.624  0.1331 -0.5287  0.1523
 2440TIP3   OH228734   3.015   1.676   4.020  0.3068  0.1677 -0.0822
 2440TIP3    H128735   3.097   1.682   4.070  0.0232  3.0267  0.2088
 2440TIP3    H228736   3.034   1.719   3.937 -0.8508  0.9022 -0.0013
 2441TIP3   OH228737   1.617   5.043   2.345 -0.4827  0.1825 -0.3525
 2441TIP3    H128738   1.585   5.034   2.435  0.4802  0.8160  0.0635
 2441TIP3    H228739   1.649   5.132   2.339 -2.1657  0.7655 -1.8961
 2442TIP3   OH228740   6.587   2.676  16.857  0.2198  0.7990  0.2735
 2442TIP3    H128741   6.615   2.607  16.797 -0.2019  1.8390 -1.1761
 2442TIP3    H228742   6.492   2.670  16.858  0.2456  0.3316  1.4358
 2443TIP3   OH228743   0.122   2.881  17.179  0.0152  0.3405 -0.2283
 2443TIP3    H128744   0.034   2.854  17.150 -0.7185  0.0834  2.0617
 2443TIP3    H228745   0.166   2.799  17.202  0.6359  0.5236 -0.7415
 2444TIP3   OH228746   2.538   2.017   1.859  0.0649  0.0929 -1.0131
 2444TIP3    H128747   2.448   2.033   1.889 -0.2858 -0.6410 -1.6205
 2444TIP3    H228748   2.570   1.947   1.916 -0.7762 -1.6537 -2.5592
 2445TIP3   OH228749   4.917   1.722  16.129 -0.4846  0.2836 -0.3645
 2445TIP3    H128750   4.990   1.779  16.105 -0.5584  0.5522  0.0240
 2445TIP3    H228751   4.917   1.724  16.225 -0.1277 -0.8362 -0.3300
 2446TIP3   OH228752   6.517   1.566   5.577  0.2241  0.0023 -0.1483
 2446TIP3    H128753   6.583   1.623   5.540  0.1282  0.2509  0.0603
 2446TIP3    H228754   6.451   1.625   5.613 -0.3096 -0.2470 -0.7046
 2447TIP3   OH228755   3.048   5.542  12.716  0.3424  0.0100 -0.6806
 2447TIP3    H128756   3.120   5.504  12.666  0.9568  1.1940 -0.7282
 2447TIP3    H228757   2.971   5.494  12.687  0.7664  0.2800 -2.3666
 2448TIP3   OH228758   3.084   2.370   5.034 -0.2185  0.3880  0.0122
 2448TIP3    H128759   3.125   2.456   5.038  0.3608  0.0662  1.4193
 2448TIP3    H228760   3.067   2.346   5.125 -0.0364 -1.1542 -0.3211
 2449TIP3   OH228761   6.024   1.383   0.455  0.2846 -0.0626  0.2996
 2449TIP3    H128762   6.107   1.426   0.434  0.3232 -1.1783 -2.3337
 2449TIP3    H228763   6.046   1.320   0.523  1.7484 -0.6714 -0.6859
 2450TIP3   OH228764   2.202   1.333  16.358  0.0891  0.0103 -0.4547
 2450TIP3    H128765   2.220   1.265  16.294  1.7018  0.2565 -0.3016
 2450TIP3    H228766   2.155   1.287  16.429 -0.1034 -0.6294 -0.9862
 2451TIP3   OH228767   4.217   3.723   6.213 -0.4032  0.0084 -0.0182
 2451TIP3    H128768   4.298   3.768   6.236 -0.1358 -1.2835  1.7230
 2451TIP3    H228769   4.246   3.642   6.170 -0.8724  0.9953 -2.3887
 2452TIP3   OH228770   0.245   2.537   3.684 -0.0244 -0.0135 -0.3386
 2452TIP3    H128771   0.207   2.493   3.760 -1.0670 -0.7221 -1.2501
 2452TIP3    H228772   0.254   2.468   3.619 -1.7768  1.0915 -1.8367
 2453TIP3   OH228773   3.749   4.189   3.508 -0.3446 -0.3352  0.3749
 2453TIP3    H128774   3.752   4.212   3.600 -0.0300 -0.5216  0.4104
 2453TIP3    H228775   3.831   4.143   3.491  0.3701  1.1301 -0.3816
 2454TIP3   OH228776   5.652   4.321   4.226  0.3976  0.3918 -0.1525
 2454TIP3    H128777   5.713   4.377   4.177 -0.5611 -0.0453 -1.9417
 2454TIP3    H228778   5.633   4.249   4.166 -1.5025  0.2841  0.5260
 2455TIP3   OH228779   4.165   2.767  11.815  0.2865 -0.1442  0.5576
 2455TIP3    H128780   4.125   2.680  11.824 -0.0476  0.1101  1.7772
 2455TIP3    H228781   4.185   2.793  11.905 -0.3382  1.3741  0.2884
 2456TIP3   OH228782   1.510   0.999  13.545  0.2288  0.1346  0.2012
 2456TIP3    H128783   1.498   1.093  13.557  1.5309  0.5792 -1.5504
 2456TIP3    H228784   1.422   0.965  13.531 -0.2156  1.1435  0.4701
 2457TIP3   OH228785   2.699   2.606   2.409  0.2560  0.4320  0.1493
 2457TIP3    H128786   2.696   2.514   2.381  1.3694 -0.1144  1.6526
 2457TIP3    H228787   2.753   2.605   2.488  1.2763  2.5704 -0.4539
 2458TIP3   OH228788   3.201   1.673   4.933 -0.0858  0.2450 -0.1102
 2458TIP3    H128789   3.163   1.656   5.019  0.1260  2.0031  0.3647
 2458TIP3    H228790   3.252   1.753   4.945  0.3548  0.2332 -1.7498
 2459TIP3   OH228791   4.542   5.703   0.290 -0.5313 -0.7254  0.3122
 2459TIP3    H128792   4.537   5.679   0.382 -1.7062  0.4994  0.6111
 2459TIP3    H228793   4.630   5.678   0.263  0.5863  0.7726  2.3171
 2460TIP3   OH228794   3.093   1.854  13.781 -0.1279  0.1384  0.0708
 2460TIP3    H128795   3.187   1.841  13.777  0.1016  0.6496  2.2140
 2460TIP3    H228796   3.056   1.766  13.773  0.5779 -0.1476 -0.0860
 2461TIP3   OH228797   3.675   1.170  12.796 -0.5608 -0.1237  0.6926
 2461TIP3    H128798   3.714   1.121  12.868 -1.5420 -2.5044 -0.2956
 2461TIP3    H228799   3.586   1.190  12.825 -1.4207 -2.2692 -0.2808
 2462TIP3   OH228800   2.223   2.297   5.569 -0.5784  0.0719  0.3878
 2462TIP3    H128801   2.201   2.208   5.543 -0.6392 -0.1538  1.1774
 2462TIP3    H228802   2.139   2.341   5.582 -0.5490  0.2502 -0.0105
 2463TIP3   OH228803   3.886   6.458   5.767 -0.2261 -0.4696  0.3473
 2463TIP3    H128804   3.857   6.499   5.685  0.0037  0.0179  0.5061
 2463TIP3    H228805   3.916   6.371   5.741 -1.7863 -0.9950  0.1655
 2464TIP3   OH228806   4.624   4.012  15.127 -0.0160  0.3740 -0.2395
 2464TIP3    H128807   4.712   3.974  15.118 -1.2446 -2.4348 -1.5242
 2464TIP3    H228808   4.630   4.067  15.205  2.3700 -1.3879  0.9733
 2465TIP3   OH228809   4.251   1.948   1.032 -0.7437 -0.1252 -0.5229
 2465TIP3    H128810   4.195   1.948   0.955  0.0024  0.4563 -1.0859
 2465TIP3    H228811   4.332   1.908   1.003 -0.3470  0.3673 -0.1317
 2466TIP3   OH228812   6.347   2.695  16.033 -0.2289  0.3588 -0.2100
 2466TIP3    H128813   6.309   2.625  15.979 -0.3414  2.0049 -2.3761
 2466TIP3    H228814   6.433   2.663  16.057 -0.5256 -0.7885 -0.6110
 2467TIP3   OH228815   2.547   3.082   5.003  0.1770 -0.1550  0.2430
 2467TIP3    H128816   2.570   3.168   4.968  0.3781 -0.5444 -0.5994
 2467TIP3    H228817   2.574   3.020   4.935 -1.6072 -0.7717  0.0454
 2468TIP3   OH228818   0.826   5.932   0.078 -0.2028  0.0220  0.0114
 2468TIP3    H128819   0.745   5.890   0.104  0.0839  0.0163  0.9171
 2468TIP3    H228820   0.804   5.977  -0.004 -0.2022 -2.9584 -1.8188
 2469TIP3   OH228821   1.233   0.886  12.578 -0.5977 -0.0446 -0.1761
 2469TIP3    H128822   1.328   0.885  12.587 -0.2027 -4.2467 -2.3262
 2469TIP3    H228823   1.200   0.862  12.664  0.4454 -0.4885  0.1166
 2470TIP3   OH228824   1.387   4.170   5.965  0.1514  0.0359  0.4572
 2470TIP3    H128825   1.422   4.259   5.978 -2.7613  1.2376  0.7851
 2470TIP3    H228826   1.365   4.167   5.872 -0.3669 -0.1131  0.5864
 2471TIP3   OH228827   0.041   4.418  11.014  0.4362 -0.6640  0.0097
 2471TIP3    H128828   0.058   4.338  10.964 -0.4549 -0.0330 -1.3552
 2471TIP3    H228829   0.103   4.482  10.979  1.0110 -0.6879  0.9616
 2472TIP3   OH228830   5.876   4.298  12.000 -0.9861  0.3570  0.4787
 2472TIP3    H128831   5.940   4.320  11.931 -2.2993  2.4939 -0.1544
 2472TIP3    H228832   5.866   4.203  11.993  1.2353  0.0898 -0.1492
 2473TIP3   OH228833   3.293   1.342  16.988  0.3308 -0.2669  0.6269
 2473TIP3    H128834   3.347   1.291  16.928  1.7740  1.0488  0.7405
 2473TIP3    H228835   3.280   1.285  17.063 -0.6929 -1.5816 -0.4969
 2474TIP3   OH228836   6.517   2.291  12.604 -0.1341  0.1765  0.0461
 2474TIP3    H128837   6.477   2.353  12.665 -1.4675  0.4271 -1.0400
 2474TIP3    H228838   6.443   2.249  12.560  0.7096  1.1684 -2.5355
 2475TIP3   OH228839   0.752   2.797   5.512  0.3414 -0.1254  0.2634
 2475TIP3    H128840   0.843   2.771   5.500  0.4483 -0.2804  1.2533
 2475TIP3    H228841   0.757   2.883   5.555 -0.0046  0.9024 -1.6438
 2476TIP3   OH228842   0.504   3.797   1.032  0.0588 -0.0670 -0.1205
 2476TIP3    H128843   0.480   3.810   1.124 -1.5978 -1.5166 -0.2863
 2476TIP3    H228844   0.567   3.724   1.033  1.8684  1.4386  0.0167
 2477TIP3   OH228845   5.021   0.800   2.066  0.1625  0.2773  0.1503
 2477TIP3    H128846   5.104   0.848   2.065  0.0084  0.5980  1.4623
 2477TIP3    H228847   4.994   0.801   2.157 -0.7451 -0.7821 -0.0899
 2478TIP3   OH228848   2.038   4.076   0.216 -0.0145 -0.3618  0.1761
 2478TIP3    H128849   1.968   4.136   0.189  0.1872  0.1596  0.8023
 2478TIP3    H228850   2.013   4.048   0.304  0.3138 -0.5537  0.2077
 2479TIP3   OH228851   4.486   5.138   2.348 -0.5401 -0.0664  0.1283
 2479TIP3    H128852   4.415   5.160   2.287  0.1185 -0.2805 -0.7399
 2479TIP3    H228853   4.482   5.042   2.354  1.1099 -0.3346 -1.7864
 2480TIP3   OH228854   5.810   3.685   0.785  0.0864  0.5489 -0.3695
 2480TIP3    H128855   5.802   3.593   0.762 -0.3925  0.3403  0.5657
 2480TIP3    H228856   5.863   3.686   0.864  2.4440  1.3096 -1.8634
 2481TIP3   OH228857   6.512   6.466   6.297 -0.1634  0.0457  0.1853
 2481TIP3    H128858   6.599   6.499   6.275 -0.6914 -0.1418 -2.4553
 2481TIP3    H228859   6.522   6.371   6.297 -0.0733  0.0371  1.3993
 2482TIP3   OH228860   0.282   5.891   2.343  0.1214  0.2141  0.5089
 2482TIP3    H128861   0.267   5.947   2.419 -0.2502 -1.9771  2.1442
 2482TIP3    H228862   0.201   5.840   2.336  1.3420 -1.8280  0.6338
 2483TIP3   OH228863   6.067   5.801   3.805 -0.2861 -0.3029 -0.3974
 2483TIP3    H128864   6.036   5.888   3.780 -2.0239  0.5005  3.7075
 2483TIP3    H228865   6.120   5.816   3.884 -1.0557 -2.9433  0.7257
 2484TIP3   OH228866   4.411   5.347  11.565 -0.1950 -0.5227 -0.2068
 2484TIP3    H128867   4.359   5.366  11.643 -0.2485  0.5729 -0.4917
 2484TIP3    H228868   4.502   5.362  11.592  0.0016 -2.1926  0.2185
 2485TIP3   OH228869   5.888   6.082   1.848  0.3251 -0.5065 -0.1561
 2485TIP3    H128870   5.924   6.133   1.776  0.6448 -2.1468 -1.2108
 2485TIP3    H228871   5.851   6.147   1.908  3.2628  1.1647  0.0274
 2486TIP3   OH228872   1.998   4.218   4.082  0.5789  0.1185 -0.0346
 2486TIP3    H128873   1.953   4.290   4.126  0.0933 -0.9046  1.2096
 2486TIP3    H228874   2.090   4.244   4.080  0.3644  0.9089  0.1011
 2487TIP3   OH228875   5.834   1.857   0.682  0.6033  0.4213  0.1123
 2487TIP3    H128876   5.874   1.941   0.657 -0.0647  0.7826  0.2284
 2487TIP3    H228877   5.770   1.880   0.750 -0.0925 -0.0785 -0.3533
 2488TIP3   OH228878   5.762   5.959  11.770 -0.4237 -0.3015 -0.1595
 2488TIP3    H128879   5.773   5.994  11.858  2.2660 -0.5194 -0.3437
 2488TIP3    H228880   5.787   6.031  11.712  2.2671 -1.4755 -0.5936
 2489TIP3   OH228881   0.509   4.438  16.628 -0.3423 -0.0908  0.0024
 2489TIP3    H128882   0.523   4.361  16.683  0.2895 -0.4813 -0.6904
 2489TIP3    H228883   0.563   4.423  16.550 -2.8005 -0.5479 -1.7312
 2490TIP3   OH228884   6.211   2.937   3.461  0.0152  0.1042 -0.5855
 2490TIP3    H128885   6.205   2.856   3.512 -0.5917 -0.2920 -1.2587
 2490TIP3    H228886   6.130   2.939   3.410 -0.3264  1.5175 -0.0407
 2491TIP3   OH228887   0.220   2.132   1.952  0.3272 -0.4466  0.0128
 2491TIP3    H128888   0.151   2.195   1.935 -0.9423 -1.9847 -0.8095
 2491TIP3    H228889   0.242   2.096   1.866  3.7747  1.5088 -0.1142
 2492TIP3   OH228890   4.927   2.436   4.233 -0.0199  0.1071  0.2505
 2492TIP3    H128891   4.967   2.487   4.163 -1.9050  2.8280  0.9753
 2492TIP3    H228892   4.936   2.492   4.311 -2.2008 -0.6117  1.0945
 2493TIP3   OH228893   2.099   2.558   1.017  0.3473 -0.0424  0.0296
 2493TIP3    H128894   2.178   2.591   0.975  1.0665 -0.9792  0.6074
 2493TIP3    H228895   2.063   2.634   1.063  1.2130  0.2714  0.2042
 2494TIP3   OH228896   5.161   0.208   4.274 -0.4019 -0.0509 -0.0965
 2494TIP3    H128897   5.093   0.200   4.207 -0.9012 -2.2686  0.5936
 2494TIP3    H228898   5.239   0.236   4.226 -0.2903 -3.1481 -1.9971
 2495TIP3   OH228899   6.571   2.513  11.466 -0.3855 -0.7250  0.3681
 2495TIP3    H128900   6.623   2.451  11.414  0.9216 -0.6117  1.4955
 2495TIP3    H228901   6.558   2.588  11.408  1.2387 -0.5048  0.2393
 2496TIP3   OH228902   5.932   3.052   4.468  0.2829 -0.6978  0.2506
 2496TIP3    H128903   6.020   3.079   4.495  0.4617 -0.8756 -0.1331
 2496TIP3    H228904   5.873   3.110   4.515  0.6671  0.7280 -0.9404
 2497TIP3   OH228905   6.431   5.928  12.711  0.5905 -0.1216 -0.1793
 2497TIP3    H128906   6.494   5.898  12.776  3.5399  2.6694 -1.4621
 2497TIP3    H228907   6.431   6.023  12.720 -2.6895  0.0734 -1.0524
 2498TIP3   OH228908   2.907   5.676   3.199 -0.5301  0.2880 -0.8078
 2498TIP3    H128909   2.913   5.743   3.267  0.0611  0.4031 -0.9636
 2498TIP3    H228910   2.998   5.660   3.174 -0.5100 -1.7024  0.3177
 2499TIP3   OH228911   6.746   4.759  14.770 -0.3539  0.6720  0.4960
 2499TIP3    H128912   6.702   4.674  14.773  1.7501 -0.5469 -0.4972
 2499TIP3    H228913   6.793   4.765  14.854  2.2524 -0.8469 -0.7212
 2500TIP3   OH228914   3.324   6.031   4.529 -0.6638 -0.0899 -0.3495
 2500TIP3    H128915   3.271   6.064   4.602 -1.7048  1.7465 -1.8600
 2500TIP3    H228916   3.377   6.106   4.502 -1.1044 -0.3996 -2.1764
 2501TIP3   OH228917   4.615   6.457   3.552  0.2180  0.1969 -0.5061
 2501TIP3    H128918   4.583   6.527   3.496 -0.1735  1.0381  0.7261
 2501TIP3    H228919   4.551   6.451   3.623  0.5287 -1.0510 -0.2964
 2502TIP3   OH228920   3.441   4.410   7.022  0.9531  0.0028 -0.1695
 2502TIP3    H128921   3.368   4.464   6.992  0.2412 -0.5847  0.4670
 2502TIP3    H228922   3.518   4.466   7.013 -0.1072  2.3089  3.3714
 2503TIP3   OH228923   6.623   2.565  10.419 -0.3901  0.4735  0.3942
 2503TIP3    H128924   6.638   2.651  10.381 -0.1790  0.0499 -0.5022
 2503TIP3    H228925   6.534   2.542  10.393  0.8102 -1.2342 -2.8032
 2504TIP3   OH228926   4.289   1.721  11.419  0.3742 -0.2110 -0.7448
 2504TIP3    H128927   4.214   1.693  11.366 -0.3314 -2.1141  1.1270
 2504TIP3    H228928   4.360   1.662  11.392  0.5661  0.1062 -0.9346
 2505TIP3   OH228929   0.323   1.665  13.157  0.3139 -0.3034  0.0769
 2505TIP3    H128930   0.389   1.724  13.120  0.4789 -0.5804 -0.0645
 2505TIP3    H228931   0.242   1.716  13.154  0.6904  0.4105  1.1515
 2506TIP3   OH228932   6.293   1.042  11.252 -0.4930  0.3141 -0.1314
 2506TIP3    H128933   6.314   1.048  11.159 -1.0462  1.3343 -0.2025
 2506TIP3    H228934   6.323   1.125  11.289 -0.0699 -0.1793  0.6451
 2507TIP3   OH228935   2.304   4.853  16.716  0.2591 -0.1295 -0.1094
 2507TIP3    H128936   2.368   4.853  16.645 -1.0339 -1.1403 -1.3334
 2507TIP3    H228937   2.356   4.841  16.795  1.5891 -0.7909 -1.0446
 2508TIP3   OH228938   4.912   4.747  14.721 -0.3885  0.3954  0.4624
 2508TIP3    H128939   4.911   4.786  14.633  0.4318  0.4793  0.4858
 2508TIP3    H228940   4.971   4.672  14.713 -1.0330 -0.1511  0.7152
 2509TIP3   OH228941   4.629   5.830  14.182 -0.1689 -0.1127  0.1980
 2509TIP3    H128942   4.672   5.914  14.198 -1.1646  0.4103  0.2011
 2509TIP3    H228943   4.693   5.765  14.211  1.0587  0.5939 -0.7943
 2510TIP3   OH228944   1.969   1.043   3.020 -0.1692 -0.0665  0.3537
 2510TIP3    H128945   1.989   1.136   3.024 -0.3983  0.0172 -0.2674
 2510TIP3    H228946   1.927   1.032   2.935  2.3933 -1.2168 -0.8641
 2511TIP3   OH228947   4.982   4.884  10.935  0.0084 -0.8173 -0.0629
 2511TIP3    H128948   5.030   4.862  11.014  0.3928 -1.5127 -0.4775
 2511TIP3    H228949   4.993   4.979  10.926 -0.1600 -0.7087  0.7813
 2512TIP3   OH228950   1.677   5.425  17.193  0.0008 -0.2700  0.3198
 2512TIP3    H128951   1.647   5.420  17.284 -0.7598 -0.8839  0.0471
 2512TIP3    H228952   1.766   5.459  17.199  0.2727 -1.1160  1.3601
 2513TIP3   OH228953   4.010   3.686   5.293 -0.1766  0.1827 -0.3631
 2513TIP3    H128954   4.021   3.672   5.199 -0.0811  0.6995 -0.4302
 2513TIP3    H228955   4.090   3.732   5.320  1.4549 -2.9318  0.6233
 2514TIP3   OH228956   0.972   3.309   1.319 -0.1907 -0.1879  0.1598
 2514TIP3    H128957   0.985   3.388   1.371  0.7165 -0.6916  0.7117
 2514TIP3    H228958   0.992   3.237   1.379  1.3801 -0.7737 -1.0092
 2515TIP3   OH228959   0.647   5.658  12.563  0.0622  0.2519  0.2583
 2515TIP3    H128960   0.686   5.581  12.521 -0.5081 -1.7979  3.1682
 2515TIP3    H228961   0.718   5.695  12.616 -0.5316 -0.3098  1.4656
 2516TIP3   OH228962   4.964   6.289   0.263 -0.5308  0.6006 -0.1147
 2516TIP3    H128963   4.925   6.340   0.191  0.1791  0.7288 -0.4130
 2516TIP3    H228964   5.056   6.316   0.265 -0.0051 -1.0549 -0.6293
 2517TIP3   OH228965   3.240   6.004   6.046 -0.1756  1.0954  0.1622
 2517TIP3    H128966   3.149   5.987   6.070  0.2071 -0.5055  0.5479
 2517TIP3    H228967   3.291   5.942   6.097  0.8387 -1.1739 -3.2104
 2518TIP3   OH228968   4.075   1.708   6.025 -0.2470  0.3453 -0.0889
 2518TIP3    H128969   4.069   1.749   6.111  0.1358 -0.9957  0.6095
 2518TIP3    H228970   4.060   1.614   6.042  1.8793 -0.2407 -1.1573
 2519TIP3   OH228971   2.520   1.513   4.300  0.1983 -0.2781  0.5463
 2519TIP3    H128972   2.613   1.514   4.277  0.3717 -0.3599  1.2114
 2519TIP3    H228973   2.519   1.500   4.395 -0.5083 -0.7920  0.4768
 2520TIP3   OH228974   2.923   2.533  13.849  0.1971  0.2434  0.4390
 2520TIP3    H128975   2.883   2.491  13.925  0.6327 -0.3689  0.3433
 2520TIP3    H228976   2.850   2.561  13.795 -0.1173 -0.8291  0.2815
 2521TIP3   OH228977   4.145   6.229   4.899  0.1840  0.0466 -0.6304
 2521TIP3    H128978   4.118   6.162   4.961  1.5323 -0.7363 -0.8341
 2521TIP3    H228979   4.155   6.309   4.951 -1.9033  0.2457 -0.4689
 2522TIP3   OH228980   3.386   4.745  16.718 -0.3496  0.5169  0.0693
 2522TIP3    H128981   3.435   4.739  16.800 -1.8306  1.7157  1.0989
 2522TIP3    H228982   3.296   4.763  16.745 -0.8121  1.2877 -1.8307
 2523TIP3   OH228983   1.752   6.332   3.264  0.0246 -0.3141 -0.2519
 2523TIP3    H128984   1.784   6.260   3.318  0.7591  0.1408 -0.0606
 2523TIP3    H228985   1.709   6.391   3.326 -1.3989 -1.0204 -0.5370
 2524TIP3   OH228986   5.350   2.501  16.596 -0.3996  0.4156 -0.2237
 2524TIP3    H128987   5.307   2.561  16.535  0.3027  1.8343  0.6132
 2524TIP3    H228988   5.322   2.531  16.683 -1.6848 -1.8017  0.2074
 2525TIP3   OH228989   3.423   6.605   1.910 -0.0648 -0.4678  0.1927
 2525TIP3    H128990   3.398   6.520   1.946 -1.3980 -0.2135 -0.0865
 2525TIP3    H228991   3.384   6.607   1.823 -0.0521  0.4356  0.2026
 2526TIP3   OH228992   4.999   5.153   1.651  0.0666 -0.4941  0.1044
 2526TIP3    H128993   5.088   5.188   1.655 -0.1314  0.2108 -1.1969
 2526TIP3    H228994   5.011   5.058   1.640  0.6522 -0.4336  0.2215
 2527TIP3   OH228995   4.251   1.148   0.121 -0.0962  0.1730  0.3614
 2527TIP3    H128996   4.215   1.211   0.059  1.4775 -0.4347 -1.2505
 2527TIP3    H228997   4.175   1.102   0.156 -1.0321  0.3662 -1.3185
 2528TIP3   OH228998   4.621   4.335  13.307 -0.1556 -0.2019  0.2153
 2528TIP3    H128999   4.619   4.349  13.402 -2.0979  1.0967  0.0420
 2528TIP3    H229000   4.635   4.421  13.270  0.3858 -0.6746 -0.7003
 2529TIP3   OH229001   3.928   0.794   3.461 -0.0541  0.2323 -0.1910
 2529TIP3    H129002   3.862   0.852   3.424 -0.1595  2.1487  2.6895
 2529TIP3    H229003   3.985   0.851   3.512  1.7566 -1.8254  0.2622
 2530TIP3   OH229004   5.317   6.150  16.738  0.2081 -0.4509 -0.0563
 2530TIP3    H129005   5.254   6.220  16.716  1.5845  0.5481 -0.9819
 2530TIP3    H229006   5.262   6.073  16.754 -1.2517  0.3375 -1.0097
 2531TIP3   OH229007   2.498   0.253  16.826  0.0680 -0.3844 -0.0433
 2531TIP3    H129008   2.493   0.329  16.769  2.3938 -0.6831 -0.7360
 2531TIP3    H229009   2.477   0.179  16.770  2.0791 -0.6497 -0.5050
 2532TIP3   OH229010   2.151   0.312  11.537  0.1620 -0.0062 -0.0763
 2532TIP3    H129011   2.081   0.361  11.581 -1.3568 -1.9216 -0.2277
 2532TIP3    H229012   2.115   0.290  11.451  1.7802  0.7147 -1.0002
 2533TIP3   OH229013   2.873   6.077   2.627  0.2025 -0.0413  0.0626
 2533TIP3    H129014   2.811   6.117   2.566 -0.1997 -0.9987 -0.1762
 2533TIP3    H229015   2.818   6.037   2.695  0.4993 -1.5083 -0.5259
 2534TIP3   OH229016   2.697   2.763  16.977 -0.0356 -0.0715 -0.0107
 2534TIP3    H129017   2.717   2.857  16.966 -0.6413  0.1139  0.4212
 2534TIP3    H229018   2.779   2.726  17.011  1.0718 -0.2037 -2.5910
 2535TIP3   OH229019   3.867   3.499   3.500  0.9965 -0.1013 -0.4179
 2535TIP3    H129020   3.853   3.464   3.412  0.8215  0.2476 -0.5306
 2535TIP3    H229021   3.792   3.557   3.515  1.6385  0.7686 -0.5088
 2536TIP3   OH229022   5.593   6.531  17.238  0.1790 -0.4365 -0.0931
 2536TIP3    H129023   5.527   6.597  17.214  1.0114  1.0898  1.5186
 2536TIP3    H229024   5.542   6.453  17.261 -0.9191 -0.0108 -1.0036
 2537TIP3   OH229025   2.568   4.043   3.871 -0.3428  0.1897 -0.0710
 2537TIP3    H129026   2.491   4.097   3.886 -0.9509 -0.9736  1.2582
 2537TIP3    H229027   2.567   4.026   3.776 -1.2278  0.8829 -0.2041
 2538TIP3   OH229028   4.515   6.160  16.376 -0.0368  0.1927  0.1555
 2538TIP3    H129029   4.499   6.127  16.287  0.4524  0.8925 -0.2035
 2538TIP3    H229030   4.606   6.192  16.373 -0.3742  1.2200  0.5873
 2539TIP3   OH229031   0.648   5.094   3.427 -0.0744 -0.0675 -0.3290
 2539TIP3    H129032   0.731   5.141   3.425 -1.8983  3.5633 -0.0515
 2539TIP3    H229033   0.595   5.137   3.360 -1.3759 -3.2282 -1.5367
 2540TIP3   OH229034   5.791   6.394  17.384  0.4309 -0.3535  0.4534
 2540TIP3    H129035   5.807   6.482  17.417  0.2413 -0.6703  1.4327
 2540TIP3    H229036   5.713   6.402  17.330  0.2529  0.0217  0.7681
 2541TIP3   OH229037   0.809   3.495  15.179  0.0567  0.5473 -0.2190
 2541TIP3    H129038   0.877   3.518  15.242 -0.1625 -1.6628  0.9248
 2541TIP3    H229039   0.767   3.578  15.158  2.9965  1.9905 -0.9166
 2542TIP3   OH229040   2.699   3.525   4.715  0.0937 -0.0927  0.1424
 2542TIP3    H129041   2.648   3.545   4.794  0.6781 -0.4333  0.6140
 2542TIP3    H229042   2.643   3.553   4.642  0.4610  2.3805  0.7224
 2543TIP3   OH229043   6.331   1.211  14.124 -0.2629 -0.2090 -0.4186
 2543TIP3    H129044   6.366   1.295  14.095 -0.1831 -0.3445 -0.7120
 2543TIP3    H229045   6.264   1.189  14.059  0.6181 -1.0062 -1.0798
 2544TIP3   OH229046   3.251   5.238  15.508 -0.2597 -0.2976  0.2436
 2544TIP3    H129047   3.291   5.324  15.522 -0.7656  0.0814 -0.5775
 2544TIP3    H229048   3.299   5.200  15.435  0.9556 -1.3722  1.5392
 2545TIP3   OH229049   6.065   3.076   1.511  0.2489  0.2446  0.2376
 2545TIP3    H129050   6.042   3.035   1.595  0.0066  0.6977  0.3986
 2545TIP3    H229051   6.078   3.003   1.451 -0.2548 -0.0602  0.4982
 2546TIP3   OH229052   0.079   0.124   1.929  0.2259 -0.6031 -0.1041
 2546TIP3    H129053   0.173   0.135   1.943  0.0715 -0.6241  1.0061
 2546TIP3    H229054   0.071   0.114   1.834  1.1697  0.9905 -0.3899
 2547TIP3   OH229055   5.951   4.956   4.668  0.1039  0.3413  0.2148
 2547TIP3    H129056   5.865   4.996   4.652 -0.7839 -0.6136  2.2295
 2547TIP3    H229057   5.998   5.021   4.721  0.3506  0.5221 -0.2132
 2548TIP3   OH229058   1.948   1.919   5.351  0.7226 -0.4665  0.0890
 2548TIP3    H129059   2.003   1.909   5.273  1.7024 -0.5782  0.7842
 2548TIP3    H229060   1.887   1.845   5.347 -0.6898  0.6969 -1.6989
 2549TIP3   OH229061   1.608   5.715  13.639 -0.0308  0.4855 -0.6541
 2549TIP3    H129062   1.536   5.752  13.691  1.3729  1.3514  0.7333
 2549TIP3    H229063   1.606   5.621  13.660 -0.3832  0.5925 -0.1777
 2550TIP3   OH229064   0.973   4.262   3.082 -0.4811  0.6945 -0.5899
 2550TIP3    H129065   1.018   4.253   3.166 -1.0719  0.3227 -0.3143
 2550TIP3    H229066   1.043   4.253   3.017 -0.5398 -3.3063 -0.2942
 2551TIP3   OH229067   2.791   4.070  16.463 -0.3841  0.4102 -0.0811
 2551TIP3    H129068   2.696   4.078  16.470 -0.4223 -0.1024 -0.0016
 2551TIP3    H229069   2.821   4.159  16.440 -0.7214  0.9671  1.5045
 2552TIP3   OH229070   2.041   6.242  13.217  0.3710 -0.2485 -0.1821
 2552TIP3    H129071   1.963   6.188  13.203 -0.2164  0.3311  0.7203
 2552TIP3    H229072   2.006   6.327  13.245  1.3276 -0.6689  2.6284
 2553TIP3   OH229073   2.366   5.651  15.590  0.1915 -0.2373  0.7015
 2553TIP3    H129074   2.378   5.562  15.624  0.0186 -0.7008 -0.4295
 2553TIP3    H229075   2.416   5.706  15.650  0.0978 -1.0623  1.5667
 2554TIP3   OH229076   6.502   6.167  14.131 -0.4568 -0.0911 -0.2937
 2554TIP3    H129077   6.431   6.212  14.084 -0.7114  1.1011  1.1313
 2554TIP3    H229078   6.577   6.171  14.072 -0.8205  1.1970 -0.6963
 2555TIP3   OH229079   0.518   4.440  11.759  0.6772  0.8982 -0.0846
 2555TIP3    H129080   0.470   4.410  11.837  2.1685  0.5046  0.7326
 2555TIP3    H229081   0.567   4.363  11.730  1.6097  1.5416 -0.2633
 2556TIP3   OH229082   0.904   5.430  12.728 -0.0954  0.1037 -0.2522
 2556TIP3    H129083   0.853   5.421  12.647 -0.6048  2.2097 -0.2191
 2556TIP3    H229084   0.979   5.483  12.704 -1.1278  2.2366  0.9458
 2557TIP3   OH229085   5.893   3.069  15.679 -0.5379  0.2174 -0.7184
 2557TIP3    H129086   5.952   2.999  15.653 -1.8359 -0.5465 -1.7444
 2557TIP3    H229087   5.863   3.107  15.596 -1.8030  0.2881 -0.2457
 2558TIP3   OH229088   5.601   4.094   1.689  0.4131  0.0062  0.1765
 2558TIP3    H129089   5.585   4.015   1.637 -0.9441 -0.1594  0.7760
 2558TIP3    H229090   5.688   4.082   1.726  0.2918 -1.1429  0.1252
 2559TIP3   OH229091   2.608   1.346  16.931 -0.2548  0.2119  0.1828
 2559TIP3    H129092   2.590   1.308  17.016 -0.2950  1.5393  0.7954
 2559TIP3    H229093   2.692   1.308  16.904  0.6047  1.0385  1.5961
 2560TIP3   OH229094   0.012   0.681  12.806 -0.3245  0.2962 -0.4626
 2560TIP3    H129095  -0.081   0.666  12.821 -0.0151 -2.1290 -0.6397
 2560TIP3    H229096   0.022   0.776  12.816 -2.5964  0.5018  0.6026
 2561TIP3   OH229097   4.077   3.612   1.864 -0.2371 -0.9166 -0.4702
 2561TIP3    H129098   4.172   3.623   1.850 -0.4618  0.2708 -1.2442
 2561TIP3    H229099   4.059   3.661   1.944 -0.2760 -0.6759 -0.6241
 2562TIP3   OH229100   2.764   6.020   3.208  0.2154  0.0059 -0.1299
 2562TIP3    H129101   2.790   6.071   3.130  2.7722 -1.1932 -0.1859
 2562TIP3    H229102   2.821   6.054   3.278 -0.7693 -0.1832  0.7843
 2563TIP3   OH229103   3.344   5.717  15.597 -0.3536 -0.7579 -0.2684
 2563TIP3    H129104   3.368   5.808  15.616 -1.1128 -0.1217 -2.1677
 2563TIP3    H229105   3.419   5.666  15.628  1.1092  0.7115 -1.1861
 2564TIP3   OH229106   3.179   3.262  11.970  0.0644 -0.1668 -0.3877
 2564TIP3    H129107   3.236   3.193  11.935 -1.6791 -1.9565  0.1436
 2564TIP3    H229108   3.158   3.316  11.894  1.8261  0.0853 -0.7308
 2565TIP3   OH229109   5.131   6.681  14.069  0.0635 -0.0335 -0.4841
 2565TIP3    H129110   5.199   6.625  14.031  1.1359 -1.4487  3.0898
 2565TIP3    H229111   5.058   6.623  14.087 -0.7731  0.7787 -1.1856
 2566TIP3   OH229112   0.073   0.308  12.828  0.2710 -0.3236 -0.0252
 2566TIP3    H129113   0.165   0.283  12.837  0.1541 -0.3541  1.5046
 2566TIP3    H229114   0.045   0.326  12.918 -1.3731 -0.8680 -0.3889
 2567TIP3   OH229115   5.585   3.574   0.504  0.4014 -0.1250  0.1922
 2567TIP3    H129116   5.582   3.652   0.449  0.6838  0.3042  0.7822
 2567TIP3    H229117   5.507   3.524   0.479  0.1917  0.3668 -0.1466
 2568TIP3   OH229118   4.140   2.262  16.750  0.2543  0.5965  0.4812
 2568TIP3    H129119   4.162   2.293  16.838  0.8991  1.9555 -0.1279
 2568TIP3    H229120   4.124   2.342  16.700 -1.3003 -0.1906 -0.3614
 2569TIP3   OH229121   2.684   6.091  11.817  0.3054  0.4618 -0.4347
 2569TIP3    H129122   2.690   6.186  11.805  1.4033  0.6518  1.3184
 2569TIP3    H229123   2.719   6.055  11.735  0.8062  1.5702 -0.7336
 2570TIP3   OH229124   0.972   5.242  13.684  0.5487 -0.5114 -0.0327
 2570TIP3    H129125   0.914   5.188  13.630 -0.4229  0.4664 -0.0057
 2570TIP3    H229126   0.934   5.329  13.680  1.0167 -0.2072  1.4459
 2571TIP3   OH229127   4.591   1.519  13.534 -0.1578  0.2052  0.0621
 2571TIP3    H129128   4.664   1.538  13.593 -0.7643 -2.0557  1.6453
 2571TIP3    H229129   4.516   1.563  13.573  0.0284  1.3118 -0.7769
 2572TIP3   OH229130   0.321   2.988   2.517  0.5668 -0.7814 -0.2744
 2572TIP3    H129131   0.365   2.998   2.602 -2.3817  0.4478  1.2505
 2572TIP3    H229132   0.311   2.893   2.507 -0.2773 -0.9299  1.5167
 2573TIP3   OH229133   4.237   2.158  11.103 -0.7036  0.1648  0.2149
 2573TIP3    H129134   4.151   2.159  11.062 -0.5884  0.1535 -0.0274
 2573TIP3    H229135   4.269   2.248  11.096 -0.0382 -0.1563 -1.0928
 2574TIP3   OH229136   0.632   0.572   3.970 -0.2926 -0.2433  0.5373
 2574TIP3    H129137   0.571   0.547   4.040 -0.7444 -1.0901 -0.1430
 2574TIP3    H229138   0.703   0.507   3.976 -0.1160 -0.0576  0.4763
 2575TIP3   OH229139   3.081   4.181   4.601 -0.0352  0.1425  0.1935
 2575TIP3    H129140   3.154   4.125   4.573  0.2030  0.0921  0.8845
 2575TIP3    H229141   3.014   4.120   4.631 -0.4199  0.1857 -0.5494
 2576TIP3   OH229142   6.202   1.176  16.652  0.5379  0.2748 -0.2188
 2576TIP3    H129143   6.144   1.168  16.727  1.8353  0.1312  0.8119
 2576TIP3    H229144   6.160   1.240  16.595 -0.0561  1.0464  1.0493
 2577TIP3   OH229145   5.014   2.263  14.325 -0.0516 -0.2493  0.4941
 2577TIP3    H129146   5.069   2.271  14.247  0.8842 -0.4234  1.1151
 2577TIP3    H229147   5.043   2.334  14.382 -0.4944 -0.3311  0.8239
 2578TIP3   OH229148   3.581   4.428  16.394  0.2926 -0.1875 -0.4715
 2578TIP3    H129149   3.614   4.501  16.447 -0.9097  0.7832 -1.0207
 2578TIP3    H229150   3.526   4.378  16.455  0.3895 -0.1223 -0.3274
 2579TIP3   OH229151   2.369   4.920  12.531 -0.1558 -0.6486  0.2855
 2579TIP3    H129152   2.342   4.921  12.622 -1.3420  0.6247 -0.0514
 2579TIP3    H229153   2.358   4.829  12.504  0.3876 -1.0759  1.4429
 2580TIP3   OH229154   0.468   0.928   2.243  0.1820 -0.3720 -0.0891
 2580TIP3    H129155   0.456   0.842   2.285 -1.0994  0.4934  1.3966
 2580TIP3    H229156   0.392   0.938   2.186  0.4049 -0.2786 -0.3720
 2581TIP3   OH229157   5.495   2.199  16.087 -0.2236 -0.3651  0.0571
 2581TIP3    H129158   5.571   2.205  16.145 -0.1945  2.3192 -0.1282
 2581TIP3    H229159   5.422   2.231  16.140 -0.5207  0.4660 -0.8114
 2582TIP3   OH229160   1.600   0.013  12.357 -0.2106 -0.3135 -0.3606
 2582TIP3    H129161   1.564   0.081  12.414 -0.3730 -0.8735  0.2151
 2582TIP3    H229162   1.538  -0.059  12.364  0.5474 -0.9483 -0.0707
 2583TIP3   OH229163   3.212   3.424  13.960  0.7478  0.1915 -0.3309
 2583TIP3    H129164   3.205   3.502  14.014  0.2081 -0.1470  0.1081
 2583TIP3    H229165   3.166   3.447  13.879  2.7393  1.1739 -1.2382
 2584TIP3   OH229166   0.170   1.364  15.970 -0.0815  0.2392 -0.4761
 2584TIP3    H129167   0.168   1.284  16.022  3.0659 -0.4081 -1.2033
 2584TIP3    H229168   0.132   1.339  15.886  1.2288 -0.6365 -0.8319
 2585TIP3   OH229169   4.343   5.203  13.744  0.0486 -0.3685  0.3486
 2585TIP3    H129170   4.410   5.136  13.754  0.5213 -0.0769 -0.7620
 2585TIP3    H229171   4.388   5.286  13.761 -0.1384 -0.2148  0.1097
 2586TIP3   OH229172   5.640   5.048  12.367 -0.2278  0.1772 -0.0511
 2586TIP3    H129173   5.564   5.048  12.425  0.4375 -1.4269  0.8790
 2586TIP3    H229174   5.715   5.043  12.425  0.5450  0.4070 -1.0007
 2587TIP3   OH229175   5.514   1.040   6.325 -0.0941  0.6739 -0.3776
 2587TIP3    H129176   5.479   1.112   6.379 -0.1542  0.7057 -0.4570
 2587TIP3    H229177   5.436   0.992   6.297 -0.1424  1.1684 -1.1527
 2588TIP3   OH229178   0.219   3.906  13.137 -0.2577  0.6285  0.3205
 2588TIP3    H129179   0.278   3.926  13.209 -2.0301 -0.9634  2.3497
 2588TIP3    H229180   0.145   3.966  13.149 -0.5936  0.3088 -0.1225
 2589TIP3   OH229181   6.383   1.743   1.728 -0.5989 -0.2360 -0.0014
 2589TIP3    H129182   6.468   1.775   1.758 -0.2073 -1.4853  0.2674
 2589TIP3    H229183   6.320   1.802   1.769  0.1297  0.8995 -0.4449
 2590TIP3   OH229184   1.641   0.055  16.712 -0.5736 -0.9617 -0.5816
 2590TIP3    H129185   1.696   0.109  16.769 -0.8064 -0.9144 -0.3995
 2590TIP3    H229186   1.557   0.100  16.711 -1.1364 -1.9138  0.4937
 2591TIP3   OH229187   5.936   2.332  12.108  0.1518 -0.1237  0.4710
 2591TIP3    H129188   5.852   2.299  12.141  0.2542 -1.2113 -0.3062
 2591TIP3    H229189   5.916   2.420  12.076 -0.6579 -0.3107  0.4366
 2592TIP3   OH229190   2.436   4.454  13.695 -0.8015 -0.4627 -0.1146
 2592TIP3    H129191   2.470   4.381  13.747 -0.2759  0.2775  0.5932
 2592TIP3    H229192   2.506   4.518  13.694 -2.1146  1.0841  1.3194
 2593TIP3   OH229193   4.134   2.269  12.991 -0.3540 -0.2683 -0.0212
 2593TIP3    H129194   4.081   2.260  13.070  0.4026  2.6719  0.9509
 2593TIP3    H229195   4.077   2.312  12.928 -0.4665 -1.2069 -0.5878
 2594TIP3   OH229196   1.962   0.231   4.530 -0.8270 -0.2998 -0.0577
 2594TIP3    H129197   1.906   0.186   4.466 -1.8314 -0.1958  0.7193
 2594TIP3    H229198   2.001   0.160   4.582 -1.7271 -0.3342  0.6025
 2595TIP3   OH229199   0.544   3.782   1.601  0.3882  0.6089 -0.0519
 2595TIP3    H129200   0.569   3.774   1.693 -0.5554  1.2290  0.2784
 2595TIP3    H229201   0.467   3.839   1.603  1.1896  1.7959 -1.3449
 2596TIP3   OH229202   1.361   4.568   6.586  0.1818 -0.6075 -0.2364
 2596TIP3    H129203   1.360   4.636   6.653  0.7372 -0.6854 -0.1465
 2596TIP3    H229204   1.378   4.615   6.504  0.3928 -0.6139 -0.1978
 2597TIP3   OH229205   3.234   2.199  12.412  0.1607  0.5040 -0.1236
 2597TIP3    H129206   3.204   2.242  12.331 -1.0143 -0.2011 -0.0776
 2597TIP3    H229207   3.222   2.106  12.395  1.7903  0.2204  0.1399
 2598TIP3   OH229208   1.134   5.442  13.833 -0.1522  0.1727  0.3729
 2598TIP3    H129209   1.081   5.363  13.822  1.2641 -0.8828  0.9419
 2598TIP3    H229210   1.221   5.410  13.855  0.3770  1.9034  0.9454
 2599TIP3   OH229211   5.543   2.955  11.421 -0.1315 -0.3605  0.2849
 2599TIP3    H129212   5.590   2.879  11.456 -0.3108 -1.7741 -2.2217
 2599TIP3    H229213   5.586   3.031  11.459  0.3629 -1.6948  2.5344
 2600TIP3   OH229214   3.110   6.214   3.800  0.4282 -0.3119 -0.0126
 2600TIP3    H129215   3.137   6.129   3.834  0.6958 -0.7129 -1.2117
 2600TIP3    H229216   3.192   6.260   3.781  0.2950  0.3901  1.0037
 2601TIP3   OH229217   1.476   1.739  15.409 -0.6187  0.3727 -0.5201
 2601TIP3    H129218   1.435   1.670  15.357  1.1708 -1.0575 -0.1349
 2601TIP3    H229219   1.555   1.762  15.359 -1.4343  2.5808 -0.9164
 2602TIP3   OH229220   4.673   4.741   4.888 -0.3724 -0.3531  0.4058
 2602TIP3    H129221   4.584   4.707   4.886 -0.2503 -0.9878  2.4941
 2602TIP3    H229222   4.719   4.693   4.819 -1.4153 -0.6753 -0.0823
 2603TIP3   OH229223   6.316   4.944  12.179 -0.0123  0.2689  0.3197
 2603TIP3    H129224   6.386   4.936  12.244  0.3495  2.1796  0.2181
 2603TIP3    H229225   6.235   4.935  12.230  0.2849  0.1285  0.7730
 2604TIP3   OH229226   2.352   3.380  16.793 -0.1807  0.2275  0.0297
 2604TIP3    H129227   2.328   3.425  16.874  1.2520 -0.7759  1.0573
 2604TIP3    H229228   2.303   3.426  16.725 -0.5637  1.8178  1.3152
 2605TIP3   OH229229   6.615   0.083   3.956  0.7983  0.3860 -0.6171
 2605TIP3    H129230   6.697   0.093   3.909  0.7489 -0.5498 -0.9222
 2605TIP3    H229231   6.638   0.034   4.035  1.0114  2.5591  0.7539
 2606TIP3   OH229232   5.084   2.601  14.291  0.1165 -0.0600 -0.8204
 2606TIP3    H129233   5.115   2.691  14.285  3.0400 -0.9026 -0.0340
 2606TIP3    H229234   4.988   2.608  14.293  0.2218  3.2067  1.8464
 2607TIP3   OH229235   2.616   5.545  14.622 -0.1544 -0.0632  0.4798
 2607TIP3    H129236   2.649   5.459  14.648  0.1753 -1.2507 -3.2662
 2607TIP3    H229237   2.521   5.539  14.634  0.0301 -0.0455  2.3190
 2608TIP3   OH229238   1.292   3.174  15.693 -0.3514  0.0722  0.9243
 2608TIP3    H129239   1.297   3.084  15.727 -1.4646  0.9016  3.5342
 2608TIP3    H229240   1.355   3.223  15.747 -0.0471  0.9539 -0.1999
 2609TIP3   OH229241   6.626   4.349   2.141 -0.0862 -0.6120 -0.4345
 2609TIP3    H129242   6.610   4.437   2.105  2.1658 -0.0927 -0.2962
 2609TIP3    H229243   6.538   4.310   2.148 -1.1271  1.5260 -0.6974
 2610TIP3   OH229244   4.463   3.735  14.881  0.6612 -0.0560  0.4724
 2610TIP3    H129245   4.499   3.756  14.795  0.1933  0.2727  0.3556
 2610TIP3    H229246   4.419   3.651  14.869  0.1972  0.2122  0.2751
 2611TIP3   OH229247   6.679   4.381   3.014 -0.1730  0.1595 -0.3680
 2611TIP3    H129248   6.627   4.334   3.079  0.2484 -0.5277 -0.5124
 2611TIP3    H229249   6.684   4.320   2.940  0.6790  0.2960 -0.4241
 2612TIP3   OH229250   4.857   2.295  13.845  0.4686  0.3075 -0.3774
 2612TIP3    H129251   4.922   2.357  13.877  0.9555 -0.4503  0.1435
 2612TIP3    H229252   4.895   2.259  13.766  1.6540 -1.6169  0.9858
 2613TIP3   OH229253   4.766   0.410  15.455  0.0158 -0.0393 -0.7732
 2613TIP3    H129254   4.751   0.426  15.548  3.3539 -3.3398  0.5869
 2613TIP3    H229255   4.739   0.491  15.412 -4.2464  0.6916  2.6259
 2614TIP3   OH229256   5.730   0.342  15.977  0.8213 -0.1196 -0.3194
 2614TIP3    H129257   5.825   0.327  15.978  0.8111 -0.2034 -0.6810
 2614TIP3    H229258   5.720   0.433  16.003  1.0293  0.0586 -0.8671
 2615TIP3   OH229259   0.502   2.612   3.669 -0.6662 -0.9971  0.0019
 2615TIP3    H129260   0.533   2.547   3.732 -0.7312  1.9512  3.3562
 2615TIP3    H229261   0.410   2.591   3.656 -0.7016 -1.5454  1.0796
 2616TIP3   OH229262   1.925   6.612   4.530 -0.0893  0.4330 -0.3004
 2616TIP3    H129263   1.951   6.603   4.438 -0.7952 -2.1089 -0.3215
 2616TIP3    H229264   1.996   6.661   4.570  1.6431 -0.8282 -1.6561
 2617TIP3   OH229265   5.262   5.914  11.832 -0.1121 -0.2995  0.0167
 2617TIP3    H129266   5.247   6.001  11.868 -1.5855 -1.6121  2.9209
 2617TIP3    H229267   5.357   5.907  11.824  0.0618  1.3917  0.1587
 2618TIP3   OH229268   2.629   1.654  11.886 -0.4179  0.5383 -0.1611
 2618TIP3    H129269   2.578   1.705  11.949 -2.5346 -1.3881 -0.1995
 2618TIP3    H229270   2.606   1.691  11.801 -0.1814  0.9615 -0.0443
 2619TIP3   OH229271   5.605   0.347  11.330 -0.4321  0.3458 -0.5318
 2619TIP3    H129272   5.640   0.401  11.259 -0.0844  0.5154 -0.2340
 2619TIP3    H229273   5.679   0.334  11.389 -0.9300  0.9480  0.2513
 2620TIP3   OH229274   0.568   5.793  13.251 -0.2918 -0.0307 -0.1264
 2620TIP3    H129275   0.500   5.730  13.273 -0.9760  0.8827  0.4376
 2620TIP3    H229276   0.529   5.847  13.182  1.2146 -1.7989 -2.5180
 2621TIP3   OH229277   0.217   0.328   2.939 -0.2536  0.3009 -0.1819
 2621TIP3    H129278   0.133   0.306   2.898  0.4321  0.0384 -1.4917
 2621TIP3    H229279   0.275   0.348   2.866  0.4604  1.8911  0.7670
 2622TIP3   OH229280   2.044   0.840  17.340  0.4209 -0.5550 -0.3281
 2622TIP3    H129281   2.040   0.889  17.258 -0.9529 -0.6303 -0.3217
 2622TIP3    H229282   2.053   0.907  17.408  1.4387 -0.4871 -0.5096
 2623TIP3   OH229283   3.475   2.118  13.117 -1.0003 -0.5500  0.4407
 2623TIP3    H129284   3.476   2.108  13.022 -3.6014  1.1774  0.1418
 2623TIP3    H229285   3.390   2.156  13.137 -0.2681 -0.1849  3.4191
 2624TIP3   OH229286   6.393   2.524   2.789 -0.3388  0.3089  0.1073
 2624TIP3    H129287   6.391   2.442   2.740 -1.4747 -0.1041  0.8295
 2624TIP3    H229288   6.307   2.531   2.830  0.1558  1.2663  1.0410
 2625TIP3   OH229289   4.391   6.620  11.870  0.6539  0.1555 -0.6557
 2625TIP3    H129290   4.473   6.579  11.897  0.9586 -0.1009 -1.8995
 2625TIP3    H229291   4.330   6.546  11.859  1.0955  0.0241 -2.5267
 2626TIP3   OH229292   2.707   0.197  13.106 -0.2516  0.0505 -0.1669
 2626TIP3    H129293   2.758   0.210  13.187 -0.5940  0.3909 -0.0044
 2626TIP3    H229294   2.625   0.243  13.122  0.3120  1.5639 -1.3362
 2627TIP3   OH229295   6.449   4.028  12.734 -0.0283 -0.6882  0.0626
 2627TIP3    H129296   6.511   3.999  12.666  0.6000  0.8584 -0.0706
 2627TIP3    H229297   6.474   3.978  12.812  1.1640 -0.3958 -0.1009
 2628TIP3   OH229298   3.181   2.565  14.831 -0.1971 -0.1406  0.4651
 2628TIP3    H129299   3.236   2.643  14.833  1.2014 -1.0338 -0.6296
 2628TIP3    H229300   3.235   2.497  14.872 -0.7735 -0.8685  0.0471
 2629TIP3   OH229301   2.339   6.072   0.304  0.0649  0.6239  0.3712
 2629TIP3    H129302   2.295   6.005   0.251  1.0448  0.9188 -0.8669
 2629TIP3    H229303   2.268   6.122   0.343 -0.7240  0.8930 -1.3292
 2630TIP3   OH229304   1.277   5.634   2.159 -0.5678  0.3820 -0.8776
 2630TIP3    H129305   1.298   5.695   2.229 -1.7628 -0.6242  0.4272
 2630TIP3    H229306   1.345   5.566   2.165 -0.0098  0.8831 -1.4561
 2631TIP3   OH229307   4.388   5.241  16.494  0.0530  0.1492  0.2228
 2631TIP3    H129308   4.343   5.296  16.558  1.6176 -1.7235  3.1817
 2631TIP3    H229309   4.359   5.152  16.515  1.7457 -0.6811 -0.7135
 2632TIP3   OH229310   2.017   4.936   5.848  0.1389 -0.1325 -0.1120
 2632TIP3    H129311   2.029   4.845   5.821  0.5652  0.2601 -1.3211
 2632TIP3    H229312   1.966   4.975   5.778  0.6605  0.7548 -0.0147
 2633TIP3   OH229313   5.727   3.584  11.739 -0.3562 -0.5804  0.0928
 2633TIP3    H129314   5.747   3.609  11.649 -0.7411 -0.7812 -0.0492
 2633TIP3    H229315   5.811   3.592  11.785 -0.0093 -1.1142 -0.4271
 2634TIP3   OH229316   0.939   3.602  11.953  0.2982 -0.0941 -0.0459
 2634TIP3    H129317   0.987   3.524  11.982  1.2547 -0.5373 -2.5827
 2634TIP3    H229318   0.943   3.662  12.027  1.4970 -1.5870  1.1574
 2635TIP3   OH229319   4.862   0.015   0.236  0.8705  0.5777  0.0896
 2635TIP3    H129320   4.917   0.044   0.163  1.4039 -0.9276 -0.1377
 2635TIP3    H229321   4.865   0.088   0.298  2.7752  0.7465 -0.1253
 2636TIP3   OH229322   0.295   6.300   4.011 -0.1244 -0.3402 -0.5257
 2636TIP3    H129323   0.383   6.270   4.035  0.0109 -0.1591 -0.7966
 2636TIP3    H229324   0.244   6.219   4.006 -0.5280 -0.2909  1.8208
 2637TIP3   OH229325   6.523   4.711   4.713  0.3648  0.1771  0.2271
 2637TIP3    H129326   6.448   4.769   4.729  0.2270 -0.1268  0.7158
 2637TIP3    H229327   6.570   4.751   4.640  0.2138  0.8453  0.4945
 2638TIP3   OH229328   3.552   0.694  11.166  0.0160  0.4051  0.0003
 2638TIP3    H129329   3.620   0.761  11.175  0.8570 -0.2390 -1.2574
 2638TIP3    H229330   3.570   0.631  11.235  1.8442 -0.6837 -1.3848
 2639TIP3   OH229331   5.495   1.219  11.460  0.0467 -0.8330  0.0831
 2639TIP3    H129332   5.513   1.148  11.398 -1.6317 -2.0788  0.9230
 2639TIP3    H229333   5.410   1.254  11.432 -0.1907 -0.6604  0.9841
 2640TIP3   OH229334   6.062   0.025  12.183  0.1179 -0.2868 -0.1499
 2640TIP3    H129335   6.121   0.094  12.212 -0.8120  1.0273 -1.2452
 2640TIP3    H229336   5.985   0.032  12.240 -0.9049  1.0617 -1.6182
 2641TIP3   OH229337   5.392   0.606   1.672 -0.0364 -0.0165 -0.4556
 2641TIP3    H129338   5.384   0.532   1.611  0.6875  0.1881 -0.8186
 2641TIP3    H229339   5.474   0.648   1.647 -1.2060  1.8712 -1.3179
 2642TIP3   OH229340   1.906   0.709  15.548  0.0488  0.2596 -0.6763
 2642TIP3    H129341   1.882   0.702  15.456 -0.3100 -0.2988 -0.5432
 2642TIP3    H229342   2.002   0.704  15.549 -0.0101 -1.1896 -0.8986
 2643TIP3   OH229343   5.005   3.574  14.308  0.0479 -0.4338  0.3777
 2643TIP3    H129344   5.057   3.621  14.242 -1.7545  0.8217 -0.2131
 2643TIP3    H229345   5.061   3.500  14.333  1.3698 -0.1714 -1.5322
 2644TIP3   OH229346   3.100   6.726  14.227 -0.4598  0.0836 -0.3113
 2644TIP3    H129347   3.059   6.656  14.277  1.4280 -1.1107 -0.3504
 2644TIP3    H229348   3.046   6.735  14.149 -1.3458 -0.5672  0.2188
 2645TIP3   OH229349   3.876   4.787   1.137 -0.2016  0.1624  0.4496
 2645TIP3    H129350   3.871   4.878   1.108  0.3715  1.3723  3.7424
 2645TIP3    H229351   3.962   4.779   1.176 -1.0130 -1.1621  2.0813
 2646TIP3   OH229352   4.270   5.307  13.325  0.6093 -0.6594  0.1303
 2646TIP3    H129353   4.209   5.288  13.253 -1.0123  0.8318  1.0103
 2646TIP3    H229354   4.222   5.281  13.404  1.4503 -0.2380  0.7938
 2647TIP3   OH229355   6.287   2.561   4.765  0.1837  0.6767 -0.3967
 2647TIP3    H129356   6.254   2.650   4.754 -0.2446  0.7048  1.0359
 2647TIP3    H229357   6.240   2.509   4.699  0.1248  1.4180 -0.9450
 2648TIP3   OH229358   5.194   6.152  13.470 -0.2078 -0.4329  0.3609
 2648TIP3    H129359   5.183   6.216  13.540 -0.0513  0.7347 -0.6425
 2648TIP3    H229360   5.256   6.088  13.505 -1.6603 -1.0019  2.0124
 2649TIP3   OH229361   5.356   0.327  14.371  0.0967 -0.1164 -0.3488
 2649TIP3    H129362   5.434   0.303  14.421  1.8839  1.1118 -2.3644
 2649TIP3    H229363   5.290   0.344  14.438  0.9797 -2.8659  1.3856
 2650TIP3   OH229364   2.268   5.878  14.194 -0.3920  0.0527 -0.2087
 2650TIP3    H129365   2.224   5.963  14.189 -1.8050 -0.5439  1.2908
 2650TIP3    H229366   2.343   5.893  14.252  0.0601  0.5278 -0.8992
 2651TIP3   OH229367   1.834   1.061  13.386  0.0863 -0.0266 -0.5656
 2651TIP3    H129368   1.838   1.108  13.469 -0.8879 -0.5109 -0.2271
 2651TIP3    H229369   1.793   0.977  13.408  1.2669 -0.8280 -1.2482
 2652TIP3   OH229370   0.175   2.391   5.609 -0.1594  0.5579 -0.2427
 2652TIP3    H129371   0.245   2.326   5.607 -1.3701 -0.8510  0.7071
 2652TIP3    H229372   0.166   2.412   5.702  0.8671  2.8942 -0.6008
 2653TIP3   OH229373   1.594   5.372  12.196 -0.8441 -0.6275 -0.2589
 2653TIP3    H129374   1.582   5.460  12.159  0.1346 -0.0526  0.7509
 2653TIP3    H229375   1.664   5.333  12.143  0.0725 -0.0641  0.5155
 2654TIP3   OH229376   2.855   2.275  16.549 -0.2894 -0.0612  0.0539
 2654TIP3    H129377   2.950   2.274  16.539 -0.1083  0.7713  1.4180
 2654TIP3    H229378   2.823   2.326  16.475  0.3358 -0.2464 -0.3463
 2655TIP3   OH229379   4.023   2.071  11.884 -0.2237  0.3710  0.0912
 2655TIP3    H129380   3.997   2.002  11.945  1.2359 -1.4054 -1.1919
 2655TIP3    H229381   3.978   2.149  11.916  0.5262 -0.4330  3.4409
 2656TIP3   OH229382   2.498   0.638   3.379 -0.3070 -0.3342 -0.0938
 2656TIP3    H129383   2.452   0.691   3.313  1.3865 -1.4361 -2.2793
 2656TIP3    H229384   2.574   0.603   3.333  1.2241 -0.8476  2.6029
 2657TIP3   OH229385   0.882   0.307  16.300  0.1086 -0.4832  0.2745
 2657TIP3    H129386   0.802   0.266  16.267  0.2451 -0.7099  0.2245
 2657TIP3    H229387   0.922   0.348  16.223 -0.1431 -0.0646  0.3663
 2658TIP3   OH229388   1.189   2.732  14.844 -0.0292 -0.4449 -0.5974
 2658TIP3    H129389   1.236   2.795  14.790  0.9246  0.5765  1.3336
 2658TIP3    H229390   1.240   2.651  14.837 -0.1104 -0.4337 -1.4464
 2659TIP3   OH229391   0.140   1.338   5.272 -0.2185  0.0645  0.6428
 2659TIP3    H129392   0.088   1.379   5.341 -1.0916  1.4699 -0.7737
 2659TIP3    H229393   0.219   1.308   5.316 -1.5032 -0.7092  2.5671
 2660TIP3   OH229394   2.941   2.403  14.138  0.2450 -0.3929 -0.2968
 2660TIP3    H129395   2.855   2.445  14.131  0.3071 -0.3875 -1.0563
 2660TIP3    H229396   2.984   2.450  14.209  0.6137  1.3803 -1.6219
 2661TIP3   OH229397   6.091   0.875   3.479  0.5257 -0.3155 -0.6154
 2661TIP3    H129398   6.172   0.861   3.528  0.0954 -1.4630 -0.1989
 2661TIP3    H229399   6.051   0.789   3.474  0.2731 -0.1173 -2.5322
 2662TIP3   OH229400   3.270   6.236   3.206 -0.4374 -0.1586 -0.0996
 2662TIP3    H129401   3.263   6.308   3.143 -0.5476  0.7731  0.9379
 2662TIP3    H229402   3.254   6.277   3.291 -1.6902 -1.6382  0.4276
 2663TIP3   OH229403   4.819   1.875  13.680  0.3202  0.2741 -0.1223
 2663TIP3    H129404   4.877   1.801  13.698  0.6673  0.4054 -0.6891
 2663TIP3    H229405   4.761   1.879  13.757  0.3895 -0.4949 -0.0188
 2664TIP3   OH229406   2.959   4.637   5.577 -0.8268  0.1840  0.2876
 2664TIP3    H129407   3.002   4.722   5.586 -0.5279  0.0883 -0.2514
 2664TIP3    H229408   3.014   4.576   5.625 -1.2806  0.3666  1.0653
 2665TIP3   OH229409   2.801   2.924  15.058 -0.1672 -0.3764 -0.3164
 2665TIP3    H129410   2.773   2.939  14.968 -0.3552  1.7947  0.0455
 2665TIP3    H229411   2.725   2.949  15.111 -0.3100 -2.3067  0.4567
 2666TIP3   OH229412   6.015   0.248   0.393 -0.4753  0.0450 -0.7981
 2666TIP3    H129413   6.080   0.315   0.371  3.1321 -2.6380  0.5190
 2666TIP3    H229414   6.028   0.180   0.327 -2.7870 -0.1806 -1.0839
 2667TIP3   OH229415   4.603   2.332  12.727 -0.0187 -0.7736 -0.4257
 2667TIP3    H129416   4.649   2.254  12.696  1.1224  0.0693 -0.9371
 2667TIP3    H229417   4.547   2.358  12.654  1.3199  0.1680 -1.1777
 2668TIP3   OH229418   2.822   4.813  10.677 -0.3494 -0.3898 -0.0270
 2668TIP3    H129419   2.773   4.760  10.740  1.5647 -1.6537  0.4618
 2668TIP3    H229420   2.834   4.756  10.601 -2.2190  0.9609 -1.4508
 2669TIP3   OH229421   1.315   1.375  13.793  0.0403  0.0387  0.2603
 2669TIP3    H129422   1.408   1.366  13.812  0.3871  1.2854 -0.6978
 2669TIP3    H229423   1.304   1.330  13.710  0.1047  1.1171 -0.3528
 2670TIP3   OH229424   1.227   5.764   2.596 -0.2411 -0.5280  0.4569
 2670TIP3    H129425   1.272   5.817   2.661 -0.3858 -0.5426  0.5702
 2670TIP3    H229426   1.239   5.674   2.625  2.0550 -0.7657 -1.0088
 2671TIP3   OH229427   3.180   6.398  13.295 -0.1086 -0.2696 -0.2578
 2671TIP3    H129428   3.138   6.320  13.331  1.6720 -0.6162  1.1521
 2671TIP3    H229429   3.131   6.471  13.332 -1.3683 -0.6690 -1.0650
 2672TIP3   OH229430   3.939   2.275   0.130 -0.4580  0.2803  0.4898
 2672TIP3    H129431   3.890   2.352   0.159 -1.3489  0.0764 -0.4181
 2672TIP3    H229432   3.881   2.201   0.149 -0.5625  0.0418 -0.7069
 2673TIP3   OH229433   6.644   2.554  12.568  0.1575  0.5535  0.5272
 2673TIP3    H129434   6.578   2.505  12.617 -0.4840  1.6456  0.7764
 2673TIP3    H229435   6.658   2.502  12.489 -0.0565 -0.3365  1.0516
 2674TIP3   OH229436   2.102   0.414  17.044  0.1346 -0.7527  0.6281
 2674TIP3    H129437   2.031   0.350  17.056 -0.3576 -0.3344  0.0002
 2674TIP3    H229438   2.076   0.489  17.097 -1.3726  0.5612 -1.8378
 2675TIP3   OH229439   1.963   1.826   4.073  0.1056 -0.4092  0.0014
 2675TIP3    H129440   1.935   1.917   4.079  1.4999  0.0188  0.2527
 2675TIP3    H229441   1.898   1.778   4.124  0.6921  0.7623  1.9557
 2676TIP3   OH229442   0.457   1.059   1.594  0.7183  0.4873  0.4196
 2676TIP3    H129443   0.507   1.130   1.555 -0.1647 -0.2025 -2.1466
 2676TIP3    H229444   0.498   1.045   1.680  2.4410  2.4250 -0.0077
 2677TIP3   OH229445   2.706   4.640   1.764 -0.8597 -0.3369 -0.4386
 2677TIP3    H129446   2.622   4.609   1.730 -0.9924  0.8746 -1.2843
 2677TIP3    H229447   2.759   4.655   1.686 -1.6017  3.7697 -0.3718
 2678TIP3   OH229448   3.716   4.476   0.809  0.1791 -0.6850  0.4165
 2678TIP3    H129449   3.721   4.505   0.900 -2.5208  0.7952  0.2007
 2678TIP3    H229450   3.672   4.391   0.814  0.1022 -0.6408  0.5345
 2679TIP3   OH229451   0.187   0.536  12.224  0.2519  0.5383  0.1021
 2679TIP3    H129452   0.124   0.466  12.243 -0.2253  1.1672  0.8550
 2679TIP3    H229453   0.268   0.489  12.202 -0.1736 -0.2585  0.1809
 2680TIP3   OH229454   5.685   2.755  12.447 -0.5665 -0.1078  0.5485
 2680TIP3    H129455   5.754   2.810  12.484  1.6028 -1.9340 -0.5227
 2680TIP3    H229456   5.604   2.788  12.486  1.0662  1.0171  3.2630
 2681TIP3   OH229457   6.712   3.491   1.487 -0.3234 -0.6712  0.3683
 2681TIP3    H129458   6.738   3.453   1.402 -0.2210  0.9504 -0.3585
 2681TIP3    H229459   6.794   3.498   1.536  0.2461  1.6643 -0.7882
 2682TIP3   OH229460   5.543   6.163   2.425  0.9986  0.4857 -0.3616
 2682TIP3    H129461   5.515   6.201   2.342  0.7713  0.8503 -0.1183
 2682TIP3    H229462   5.546   6.069   2.408  0.4757  0.5181 -0.6442
 2683TIP3   OH229463   2.735   4.538   6.933  0.8325 -0.0865 -0.1128
 2683TIP3    H129464   2.821   4.565   6.965  0.2228 -0.0715  1.5896
 2683TIP3    H229465   2.729   4.445   6.956  0.3777 -0.0833 -0.2165
 2684TIP3   OH229466   1.403   3.923   4.981  0.1139 -0.8607  0.0405
 2684TIP3    H129467   1.310   3.919   5.004  0.1234  1.0632  0.5985
 2684TIP3    H229468   1.404   3.962   4.894  0.3987 -0.3640  0.2602
 2685TIP3   OH229469   1.151   4.334   2.397 -0.3116 -0.3756  0.3938
 2685TIP3    H129470   1.192   4.336   2.484  0.5014 -0.7569  0.0252
 2685TIP3    H229471   1.164   4.244   2.366 -1.0693 -0.3903  0.0900
 2686TIP3   OH229472   0.604   5.054  14.443 -0.2297  0.3403 -0.2649
 2686TIP3    H129473   0.613   4.976  14.389  0.9333  1.1259 -1.2605
 2686TIP3    H229474   0.679   5.051  14.503 -0.9325  0.0147  0.6197
 2687TIP3   OH229475   1.779   0.988  14.041 -0.1306  0.0786  0.7180
 2687TIP3    H129476   1.791   0.984  13.946  0.5671 -0.7559  0.8229
 2687TIP3    H229477   1.860   1.027  14.074 -1.3109  2.6315  0.8238
 2688TIP3   OH229478   0.062   1.885   0.101  0.0247  0.0205 -0.2360
 2688TIP3    H129479   0.108   1.937   0.167 -1.2598 -0.6909  1.2867
 2688TIP3    H229480  -0.003   1.945   0.064  1.1824  0.6163 -1.3930
 2689TIP3   OH229481   6.198   4.746  15.408 -0.0482  0.2143  0.3124
 2689TIP3    H129482   6.266   4.814  15.406 -0.1732  0.3328 -1.3281
 2689TIP3    H229483   6.209   4.700  15.325 -1.1666 -0.5952  0.5989
 2690TIP3   OH229484   3.065   6.188   1.216  0.2709  0.1205  0.1272
 2690TIP3    H129485   3.144   6.159   1.262  0.4285 -0.8083 -0.6981
 2690TIP3    H229486   3.097   6.251   1.152  0.4889 -0.9768 -0.8643
 2691TIP3   OH229487   4.804   3.329  16.369  0.7065 -0.1337 -0.3699
 2691TIP3    H129488   4.842   3.260  16.423  0.0694 -0.5022 -0.3777
 2691TIP3    H229489   4.793   3.288  16.283  0.2252 -0.0629 -0.3466
 2692TIP3   OH229490   0.608   5.845  14.689  0.2897  0.1876 -0.3933
 2692TIP3    H129491   0.552   5.779  14.730  0.0419  0.5819 -0.0837
 2692TIP3    H229492   0.667   5.873  14.759 -0.7789  1.5742 -0.0021
 2693TIP3   OH229493   3.111   0.472   2.612 -0.2006  0.0251 -0.2699
 2693TIP3    H129494   3.188   0.524   2.587 -0.2938  0.0815 -0.4408
 2693TIP3    H229495   3.037   0.532   2.601 -0.9071 -1.2748 -4.7713
 2694TIP3   OH229496   2.746   3.459  13.944 -0.5258 -0.4318  0.2161
 2694TIP3    H129497   2.786   3.443  14.030 -0.1488  1.7837  0.5243
 2694TIP3    H229498   2.737   3.372  13.905  2.2172 -1.2699  1.2090
 2695TIP3   OH229499   3.078   1.133  15.746  0.1933 -0.6016 -0.3516
 2695TIP3    H129500   3.082   1.054  15.692  3.0268 -0.8152 -0.0147
 2695TIP3    H229501   3.145   1.191  15.708 -0.8321  1.0653  0.2804
 2696TIP3   OH229502   2.067   6.183  11.222 -0.4259  0.9001  0.6217
 2696TIP3    H129503   2.153   6.224  11.214  0.1974 -0.3860  0.4710
 2696TIP3    H229504   2.034   6.180  11.132  1.2897 -2.4687 -0.0823
 2697TIP3   OH229505   0.102   1.792  12.306 -0.2477  0.1846 -0.4319
 2697TIP3    H129506   0.145   1.720  12.353 -1.7148  0.4816  1.5020
 2697TIP3    H229507   0.008   1.776  12.318 -0.6390  1.3180 -1.7258
 2698TIP3   OH229508   1.354   1.590   0.125 -0.7826  0.2349 -0.2485
 2698TIP3    H129509   1.276   1.624   0.081 -0.0029  3.1252  0.4411
 2698TIP3    H229510   1.351   1.627   0.213 -0.5361 -2.7064  1.1088
 2699TIP3   OH229511   6.088   2.827  16.761  0.0699 -0.5110 -0.5064
 2699TIP3    H129512   6.159   2.798  16.819 -0.3032 -2.1049 -0.7808
 2699TIP3    H229513   6.133   2.855  16.681  0.4228 -1.1672 -0.5469
 2700TIP3   OH229514   2.936   1.246   4.977 -0.0189  0.6474  0.3537
 2700TIP3    H129515   2.892   1.197   5.045 -1.3156 -1.0881 -1.6077
 2700TIP3    H229516   3.026   1.213   4.979 -0.3404 -0.2646  0.4740
 2701TIP3   OH229517   4.468   1.981   4.040  0.2584  0.0425  0.1442
 2701TIP3    H129518   4.406   2.054   4.032 -0.5685 -0.3166  2.6026
 2701TIP3    H229519   4.494   1.981   4.132  1.0396 -2.1317 -0.0146
 2702TIP3   OH229520   4.712   5.855  11.675  0.2913 -0.8144  0.2793
 2702TIP3    H129521   4.653   5.827  11.604 -0.2105 -0.2509  0.4638
 2702TIP3    H229522   4.725   5.949  11.659  1.4611 -1.0117  0.0212
 2703TIP3   OH229523   2.466   3.000   2.258  0.6279 -0.3601  0.3139
 2703TIP3    H129524   2.463   3.047   2.341 -0.7652 -0.3642  0.2803
 2703TIP3    H229525   2.527   3.051   2.204  0.9608  0.0635  1.0757
 2704TIP3   OH229526   0.485   4.787  16.598 -0.2664 -0.0397  0.4987
 2704TIP3    H129527   0.396   4.804  16.628 -0.5156  1.0875 -0.7559
 2704TIP3    H229528   0.482   4.803  16.503  1.4913  1.0289  0.5761
 2705TIP3   OH229529   0.797   4.628   5.287  0.3308  0.4668  0.2281
 2705TIP3    H129530   0.801   4.535   5.308 -2.4316  0.1754 -0.1783
 2705TIP3    H229531   0.760   4.631   5.199 -1.4706  1.9618  0.9859
 2706TIP3   OH229532   6.671   6.185   4.567 -0.0351 -0.2588 -0.5614
 2706TIP3    H129533   6.751   6.133   4.577 -0.2421 -0.2866  1.4061
 2706TIP3    H229534   6.698   6.274   4.587 -0.5760 -0.3504  0.6602
 2707TIP3   OH229535   5.562   4.855   5.765  0.6206  0.6125 -0.2401
 2707TIP3    H129536   5.620   4.793   5.809  1.6495  2.2179  0.7609
 2707TIP3    H229537   5.502   4.800   5.715  1.3755 -1.1883  0.7384
 2708TIP3   OH229538   4.800   0.276   1.557 -0.1565 -0.2985 -0.6746
 2708TIP3    H129539   4.816   0.305   1.647  0.6668 -0.4617 -0.7568
 2708TIP3    H229540   4.771   0.355   1.511  1.0741  0.1903 -0.6514
 2709TIP3   OH229541   1.116   5.686   0.372 -0.4629  0.0495 -0.4939
 2709TIP3    H129542   1.090   5.643   0.291 -1.2527  0.3656 -0.4155
 2709TIP3    H229543   1.086   5.776   0.363  1.5793  0.7464 -0.8402
 2710TIP3   OH229544   6.728   2.316  11.340  0.6337 -0.1688  0.1698
 2710TIP3    H129545   6.707   2.229  11.374 -0.2801  0.7605  2.1582
 2710TIP3    H229546   6.766   2.300  11.253  1.5839 -2.5893  0.9620
 2711TIP3   OH229547   0.752   1.437   5.394  0.0590 -0.0131 -0.1242
 2711TIP3    H129548   0.774   1.353   5.354  0.3884  0.4126 -0.8661
 2711TIP3    H229549   0.658   1.433   5.411  0.1515 -0.6871  0.2228
 2712TIP3   OH229550   1.441   5.743  12.518 -0.0966 -0.1766 -0.4214
 2712TIP3    H129551   1.400   5.770  12.436  2.5386  0.8965 -1.4684
 2712TIP3    H229552   1.440   5.822  12.572  0.8218 -0.0460 -0.5799
 2713TIP3   OH229553   4.489   5.787   2.554  0.5944 -0.3395  0.3859
 2713TIP3    H129554   4.463   5.802   2.645  0.4171  1.0911  0.1169
 2713TIP3    H229555   4.430   5.842   2.503  0.6917 -1.1309 -0.6015
 2714TIP3   OH229556   0.351   6.666  13.895  0.8641 -0.1831 -0.8602
 2714TIP3    H129557   0.375   6.758  13.881 -0.4147  0.6894  1.8751
 2714TIP3    H229558   0.430   6.626  13.930  0.6609  0.6716  0.6771
 2715TIP3   OH229559   0.752   4.645  14.448 -0.1728  0.1336 -0.2164
 2715TIP3    H129560   0.818   4.688  14.395  1.0723  0.8130  1.7855
 2715TIP3    H229561   0.796   4.626  14.531 -2.0972 -0.6322  0.6934
 2716TIP3   OH229562   3.327   4.645  13.240  0.3015  0.4429  0.1577
 2716TIP3    H129563   3.402   4.606  13.194  0.8851  1.9417 -0.2334
 2716TIP3    H229564   3.306   4.723  13.188 -1.0388  0.4645  0.7130
 2717TIP3   OH229565   4.649   5.343  16.388 -0.3064  0.6764 -0.6118
 2717TIP3    H129566   4.727   5.378  16.345  0.4941  0.3719  0.5617
 2717TIP3    H229567   4.679   5.265  16.433 -1.4700  0.1026 -0.7932
 2718TIP3   OH229568   2.983   2.470  12.796 -0.1113 -0.2913  0.5221
 2718TIP3    H129569   3.019   2.473  12.885 -1.4583 -0.8521  1.1290
 2718TIP3    H229570   3.035   2.404  12.751  0.9558  0.3993  0.7033
 2719TIP3   OH229571   5.417   3.117   2.856  0.7806  0.0039  0.0287
 2719TIP3    H129572   5.369   3.192   2.890  0.9324 -0.1058  0.4866
 2719TIP3    H229573   5.448   3.146   2.769  3.2513  1.5227  1.3006
 2720TIP3   OH229574   0.432   2.322  12.366 -0.6816  0.0652 -0.3180
 2720TIP3    H129575   0.345   2.286  12.350 -1.7577  2.1832  0.3237
 2720TIP3    H229576   0.486   2.289  12.294 -1.5340 -2.6833  0.2144
 2721TIP3   OH229577   1.895   2.083   6.797 -0.8532  0.2331  0.2090
 2721TIP3    H129578   1.920   2.116   6.710  0.7895  1.1106  0.9715
 2721TIP3    H229579   1.804   2.110   6.807 -0.8573  0.7342 -0.9669
 2722TIP3   OH229580   2.798   0.386  12.476  0.0348 -0.0102 -0.2406
 2722TIP3    H129581   2.812   0.304  12.428  2.7057  0.6252 -0.7409
 2722TIP3    H229582   2.856   0.379  12.552 -2.7561 -0.2219  2.0426
 2723TIP3   OH229583   3.302   4.203  16.189  0.2437 -0.1189 -0.8856
 2723TIP3    H129584   3.265   4.122  16.153 -0.5850 -0.4567  0.6276
 2723TIP3    H229585   3.268   4.207  16.278 -1.5417  3.0072 -1.5537
 2724TIP3   OH229586   6.248   1.778   3.048 -0.2127  0.3086  0.7481
 2724TIP3    H129587   6.221   1.788   2.957  1.9110  1.7748  0.1877
 2724TIP3    H229588   6.170   1.798   3.099 -1.2021  0.3790 -0.7420
 2725TIP3   OH229589   4.253   6.062  12.131 -0.0796  0.4517  0.3658
 2725TIP3    H129590   4.231   5.989  12.074  3.2564 -0.0295 -0.5235
 2725TIP3    H229591   4.178   6.121  12.125 -2.4110 -2.3085  0.2320
 2726TIP3   OH229592   2.900   5.667  14.853 -0.0247 -0.1824  0.1859
 2726TIP3    H129593   2.828   5.713  14.895  0.9678  1.2965  0.3428
 2726TIP3    H229594   2.972   5.730  14.852  0.6399 -0.8847 -1.8212
 2727TIP3   OH229595   3.724   3.139   2.676 -0.3269 -0.5167 -0.3417
 2727TIP3    H129596   3.743   3.232   2.662 -0.2912 -0.3614  0.6483
 2727TIP3    H229597   3.756   3.095   2.597  1.5107  0.0713  0.0350
 2728TIP3   OH229598   3.133   3.338   0.982  0.3584 -0.0060 -0.2139
 2728TIP3    H129599   3.190   3.271   0.946  0.0141 -1.1112  1.2249
 2728TIP3    H229600   3.187   3.417   0.985  1.4324 -0.7338  0.0193
 2729TIP3   OH229601   2.472   2.726   3.522  0.3958  0.0542  0.5372
 2729TIP3    H129602   2.409   2.793   3.495  2.3408  2.3750  1.4408
 2729TIP3    H229603   2.545   2.737   3.461  1.7718  0.4617  2.2035
 2730TIP3   OH229604   5.873   0.885   4.902  0.0597  0.0165 -0.2735
 2730TIP3    H129605   5.803   0.926   4.952  0.5072 -0.8728  1.1341
 2730TIP3    H229606   5.951   0.895   4.956  0.5633 -0.9446 -0.7910
 2731TIP3   OH229607   5.295   4.265   0.800 -0.0594 -0.3166 -0.0951
 2731TIP3    H129608   5.363   4.262   0.867 -0.6160 -0.4061  0.4703
 2731TIP3    H229609   5.218   4.228   0.842 -0.7762  0.8226 -0.3579
 2732TIP3   OH229610   2.554   5.849   4.942 -0.0895 -0.1031  0.1582
 2732TIP3    H129611   2.522   5.759   4.934  0.0673 -0.1093 -0.4225
 2732TIP3    H229612   2.529   5.875   5.031 -1.9988  0.0125 -0.3571
 2733TIP3   OH229613   3.045   0.909  16.843 -0.0586 -0.0212  0.3497
 2733TIP3    H129614   3.070   0.838  16.784 -0.2953 -0.0450  0.2794
 2733TIP3    H229615   3.054   0.988  16.789 -0.4702 -0.0616  0.2235
 2734TIP3   OH229616   4.480   0.279  15.493  0.0625  0.5006  0.7064
 2734TIP3    H129617   4.480   0.343  15.422 -0.4047 -1.0559 -0.7426
 2734TIP3    H229618   4.562   0.297  15.540  1.4737  0.2333 -1.4904
 2735TIP3   OH229619   2.538   5.824  15.738  0.4326  0.3601  0.1922
 2735TIP3    H129620   2.600   5.863  15.677  0.4332  1.5310  0.9054
 2735TIP3    H229621   2.465   5.886  15.742 -0.5502 -0.7295 -0.2186
 2736TIP3   OH229622   0.543   3.234  13.580 -0.1194  0.4360 -0.2035
 2736TIP3    H129623   0.478   3.168  13.604 -0.3957  1.2031  1.2813
 2736TIP3    H229624   0.591   3.251  13.661  0.6716  1.2711 -0.8254
 2737TIP3   OH229625   4.582   0.575   2.994  0.5430 -0.7357  0.7341
 2737TIP3    H129626   4.578   0.669   3.013  1.6514 -0.5841  0.2861
 2737TIP3    H229627   4.668   0.562   2.954 -0.3738 -1.6000 -1.1044
 2738TIP3   OH229628   2.414   0.941  14.570 -0.5558 -0.2601  0.2984
 2738TIP3    H129629   2.384   1.028  14.595  2.2142  0.7486  0.4385
 2738TIP3    H229630   2.412   0.890  14.651 -1.9904 -0.3188  0.2532
 2739TIP3   OH229631   4.737   4.999   3.304 -0.2596 -0.0470 -0.6534
 2739TIP3    H129632   4.729   4.946   3.224 -0.6887  0.7655 -1.1636
 2739TIP3    H229633   4.713   4.939   3.375 -0.1242 -0.7085 -1.1572
 2740TIP3   OH229634   4.883   1.110   3.687 -0.3220  0.1910 -0.4846
 2740TIP3    H129635   4.806   1.065   3.653 -0.8320 -0.0085  0.8826
 2740TIP3    H229636   4.884   1.194   3.640  0.3466 -0.9844 -2.6613
 2741TIP3   OH229637   0.996   3.869   5.187  0.7391  0.4683  0.1998
 2741TIP3    H129638   1.033   3.790   5.225  1.4308  1.4739  1.7390
 2741TIP3    H229639   1.017   3.938   5.250 -0.1604  1.8188 -0.9072
 2742TIP3   OH229640   1.824   4.802  10.957 -0.4773 -0.3530  0.3066
 2742TIP3    H129641   1.856   4.739  11.022  2.6549  0.8179  0.0530
 2742TIP3    H229642   1.835   4.758  10.873 -2.6857 -1.1271  0.3671
 2743TIP3   OH229643   3.048   1.928  14.101  0.3253  0.0791 -0.1324
 2743TIP3    H129644   2.988   1.869  14.055 -0.5188  0.0583  0.9691
 2743TIP3    H229645   3.038   2.012  14.057 -0.2120 -0.0197 -0.2018
 2744TIP3   OH229646   0.334   0.443   2.484  0.5382  0.4686 -0.1417
 2744TIP3    H129647   0.263   0.379   2.486  1.4535 -0.5500  1.1293
 2744TIP3    H229648   0.375   0.437   2.570 -1.3227  5.1331  1.4046
 2745TIP3   OH229649   0.824   0.582   2.992 -0.4496  0.2735  0.4012
 2745TIP3    H129650   0.805   0.570   3.085  0.2610  0.4064  0.5707
 2745TIP3    H229651   0.852   0.674   2.985 -1.8696  0.6943 -0.1860
 2746TIP3   OH229652   5.935   1.790  15.580  0.5651  0.0918  0.4916
 2746TIP3    H129653   5.891   1.829  15.655  2.4356 -0.6172  2.0103
 2746TIP3    H229654   5.961   1.703  15.609  0.2346 -0.6982 -1.4123
 2747TIP3   OH229655   3.825   4.021  13.171 -0.4161  0.2553  0.5855
 2747TIP3    H129656   3.862   4.052  13.254 -0.0498 -1.5897  1.1637
 2747TIP3    H229657   3.887   4.051  13.105  1.0591 -0.9430  1.3342
 2748TIP3   OH229658   2.563   1.204  17.177  0.2252 -0.4633  0.4133
 2748TIP3    H129659   2.565   1.260  17.255  0.8184 -0.4649  0.4037
 2748TIP3    H229660   2.478   1.221  17.137  0.6039  0.8420  0.1229
 2749TIP3   OH229661   5.521   4.236   0.982  0.2445  0.5773 -0.4030
 2749TIP3    H129662   5.600   4.272   0.939  1.0473  0.4503  0.9130
 2749TIP3    H229663   5.516   4.282   1.065 -0.2772 -0.4257  0.1396
 2750TIP3   OH229664   3.478   4.524  12.508 -0.2580 -0.1547  0.4940
 2750TIP3    H129665   3.414   4.539  12.438 -0.8589  0.3685  1.1404
 2750TIP3    H229666   3.559   4.505  12.462 -0.1783  2.0710 -0.4188
 2751TIP3   OH229667   4.916   4.244   3.410  0.5811 -0.1117 -0.1211
 2751TIP3    H129668   4.870   4.315   3.366  0.9978  0.5157  0.4398
 2751TIP3    H229669   5.008   4.267   3.403  0.8789 -1.5619 -1.6006
 2752TIP3   OH229670   6.453   6.477   2.442 -0.0532 -0.2663 -0.3128
 2752TIP3    H129671   6.495   6.562   2.454  0.6769 -0.9158  2.6981
 2752TIP3    H229672   6.362   6.490   2.471 -0.0219 -0.4129 -0.1418
 2753TIP3   OH229673   0.737   3.624  14.172 -0.8901  0.4152  0.2787
 2753TIP3    H129674   0.694   3.554  14.222  0.5830  0.8557  2.2748
 2753TIP3    H229675   0.768   3.685  14.238 -1.8258  2.8367 -1.3895
 2754TIP3   OH229676   1.539   0.975   2.249  0.2827 -0.3423 -0.3559
 2754TIP3    H129677   1.610   1.014   2.198  0.6562 -0.4265  0.0925
 2754TIP3    H229678   1.462   0.984   2.193  0.7038 -0.5306 -0.9859
 2755TIP3   OH229679   6.648   6.105  16.241 -0.0903 -0.2874 -0.4022
 2755TIP3    H129680   6.648   6.186  16.190 -1.6376  0.1384  0.2209
 2755TIP3    H229681   6.695   6.128  16.322  2.0511 -0.8655 -1.4152
 2756TIP3   OH229682   1.078   6.102   4.221  0.3087 -0.3559 -0.7228
 2756TIP3    H129683   1.026   6.182   4.217  1.9161  0.7335 -0.7711
 2756TIP3    H229684   1.148   6.122   4.284 -0.8560 -2.7264  1.5022
 2757TIP3   OH229685   5.615   2.453   5.643  0.3056 -0.5043 -0.0335
 2757TIP3    H129686   5.645   2.367   5.673  0.2518 -0.0964  1.2505
 2757TIP3    H229687   5.523   2.440   5.621 -0.4773 -0.2410  2.7037
 2758TIP3   OH229688   2.028   4.908  16.899  0.0468 -0.1956 -0.4084
 2758TIP3    H129689   2.024   4.818  16.930 -2.2076  0.2917  0.9270
 2758TIP3    H229690   2.118   4.935  16.915  0.4792 -1.8577  0.1434
 2759TIP3   OH229691   3.789   5.931   0.415 -0.0895 -0.5554 -0.6645
 2759TIP3    H129692   3.847   5.999   0.448 -0.0405 -0.8129 -0.2084
 2759TIP3    H229693   3.846   5.855   0.401 -0.0628 -0.3834 -1.5841
 2760TIP3   OH229694   4.197   1.594  14.937 -0.4500  0.5179  0.6154
 2760TIP3    H129695   4.263   1.578  14.869 -1.1450 -2.7070  0.5715
 2760TIP3    H229696   4.160   1.680  14.915  3.3855  2.3526  0.4510
 2761TIP3   OH229697   6.479   4.059  17.283 -0.2887  0.2404 -0.4048
 2761TIP3    H129698   6.569   4.053  17.316 -0.8215 -0.3455  1.0181
 2761TIP3    H229699   6.473   3.988  17.218  0.2914  0.3453 -0.5800
 2762TIP3   OH229700   2.702   0.169   3.165  0.2338  0.0220  0.1199
 2762TIP3    H129701   2.683   0.113   3.241 -0.4776  0.7857  0.5286
 2762TIP3    H229702   2.776   0.223   3.193  0.8894 -0.6627 -0.2575
 2763TIP3   OH229703   0.069   5.091  15.257 -0.7561  0.3734 -0.0600
 2763TIP3    H129704   0.131   5.038  15.208  0.2601  1.7078 -0.2603
 2763TIP3    H229705   0.005   5.120  15.192 -0.5662  0.4736 -0.2020
 2764TIP3   OH229706   0.871   3.065  13.280  0.2634 -0.6208  0.3347
 2764TIP3    H129707   0.867   3.142  13.337 -1.0173 -1.2630  1.1604
 2764TIP3    H229708   0.963   3.041  13.280  0.5339  0.3305  0.8510
 2765TIP3   OH229709   3.124   3.553  11.409  0.3338 -0.0395  0.2967
 2765TIP3    H129710   3.094   3.575  11.321  0.4647  2.1259  0.7379
 2765TIP3    H229711   3.095   3.463  11.422 -1.8779  0.4004 -1.0338
 2766TIP3   OH229712   5.886   0.391  16.525  0.1773 -0.0450  0.0222
 2766TIP3    H129713   5.798   0.414  16.495 -0.1139  1.2817  1.7389
 2766TIP3    H229714   5.877   0.302  16.558 -0.6451  0.2190  0.5509
 2767TIP3   OH229715   6.198   5.620   0.717  0.5855  0.9393 -0.2426
 2767TIP3    H129716   6.162   5.607   0.630  0.8362  0.5640 -0.2897
 2767TIP3    H229717   6.132   5.671   0.763  0.4494  1.1307 -0.6489
 2768TIP3   OH229718   1.228   0.436  11.122  0.7278 -0.4785 -0.3653
 2768TIP3    H129719   1.270   0.374  11.062  2.0175  0.2702 -0.2696
 2768TIP3    H229720   1.271   0.520  11.104 -2.3465  0.9317 -1.9272
 2769TIP3   OH229721   2.024   0.577   1.664 -0.1687  0.2647  0.3374
 2769TIP3    H129722   2.098   0.578   1.724  0.8843  0.8735 -0.9293
 2769TIP3    H229723   2.052   0.631   1.590 -0.7842 -1.6993 -1.4306
 2770TIP3   OH229724   1.751   3.691   0.175  0.1434  0.0309  0.2700
 2770TIP3    H129725   1.659   3.666   0.184  0.5369 -1.1352  1.3819
 2770TIP3    H229726   1.755   3.742   0.094 -1.7009  1.2432  0.8909
 2771TIP3   OH229727   6.390   4.499  15.441  0.1184  0.0015  0.2960
 2771TIP3    H129728   6.425   4.556  15.510 -1.1695  0.1865  0.8214
 2771TIP3    H229729   6.366   4.558  15.370 -0.5488  0.0542  0.5568
 2772TIP3   OH229730   2.182   1.614  16.362 -0.5953 -0.4098  0.0615
 2772TIP3    H129731   2.275   1.626  16.383 -0.6894  0.9141 -0.1560
 2772TIP3    H229732   2.176   1.524  16.330  1.0618  0.1331 -2.0473
 2773TIP3   OH229733   2.441   1.310   4.534  0.8533  0.3358  0.6285
 2773TIP3    H129734   2.401   1.395   4.550  1.0981  0.5864 -0.0622
 2773TIP3    H229735   2.413   1.256   4.608  0.6830  1.0078  1.0634
 2774TIP3   OH229736   1.180   4.416  14.271 -0.0658  0.1320 -0.3213
 2774TIP3    H129737   1.262   4.414  14.320 -0.0455  0.7282 -0.3294
 2774TIP3    H229738   1.161   4.509  14.259 -1.5724  0.0528  1.0940
 2775TIP3   OH229739   0.784   3.936   3.960 -0.7109 -0.0462  0.3645
 2775TIP3    H129740   0.770   3.887   3.880 -1.0139  0.1370  0.3035
 2775TIP3    H229741   0.846   3.884   4.010  0.3322  0.3691 -0.4574
 2776TIP3   OH229742   2.036   3.569   6.359 -0.2854 -0.3306  0.2746
 2776TIP3    H129743   2.023   3.533   6.447 -0.7661 -1.6580 -0.3117
 2776TIP3    H229744   1.965   3.531   6.307  0.1035  0.2903 -0.7397
 2777TIP3   OH229745   4.453   2.669  14.864 -0.0983 -0.1174 -0.3648
 2777TIP3    H129746   4.540   2.630  14.852  0.6675  1.3525  0.1871
 2777TIP3    H229747   4.443   2.676  14.959 -0.1028  1.2120 -0.4456
 2778TIP3   OH229748   6.443   4.909  11.949 -0.1474 -0.3913 -0.3799
 2778TIP3    H129749   6.407   4.901  12.037 -2.3525  5.9875 -0.1601
 2778TIP3    H229750   6.527   4.953  11.960 -0.0791 -0.2312 -1.3900
 2779TIP3   OH229751   0.500   1.322   1.508  0.7334 -0.5112  0.3192
 2779TIP3    H129752   0.451   1.344   1.587  2.0641 -0.1805  1.0853
 2779TIP3    H229753   0.434   1.288   1.447 -0.6602  1.2778  0.7686
 2780TIP3   OH229754   6.574   4.973  15.797  0.3835 -0.1694 -0.1251
 2780TIP3    H129755   6.644   4.936  15.742 -1.1954 -2.1681 -0.9327
 2780TIP3    H229756   6.571   5.065  15.773  1.8792 -0.3209 -1.0234
 2781TIP3   OH229757   0.418   4.912   0.215  0.3001 -0.8050  0.6669
 2781TIP3    H129758   0.465   4.846   0.164  1.5583  0.2754  0.3755
 2781TIP3    H229759   0.329   4.877   0.223  0.8776 -2.4330  0.3669
 2782TIP3   OH229760   0.941   4.478   5.517  0.4108 -0.3629 -0.0944
 2782TIP3    H129761   1.035   4.484   5.502  0.6124 -1.4305  0.6529
 2782TIP3    H229762   0.907   4.429   5.442  0.3712  0.4098 -0.5924
 2783TIP3   OH229763   0.504   6.512   6.033 -0.4131 -0.0535  0.1772
 2783TIP3    H129764   0.447   6.582   6.063  1.3958  1.2874  0.7001
 2783TIP3    H229765   0.588   6.529   6.077  0.3003 -2.1443 -0.2388
 2784TIP3   OH229766   3.338   0.051   3.055  0.1308  0.3550 -0.3397
 2784TIP3    H129767   3.275  -0.016   3.031  0.2360 -0.6577  1.9916
 2784TIP3    H229768   3.315   0.126   3.000 -0.1472 -1.4246 -2.8445
 2785TIP3   OH229769   2.310   1.480   3.462 -0.3947 -0.0210 -0.3721
 2785TIP3    H129770   2.323   1.441   3.376  2.1786 -0.5655  0.1748
 2785TIP3    H229771   2.221   1.456   3.486 -0.0128 -2.8614 -1.4151
 2786TIP3   OH229772   6.106   6.668   3.501 -0.9252  0.2358 -0.7675
 2786TIP3    H129773   6.123   6.759   3.479 -0.9338  0.1437 -1.1620
 2786TIP3    H229774   6.106   6.666   3.597 -0.9175  0.6461 -0.7577
 2787TIP3   OH229775   2.767   5.551  15.307 -0.2630  0.0928 -0.0761
 2787TIP3    H129776   2.859   5.525  15.295 -0.6690 -1.1902 -0.5322
 2787TIP3    H229777   2.729   5.545  15.220 -0.4565  2.0097 -0.1553
 2788TIP3   OH229778   3.908   1.832  16.199  0.0091 -0.0623  0.1713
 2788TIP3    H129779   3.906   1.789  16.285 -0.9339  1.4977  0.9782
 2788TIP3    H229780   3.946   1.767  16.141  0.6324 -1.1861  1.7603
 2789TIP3   OH229781   5.506   1.483   0.971 -0.1960  0.1764 -0.1487
 2789TIP3    H129782   5.499   1.506   1.064  0.1920  0.6492 -0.2294
 2789TIP3    H229783   5.591   1.440   0.964  0.3958  1.3429 -0.5092
 2790TIP3   OH229784   5.551   4.118  11.863 -0.4560  0.0256 -0.1534
 2790TIP3    H129785   5.518   4.179  11.930 -2.6569 -0.2072 -0.9700
 2790TIP3    H229786   5.501   4.139  11.785  1.5547 -0.2230 -1.5761
 2791TIP3   OH229787   2.841   6.708   2.371  0.4339 -0.2322  0.5414
 2791TIP3    H129788   2.863   6.651   2.298 -0.2891 -0.6722  0.6531
 2791TIP3    H229789   2.873   6.662   2.449  0.7205 -0.0196  0.5514
 2792TIP3   OH229790   2.313   3.348   4.654  0.6284  0.5216 -0.0096
 2792TIP3    H129791   2.388   3.303   4.614 -0.3786 -0.1840 -1.1609
 2792TIP3    H229792   2.326   3.337   4.748  0.3625 -2.3245 -0.2231
 2793TIP3   OH229793   2.694   3.547  17.159  0.0013 -0.0354  0.2495
 2793TIP3    H129794   2.687   3.601  17.080 -1.3687  1.3598  1.2703
 2793TIP3    H229795   2.654   3.463  17.134  0.3326  0.0883 -0.7580
 2794TIP3   OH229796   6.009   6.651  13.912  0.0156  0.4826  0.2182
 2794TIP3    H129797   5.924   6.690  13.933  0.0573  0.2372  0.8460
 2794TIP3    H229798   5.994   6.609  13.827 -0.7594 -0.3107  0.7166
 2795TIP3   OH229799   6.466   3.894  15.220  0.4820  0.4245 -0.3197
 2795TIP3    H129800   6.419   3.908  15.138 -0.7433 -1.1732  0.0677
 2795TIP3    H229801   6.433   3.961  15.279 -1.0206 -0.3857 -0.1993
 2796TIP3   OH229802   0.608   1.039  16.730  0.6530  0.3428 -0.3863
 2796TIP3    H129803   0.688   1.035  16.677  0.1724 -1.5480 -1.0212
 2796TIP3    H229804   0.640   1.046  16.820  1.5370 -0.4091 -0.6261
 2797TIP3   OH229805   5.605   0.634   3.585 -0.3484  1.1202 -0.2864
 2797TIP3    H129806   5.609   0.581   3.505 -0.8247 -1.3672  1.2102
 2797TIP3    H229807   5.514   0.626   3.615 -0.1857  2.0179  0.4890
 2798TIP3   OH229808   1.403   6.346   0.321 -0.5475 -1.2559  0.2606
 2798TIP3    H129809   1.403   6.326   0.228 -0.2973 -0.7330  0.1431
 2798TIP3    H229810   1.496   6.356   0.343 -0.5890 -1.6343  0.6251
 2799TIP3   OH229811   3.928   1.080  16.993  0.2053 -0.3541 -0.5089
 2799TIP3    H129812   3.997   1.039  17.046  0.5218  0.9342  0.1202
 2799TIP3    H229813   3.975   1.127  16.924  0.0741  1.4681  0.5780
 2800TIP3   OH229814   6.017   2.724  17.310 -0.0195  0.1915  0.5561
 2800TIP3    H129815   6.037   2.651  17.368 -2.5836 -1.0101  0.0863
 2800TIP3    H229816   5.942   2.768  17.351 -1.0152  0.1323 -1.0637
 2801TIP3   OH229817   4.298   1.846  13.856  0.1498 -0.2658 -0.2472
 2801TIP3    H129818   4.342   1.926  13.885 -0.7836  0.7638 -1.5455
 2801TIP3    H229819   4.313   1.783  13.927  2.7773  0.3368 -0.1595
 2802TIP3   OH229820   6.477   6.226   5.675  0.3139  0.0600  0.2249
 2802TIP3    H129821   6.503   6.244   5.765  1.8340 -1.1797  0.0622
 2802TIP3    H229822   6.498   6.133   5.661 -0.9032 -0.0607 -1.0748
 2803TIP3   OH229823   5.819   1.389  14.656  0.3656 -0.3183  0.1092
 2803TIP3    H129824   5.817   1.459  14.591 -1.4793  0.2603  0.7298
 2803TIP3    H229825   5.909   1.357  14.654  0.7018  0.6186 -1.7143
 2804TIP3   OH229826   4.885   4.575   2.005 -0.0642 -0.0053  0.2772
 2804TIP3    H129827   4.904   4.482   2.001 -0.7522 -0.2217  1.6816
 2804TIP3    H229828   4.963   4.617   1.969  0.4899 -1.0851  0.1877
 2805TIP3   OH229829   2.384   3.304  14.293 -0.1063 -0.4123 -0.1125
 2805TIP3    H129830   2.450   3.336  14.231  0.0165 -0.6903 -0.1259
 2805TIP3    H229831   2.421   3.323  14.379  1.7468 -3.8772  0.0125
 2806TIP3   OH229832   1.506   3.961   3.976  0.3947  0.0724  0.2399
 2806TIP3    H129833   1.479   3.870   3.963  2.1589 -0.5106  0.3606
 2806TIP3    H229834   1.601   3.959   3.966  0.3483  2.1912 -1.4330
 2807TIP3   OH229835   1.328   4.462   6.192  0.4837 -0.1161 -0.4297
 2807TIP3    H129836   1.309   4.553   6.214  0.9037 -0.1960  0.3174
 2807TIP3    H229837   1.404   4.440   6.246 -0.0755 -1.1427 -0.0224
 2808TIP3   OH229838   2.748   2.796   2.942 -0.0424 -0.2330  0.4653
 2808TIP3    H129839   2.748   2.737   3.017  1.1841 -0.1829  0.5166
 2808TIP3    H229840   2.762   2.739   2.866 -0.6009 -0.1998  0.3279
 2809TIP3   OH229841   2.759   0.206   5.920 -0.0266  0.1582  0.1499
 2809TIP3    H129842   2.782   0.225   5.829 -0.2659  1.7874  0.4144
 2809TIP3    H229843   2.839   0.169   5.957  0.5762  0.9779 -0.3048
 2810TIP3   OH229844   2.724   4.375  13.840 -0.3398 -0.6004 -0.3591
 2810TIP3    H129845   2.795   4.419  13.886  1.5141 -2.3701 -1.3208
 2810TIP3    H229846   2.721   4.417  13.754  2.0062 -2.6824 -1.5925
 2811TIP3   OH229847   0.607   0.294   3.404  0.0053  0.0690  0.4855
 2811TIP3    H129848   0.547   0.368   3.416 -0.6649 -0.2081 -0.8747
 2811TIP3    H229849   0.665   0.297   3.480 -1.0140  1.0352  1.2656
 2812TIP3   OH229850   4.918   2.305   3.487 -0.7741 -0.4845 -0.0326
 2812TIP3    H129851   4.918   2.353   3.570 -2.3971  0.5034 -0.5556
 2812TIP3    H229852   4.848   2.240   3.497 -0.7094 -0.6241 -0.4747
 2813TIP3   OH229853   3.754   4.425  11.701  0.3826  0.6149  0.3648
 2813TIP3    H129854   3.787   4.340  11.731 -0.1727 -0.3373 -1.5362
 2813TIP3    H229855   3.831   4.481  11.698  0.9178 -0.0701  0.8639
 2814TIP3   OH229856   5.533   5.246  14.613 -0.0935  0.2331 -0.1470
 2814TIP3    H129857   5.493   5.324  14.652 -1.7204 -1.2521  1.3203
 2814TIP3    H229858   5.539   5.184  14.685  2.1784 -0.6808 -1.0333
 2815TIP3   OH229859   5.923   4.082   2.067 -0.2010 -0.3322 -0.5443
 2815TIP3    H129860   5.921   3.995   2.108  1.4254 -0.0999  0.0884
 2815TIP3    H229861   5.879   4.139   2.130  1.2225 -0.2015  0.3646
 2816TIP3   OH229862   2.307   2.661   4.920 -0.0808 -0.2941 -0.0682
 2816TIP3    H129863   2.335   2.594   4.981  1.0535  0.8592  0.7221
 2816TIP3    H229864   2.268   2.729   4.975  1.5104  1.0446 -0.5080
 2817TIP3   OH229865   4.811   1.147   4.833 -0.3077  0.5159  0.4064
 2817TIP3    H129866   4.856   1.070   4.866 -0.3550 -0.1749 -1.1059
 2817TIP3    H229867   4.816   1.140   4.738 -0.3776  2.3397  0.2329
 2818TIP3   OH229868   2.470   5.252   6.206  0.5823 -0.1958 -0.2841
 2818TIP3    H129869   2.474   5.274   6.299  0.1786 -2.5242  0.3561
 2818TIP3    H229870   2.395   5.301   6.172  1.4278  1.5939  0.2883
 2819TIP3   OH229871   1.013   2.851   5.768  0.0345  0.5196  0.4924
 2819TIP3    H129872   1.011   2.946   5.759 -0.8015  0.4357 -0.4465
 2819TIP3    H229873   1.080   2.822   5.706  2.0924  0.6212  2.5445
 2820TIP3   OH229874   4.606   0.880   1.359 -0.5737 -0.3126 -0.0624
 2820TIP3    H129875   4.700   0.891   1.372 -0.7483  0.1305  0.9222
 2820TIP3    H229876   4.599   0.814   1.290  0.4599 -1.5690  0.9773
 2821TIP3   OH229877   0.266   4.097  11.648 -0.2882 -0.2757  0.4563
 2821TIP3    H129878   0.208   4.057  11.583 -1.2453 -0.6990  1.5433
 2821TIP3    H229879   0.343   4.040  11.651  0.4394  0.5140 -1.2914
 2822TIP3   OH229880   6.537   4.486   5.487  0.8616 -0.4147  0.0675
 2822TIP3    H129881   6.575   4.552   5.545 -1.5168 -0.0824  1.3803
 2822TIP3    H229882   6.481   4.433   5.544 -2.5354  0.6391 -2.0239
 2823TIP3   OH229883   2.857   4.950  13.630 -0.0887 -0.6433  0.0731
 2823TIP3    H129884   2.889   4.864  13.604 -1.8284 -1.3995  0.3299
 2823TIP3    H229885   2.774   4.960  13.584 -1.7573 -0.7192  2.8397
 2824TIP3   OH229886   5.237   3.059  16.521 -0.0718  0.0970 -0.7383
 2824TIP3    H129887   5.222   2.996  16.451  1.7350 -0.7830 -0.3834
 2824TIP3    H229888   5.296   3.124  16.482 -0.4178  0.5364 -0.5334
 2825TIP3   OH229889   6.088   5.511   2.860  0.2088  0.2839  0.0115
 2825TIP3    H129890   6.033   5.567   2.806 -1.2526  0.9159  2.0470
 2825TIP3    H229891   6.068   5.422   2.832  0.2305  0.6308 -1.1326
 2826TIP3   OH229892   2.965   3.949   0.896  0.7858  0.1157 -0.1949
 2826TIP3    H129893   2.948   3.888   0.825 -0.4752  0.7252 -0.4486
 2826TIP3    H229894   2.901   3.925   0.964  1.8287 -0.3214  0.6631
 2827TIP3   OH229895   0.867   1.417  13.491 -0.2861 -0.3691  0.7130
 2827TIP3    H129896   0.844   1.325  13.483  1.2288 -0.9963  2.7457
 2827TIP3    H229897   0.856   1.437  13.584 -0.1350  1.3926  0.3961
 2828TIP3   OH229898   1.453   5.906   5.231 -0.1468  0.0514 -0.2078
 2828TIP3    H129899   1.430   5.852   5.307 -2.0043  1.5840  0.4052
 2828TIP3    H229900   1.433   5.996   5.259  1.1310  0.8866 -1.8075
 2829TIP3   OH229901   2.414   1.995   2.320 -0.0518 -0.0508  0.3845
 2829TIP3    H129902   2.391   2.054   2.392  0.6541 -2.0147  2.3268
 2829TIP3    H229903   2.407   2.050   2.241 -1.1003  2.1256  1.8859
 2830TIP3   OH229904   5.877   4.016   0.262 -0.1596  0.2860  0.6933
 2830TIP3    H129905   5.839   4.087   0.313  0.3896  0.8506  0.3376
 2830TIP3    H229906   5.971   4.035   0.262 -0.2998  1.5640 -2.3489
 2831TIP3   OH229907   2.284   3.587  16.289  0.4157  0.2986 -0.3505
 2831TIP3    H129908   2.291   3.496  16.260 -0.8296  0.3256 -0.7981
 2831TIP3    H229909   2.373   3.621  16.282  0.7875 -0.6998 -0.7744
 2832TIP3   OH229910   2.190   0.619  11.399 -0.2433  0.1495 -0.0237
 2832TIP3    H129911   2.181   0.526  11.420  1.5776 -0.1930 -0.5623
 2832TIP3    H229912   2.131   0.632  11.325 -0.6301 -0.5317  0.1466
 2833TIP3   OH229913   5.376   4.693   1.973  0.4272  0.6411  0.5303
 2833TIP3    H129914   5.389   4.635   1.898 -1.0920  0.8140  0.0976
 2833TIP3    H229915   5.458   4.689   2.020  1.8507  1.3513 -1.7135
 2834TIP3   OH229916   0.557   2.511  16.502 -0.1784  0.2930 -0.0570
 2834TIP3    H129917   0.500   2.448  16.458  2.1788 -0.4473 -2.3276
 2834TIP3    H229918   0.562   2.585  16.441 -0.4131  1.2963  1.1102
 2835TIP3   OH229919   3.839   4.758  12.567 -0.1441 -0.3616 -0.5950
 2835TIP3    H129920   3.910   4.808  12.526 -0.6260  0.7148 -0.1754
 2835TIP3    H229921   3.882   4.708  12.637  0.6071 -1.8510 -2.0500
 2836TIP3   OH229922   1.515   1.155   3.028  0.2624 -0.0745  0.4258
 2836TIP3    H129923   1.594   1.114   2.994 -0.4533  0.7380 -2.4829
 2836TIP3    H229924   1.546   1.235   3.070  1.0742 -0.3643  0.3915
 2837TIP3   OH229925   1.250   2.911   4.262 -0.3188  0.3240 -0.3319
 2837TIP3    H129926   1.278   2.927   4.352 -2.0051  1.4490  0.0392
 2837TIP3    H229927   1.302   2.972   4.210  1.5539 -1.1804 -0.3208
 2838TIP3   OH229928   2.229   5.035   2.695  0.0608 -0.7886  0.2983
 2838TIP3    H129929   2.155   4.983   2.662 -0.5203  0.1738  0.0547
 2838TIP3    H229930   2.241   5.004   2.785 -2.0416  0.4950  1.0838
 2839TIP3   OH229931   2.170   0.672   3.280 -0.2186 -0.4205 -0.5807
 2839TIP3    H129932   2.193   0.671   3.187  0.6709 -3.6356 -0.4475
 2839TIP3    H229933   2.145   0.582   3.299 -0.7087  0.2256  2.2465
 2840TIP3   OH229934   1.281   1.985  14.070 -0.4507  0.8112  0.2725
 2840TIP3    H129935   1.258   1.956  14.158  1.2125 -1.1725  0.1201
 2840TIP3    H229936   1.338   2.060  14.083 -0.7784  0.9588  0.8597
 2841TIP3   OH229937   4.074   3.926  13.681 -0.5558  0.3512 -0.0362
 2841TIP3    H129938   4.077   3.902  13.773 -0.2010  2.5284  0.5743
 2841TIP3    H229939   3.984   3.954  13.666 -0.1943  1.6764  0.1453
 2842TIP3   OH229940   1.492   1.157  15.675 -0.3884 -0.3557 -0.6264
 2842TIP3    H129941   1.509   1.064  15.658  0.3253 -0.7967  1.9831
 2842TIP3    H229942   1.477   1.161  15.770  0.7487  2.3382 -0.4886
 2843TIP3   OH229943   4.689   6.579   6.373  0.3697 -0.3732 -0.3834
 2843TIP3    H129944   4.730   6.656   6.412  0.5298 -0.2865 -0.7244
 2843TIP3    H229945   4.601   6.577   6.411  0.4909 -0.2323 -0.0929
 2844TIP3   OH229946   2.222   1.118   3.547  0.5239  0.2657  0.6114
 2844TIP3    H129947   2.157   1.140   3.480  0.8643  0.3811  0.3149
 2844TIP3    H229948   2.239   1.024   3.533 -0.0902  0.0687  1.1418
 2845TIP3   OH229949   5.283   3.114  15.130  0.3774  0.0778  0.0590
 2845TIP3    H129950   5.263   3.161  15.211 -0.6844  0.3288 -0.3320
 2845TIP3    H229951   5.201   3.117  15.080 -0.0355 -2.9456  0.3802
 2846TIP3   OH229952   5.324   0.966  14.997  0.1419  0.8489 -0.4694
 2846TIP3    H129953   5.301   1.058  15.011  1.6930  1.0972  0.6784
 2846TIP3    H229954   5.409   0.956  15.040  0.3195 -0.9593 -1.1802
 2847TIP3   OH229955   0.547   5.193  11.473 -0.5976  0.7735 -0.3662
 2847TIP3    H129956   0.584   5.109  11.449 -3.0243 -0.4296 -0.2403
 2847TIP3    H229957   0.558   5.199  11.568  0.4559  1.1038 -0.4914
 2848TIP3   OH229958   1.412   0.368   6.365 -0.0957 -0.1307  0.9646
 2848TIP3    H129959   1.460   0.448   6.342  0.4085 -0.6710  0.1177
 2848TIP3    H229960   1.333   0.400   6.410 -1.3149  1.0210 -1.7454
 2849TIP3   OH229961   1.926   6.181   2.943  0.8787  0.2989  0.5010
 2849TIP3    H129962   2.019   6.198   2.962  0.8202  0.4926  0.6262
 2849TIP3    H229963   1.891   6.147   3.025  1.1228 -0.9935  0.0803
 2850TIP3   OH229964   5.883   3.041  14.056  0.2703  0.8885  0.2335
 2850TIP3    H129965   5.966   3.024  14.100 -0.7415 -2.2634  1.1765
 2850TIP3    H229966   5.830   3.087  14.121  1.0460  2.4543 -0.1981
 2851TIP3   OH229967   6.466   6.694   4.331 -0.1688  0.1425  0.7653
 2851TIP3    H129968   6.476   6.686   4.426  0.3524  1.9381  0.9051
 2851TIP3    H229969   6.465   6.788   4.315 -0.4482 -0.1264 -1.0045
 2852TIP3   OH229970   5.425   1.890  16.971 -0.3362 -0.2366 -0.3345
 2852TIP3    H129971   5.372   1.944  17.030 -0.3817  0.4509 -0.9841
 2852TIP3    H229972   5.504   1.943  16.955  0.9840 -1.5863  1.2923
 2853TIP3   OH229973   5.194   5.018   5.872 -0.5557 -0.2407 -0.4831
 2853TIP3    H129974   5.216   4.939   5.922 -0.9301  0.3813  0.7140
 2853TIP3    H229975   5.098   5.021   5.874 -0.5309  0.4876 -0.1132
 2854TIP3   OH229976   1.835   6.319   4.809 -0.0332  0.0449  0.2182
 2854TIP3    H129977   1.822   6.333   4.903 -0.8598  1.2390 -0.0563
 2854TIP3    H229978   1.749   6.295   4.775  0.6446 -2.5544  0.0618
 2855TIP3   OH229979   6.307   5.365  12.721 -0.2744  0.4587  0.2133
 2855TIP3    H129980   6.315   5.272  12.742  2.1582  0.5483  0.0434
 2855TIP3    H229981   6.244   5.399  12.784 -1.0929 -1.2668  0.3798
 2856TIP3   OH229982   1.656   2.199   0.035 -0.3903  0.4840 -0.4464
 2856TIP3    H129983   1.665   2.231   0.125  1.3851 -0.5336 -0.2231
 2856TIP3    H229984   1.604   2.267  -0.009 -1.8101  0.7223  1.4616
 2857TIP3   OH229985   4.698   5.312  14.182 -0.0893 -0.3274  0.3540
 2857TIP3    H129986   4.641   5.353  14.117  0.3022  2.1642  1.4606
 2857TIP3    H229987   4.663   5.341  14.267  0.3515 -2.1951  1.2323
 2858TIP3   OH229988   4.682   1.196   2.946  0.0415 -0.0367  0.3230
 2858TIP3    H129989   4.767   1.236   2.962 -0.0182  0.5692 -0.7828
 2858TIP3    H229990   4.644   1.248   2.876 -1.2227 -0.3365  0.7542
 2859TIP3   OH229991   5.317   5.219   0.051  0.2725 -0.8218 -0.7017
 2859TIP3    H129992   5.299   5.232   0.144  0.2743  1.0040 -0.9150
 2859TIP3    H229993   5.392   5.161   0.048  0.7077 -0.3414  0.4717
 2860TIP3   OH229994   1.909   6.442   6.232 -0.4782 -0.3605 -0.6207
 2860TIP3    H129995   1.885   6.490   6.153 -2.8527  0.0725  0.2500
 2860TIP3    H229996   1.858   6.361   6.227  0.0120 -0.7221  0.0658
 2861TIP3   OH229997   4.317   4.943   0.276 -0.3370 -0.7537 -0.1192
 2861TIP3    H129998   4.411   4.929   0.261  0.4527  0.9290  2.5805
 2861TIP3    H229999   4.295   5.016   0.218  0.0891 -0.9471 -0.5384
 2862TIP3   OH230000   3.468   6.296   4.499  0.0386 -0.1581 -0.1649
 2862TIP3    H130001   3.458   6.341   4.583  0.3361  1.9725 -1.1983
 2862TIP3    H230002   3.408   6.342   4.440  0.5829 -0.9411 -1.3783
 2863TIP3   OH230003   3.903   4.293  15.848  0.2128  0.5433  0.5168
 2863TIP3    H130004   3.921   4.374  15.896 -1.3160  0.8986  0.5442
 2863TIP3    H230005   3.880   4.322  15.760  0.0003  0.1151  0.4280
 2864TIP3   OH230006   4.567   2.833   2.679  0.1834  0.6038  0.4005
 2864TIP3    H130007   4.590   2.898   2.746  0.3166  0.0378  0.9149
 2864TIP3    H230008   4.584   2.748   2.721  0.0608  0.2355 -0.2773
 2865TIP3   OH230009   2.224   0.169  17.049 -0.6119 -0.1354 -0.4231
 2865TIP3    H130010   2.220   0.265  17.055  1.6910 -0.0301  0.9493
 2865TIP3    H230011   2.152   0.139  17.104 -0.7548  0.8459 -0.0481
 2866TIP3   OH230012   4.097   0.830  16.294 -0.6169 -0.5733 -0.0666
 2866TIP3    H130013   4.120   0.882  16.216  0.7049  1.2988  1.4478
 2866TIP3    H230014   4.149   0.750  16.286  1.5844  0.7381  0.0635
 2867TIP3   OH230015   1.964   1.907  13.252  0.7821 -0.0454  0.2284
 2867TIP3    H130016   2.040   1.965  13.259  0.8823  0.1353 -1.8078
 2867TIP3    H230017   1.992   1.838  13.192 -0.5976 -0.0691 -0.4342
 2868TIP3   OH230018   6.546   6.256   0.413 -0.4430  0.1149  0.3447
 2868TIP3    H130019   6.501   6.316   0.354 -0.0140  0.4680  0.3660
 2868TIP3    H230020   6.584   6.190   0.355 -1.8475 -0.7835  0.4074
 2869TIP3   OH230021   1.159   3.953   5.431  0.7421 -0.0627 -0.5389
 2869TIP3    H130022   1.151   4.031   5.486 -0.9597 -0.6315  0.0832
 2869TIP3    H230023   1.150   3.985   5.341  0.7407  0.5490 -0.3202
 2870TIP3   OH230024   5.428   6.559   1.264 -0.0341  0.1485 -0.8199
 2870TIP3    H130025   5.450   6.577   1.355 -0.6128  0.4991 -0.7426
 2870TIP3    H230026   5.375   6.479   1.268  1.0243 -0.5767 -0.9839
 2871TIP3   OH230027   2.515   4.256   2.720 -0.0387  0.2603 -0.2644
 2871TIP3    H130028   2.420   4.245   2.719 -0.4600  3.0880 -0.6409
 2871TIP3    H230029   2.536   4.290   2.633  1.1484  0.6911  0.1657
 2872TIP3   OH230030   2.028   3.034   4.215 -0.1160 -0.2526  0.2933
 2872TIP3    H130031   1.990   3.083   4.288  0.8240  2.3009 -0.8197
 2872TIP3    H230032   2.122   3.028   4.236 -0.0516 -0.6605 -0.0888
 2873TIP3   OH230033   0.085   6.574  11.242 -0.0981 -0.2775 -0.6517
 2873TIP3    H130034   0.170   6.567  11.200  0.5749 -2.1107  0.8413
 2873TIP3    H230035   0.104   6.570  11.336 -1.8142 -0.7249 -0.2775
 2874TIP3   OH230036   2.044   5.740   3.339 -0.2893  0.0757  0.1082
 2874TIP3    H130037   2.009   5.657   3.308 -0.8443  0.2379  0.2943
 2874TIP3    H230038   2.139   5.730   3.333 -0.3549  0.1412 -1.8135
 2875TIP3   OH230039   3.169   3.980   0.621  0.3954  0.1722 -0.4951
 2875TIP3    H130040   3.210   3.966   0.536 -0.7154  0.7002 -1.1317
 2875TIP3    H230041   3.206   4.063   0.652 -1.9224  1.9629 -2.1883
 2876TIP3   OH230042   4.047   1.889   5.061  0.4769 -0.2356  0.1119
 2876TIP3    H130043   3.993   1.885   4.982 -0.3624  1.2316  0.5619
 2876TIP3    H230044   4.071   1.798   5.079 -0.9614 -0.8117 -0.7249
 2877TIP3   OH230045   1.914   2.353  10.914 -0.2714 -0.3440  0.4837
 2877TIP3    H130046   1.930   2.401  10.832  0.0337  2.9406  2.3049
 2877TIP3    H230047   1.843   2.292  10.893 -0.8188  1.0305 -1.9836
 2878TIP3   OH230048   2.187   4.948  12.154 -0.0821  0.9826 -0.2620
 2878TIP3    H130049   2.098   4.919  12.135  0.2698 -1.2466  1.1155
 2878TIP3    H230050   2.241   4.870  12.139  1.6366  2.2168 -0.8489
 2879TIP3   OH230051   0.027   4.615  15.440  0.2238  0.0801  0.0671
 2879TIP3    H130052   0.120   4.634  15.429  0.5538 -1.7046 -0.6963
 2879TIP3    H230053   0.020   4.521  15.423 -1.7586  0.2082 -0.0638
 2880TIP3   OH230054   3.763   3.252   0.685  0.0782  0.1556  0.3037
 2880TIP3    H130055   3.807   3.230   0.767  0.1799 -2.5125 -0.3988
 2880TIP3    H230056   3.831   3.246   0.618 -0.3833  0.5498 -0.2139
 2881TIP3   OH230057   6.532   1.868   2.724 -0.1193 -0.3044  0.3316
 2881TIP3    H130058   6.546   1.893   2.815  0.6457  0.2808  0.0683
 2881TIP3    H230059   6.489   1.944   2.684  0.1194 -0.3070  0.0616
 2882TIP3   OH230060   0.371   0.773  10.157 -0.7000 -0.1845 -0.3522
 2882TIP3    H130061   0.353   0.701  10.217 -1.2862 -0.9178 -1.3693
 2882TIP3    H230062   0.331   0.745  10.074 -1.4057  1.5350 -0.6318
 2883TIP3   OH230063   4.481   0.701  14.005  0.5919 -0.4587 -0.4601
 2883TIP3    H130064   4.561   0.753  14.003  0.1074  0.2835 -0.8468
 2883TIP3    H230065   4.504   0.620  13.959  1.5234 -0.8596  0.6659
 2884TIP3   OH230066   1.538   6.002   4.496  0.1361  0.2496 -0.3166
 2884TIP3    H130067   1.578   5.946   4.430 -2.4127  0.3063 -2.0792
 2884TIP3    H230068   1.512   5.942   4.566  0.4889 -0.2370 -0.5969
 2885TIP3   OH230069   1.372   0.688  11.801 -0.4226  0.5496 -0.5175
 2885TIP3    H130070   1.445   0.668  11.742  0.8517  0.4579  1.0279
 2885TIP3    H230071   1.304   0.723  11.744 -0.9982 -3.6094 -2.7505
 2886TIP3   OH230072   4.114   3.043   2.201  0.1171 -0.1092 -0.0517
 2886TIP3    H130073   4.040   3.080   2.248  0.2150 -0.6243  0.5116
 2886TIP3    H230074   4.094   2.950   2.193 -0.2583  0.0667 -1.6872
 2887TIP3   OH230075   4.367   5.858  13.336  0.3787  0.2815  0.0584
 2887TIP3    H130076   4.314   5.937  13.349  1.4639  0.9955  0.2673
 2887TIP3    H230077   4.438   5.866  13.400  0.7779 -0.6310 -0.2478
 2888TIP3   OH230078   2.949   5.039  15.375 -0.6040 -0.6755  0.5623
 2888TIP3    H130079   3.040   5.042  15.407 -0.0432  1.2849 -1.0109
 2888TIP3    H230080   2.940   5.117  15.321 -2.5904 -1.9359 -1.0869
 2889TIP3   OH230081   5.160   0.787  14.222  0.0558 -0.2199 -0.2907
 2889TIP3    H130082   5.169   0.860  14.161 -1.1240 -0.7086 -1.0854
 2889TIP3    H230083   5.232   0.799  14.284  0.9564  0.5949 -1.4493
 2890TIP3   OH230084   1.215   1.609   3.818 -0.0124  0.4031  0.0293
 2890TIP3    H130085   1.172   1.524   3.828  1.3616 -0.4958 -1.2394
 2890TIP3    H230086   1.143   1.672   3.820 -1.1615 -0.8531  0.1070
 2891TIP3   OH230087   1.188   2.677   3.760  0.0970  0.1739  0.4808
 2891TIP3    H130088   1.136   2.699   3.683  0.2810 -1.3294 -0.1233
 2891TIP3    H230089   1.275   2.657   3.725  0.1532 -0.6367  1.0542
 2892TIP3   OH230090   3.284   2.050  11.917  0.5266 -0.0409  0.2127
 2892TIP3    H130091   3.228   1.973  11.929  0.6397 -0.3398 -1.0224
 2892TIP3    H230092   3.373   2.016  11.926  0.5712 -0.0350 -0.1740
 2893TIP3   OH230093   4.642   5.884  12.538 -0.4490 -0.8223  0.3064
 2893TIP3    H130094   4.622   5.841  12.621  0.8293 -1.7097  0.1913
 2893TIP3    H230095   4.672   5.812  12.481  0.7945  0.0704 -0.2111
 2894TIP3   OH230096   2.350   5.726  12.366 -0.5147 -0.2074 -0.9167
 2894TIP3    H130097   2.317   5.815  12.377 -1.2951 -0.4435 -1.2567
 2894TIP3    H230098   2.291   5.672  12.419 -0.0339 -0.5247 -0.6983
 2895TIP3   OH230099   0.822   1.494   5.826 -0.9159 -0.2078  0.3744
 2895TIP3    H130100   0.799   1.585   5.843 -0.3636  0.3499 -1.6172
 2895TIP3    H230101   0.851   1.461   5.911  1.1032  2.1671  0.7230
 2896TIP3   OH230102   1.520   5.648   6.506  0.2698 -0.1856  0.4610
 2896TIP3    H130103   1.445   5.603   6.467 -0.1166  1.3199 -0.6138
 2896TIP3    H230104   1.570   5.681   6.431  0.5641  1.1255  1.2112
 2897TIP3   OH230105   5.322   2.785   0.598 -0.1110  0.3547 -0.3471
 2897TIP3    H130106   5.404   2.815   0.559 -0.5508  0.1188 -1.5047
 2897TIP3    H230107   5.272   2.866   0.613  1.0616  0.6880  2.1967
 2898TIP3   OH230108   3.733   4.595  15.772  0.0412  0.3413  0.0201
 2898TIP3    H130109   3.712   4.552  15.855 -0.4024 -0.4897 -0.5097
 2898TIP3    H230110   3.781   4.674  15.797 -0.0093  0.0525  1.0603
 2899TIP3   OH230111   0.782   2.581  15.625 -0.3104 -0.0968 -0.0946
 2899TIP3    H130112   0.803   2.502  15.574 -2.4500 -1.0348  0.4026
 2899TIP3    H230113   0.741   2.548  15.704 -0.6006  1.5158  0.4501
 2900TIP3   OH230114   6.520   4.830  17.025 -0.5052  0.4820 -0.5699
 2900TIP3    H130115   6.544   4.820  16.932 -0.0695  0.0353 -0.4171
 2900TIP3    H230116   6.475   4.748  17.046  0.5395  0.0195 -0.0548
 2901TIP3   OH230117   1.048   4.153  13.932  0.2257 -0.3117 -0.5826
 2901TIP3    H130118   1.076   4.174  14.021 -0.5438 -1.1708 -0.1215
 2901TIP3    H230119   0.978   4.216  13.913  0.9076  0.3646 -0.8757
 2902TIP3   OH230120   1.208   6.510  16.996 -0.0428  0.3007  0.5237
 2902TIP3    H130121   1.222   6.507  16.901  0.1705 -0.1474  0.5643
 2902TIP3    H230122   1.295   6.525  17.033  0.0592 -0.6094  0.6892
 2903TIP3   OH230123   4.226   1.847   0.313  0.1191  0.1587 -0.2379
 2903TIP3    H130124   4.230   1.801   0.229  2.6186  1.9753 -1.2456
 2903TIP3    H230125   4.191   1.934   0.291 -0.7121  0.1353  0.9123
 2904TIP3   OH230126   2.149   5.495   0.007 -0.2626 -0.4042 -0.2298
 2904TIP3    H130127   2.128   5.467   0.096 -1.2265 -1.0021 -0.6370
 2904TIP3    H230128   2.244   5.483  -0.000 -0.3393 -1.4074  0.3527
 2905TIP3   OH230129   1.121   3.129  12.353  0.3812 -0.3087 -0.1335
 2905TIP3    H130130   1.038   3.083  12.345 -0.4289  0.7776  1.5108
 2905TIP3    H230131   1.098   3.221  12.345  1.5341 -0.0251 -0.3400
 2906TIP3   OH230132   2.303   0.821   3.523 -0.2306 -0.3717 -0.1596
 2906TIP3    H130133   2.264   0.755   3.465  1.1276 -2.5233  1.2100
 2906TIP3    H230134   2.381   0.850   3.476 -0.2715 -0.5411 -0.3363
 2907TIP3   OH230135   0.605   3.666   2.954 -0.5920 -0.5010  0.1259
 2907TIP3    H130136   0.632   3.740   2.900 -1.0339 -0.2582  0.2347
 2907TIP3    H230137   0.603   3.592   2.894 -2.2868  0.0043 -0.4762
 2908TIP3   OH230138   2.735   1.671   4.009  0.3299  0.3050  0.0427
 2908TIP3    H130139   2.827   1.691   3.996  0.2385  0.4691 -0.3690
 2908TIP3    H230140   2.715   1.704   4.096  0.5404  0.7208 -0.0619
 2909TIP3   OH230141   0.644   3.638   5.052 -0.1596  0.3945 -0.0976
 2909TIP3    H130142   0.689   3.664   5.132  0.5177  0.2123 -0.4119
 2909TIP3    H230143   0.593   3.561   5.077  1.3349 -0.6685 -0.2018
 2910TIP3   OH230144   1.782   5.165   6.519  0.4631  0.7338 -0.0977
 2910TIP3    H130145   1.861   5.127   6.559 -0.6251 -1.8578 -0.2396
 2910TIP3    H230146   1.813   5.206   6.438  1.4590 -2.0101 -1.2137
 2911TIP3   OH230147   2.350   2.000   0.419 -0.5026 -0.2460  0.0159
 2911TIP3    H130148   2.368   2.088   0.386  1.1558 -0.8233 -0.7282
 2911TIP3    H230149   2.396   1.942   0.359 -1.2243 -1.6034  0.7346
 2912TIP3   OH230150   4.963   2.568  14.909  0.0218 -0.4124 -0.4294
 2912TIP3    H130151   5.044   2.582  14.956 -0.5380  0.4658  0.3089
 2912TIP3    H230152   4.958   2.473  14.897 -0.2777 -0.7899  2.1456
 2913TIP3   OH230153   4.347   5.401  10.565 -0.0678  0.0711  0.8879
 2913TIP3    H130154   4.360   5.321  10.617 -0.4585  0.5447  1.7366
 2913TIP3    H230155   4.253   5.405  10.550 -0.0506  0.3800  0.8611
 2914TIP3   OH230156   2.304   0.972   2.542  0.9356  0.6378  0.0138
 2914TIP3    H130157   2.304   1.039   2.611  0.2411 -0.2590  0.9106
 2914TIP3    H230158   2.219   0.930   2.549  1.2672 -0.1847 -0.6964
 2915TIP3   OH230159   0.722   5.129   5.854 -0.3798 -0.0235  0.2160
 2915TIP3    H130160   0.715   5.166   5.941 -1.6137  1.2113 -0.3685
 2915TIP3    H230161   0.729   5.204   5.796  0.6734 -0.8276 -0.7552
 2916TIP3   OH230162   2.406   2.663   2.850 -0.6515 -0.5575 -0.2135
 2916TIP3    H130163   2.356   2.593   2.892 -1.1967 -1.5890 -2.4560
 2916TIP3    H230164   2.424   2.725   2.921 -3.8222 -0.8606  1.0127
 2917TIP3   OH230165   5.919   0.354  14.165  0.2764 -0.8479  0.1015
 2917TIP3    H130166   5.834   0.317  14.188  0.9973 -2.3290  0.5169
 2917TIP3    H230167   5.908   0.448  14.176 -1.1600 -1.0554  0.6525
 2918TIP3   OH230168   4.626   6.142   5.995  0.0899  0.3191 -0.0352
 2918TIP3    H130169   4.534   6.155   5.972  0.1699  1.2683  0.1707
 2918TIP3    H230170   4.638   6.047   5.992 -0.9553  0.1712  0.1636
 2919TIP3   OH230171   3.434   3.571   6.181  0.1921  0.1092  0.3512
 2919TIP3    H130172   3.411   3.511   6.252  0.7677  1.0384  1.3644
 2919TIP3    H230173   3.522   3.602   6.204 -0.8310  2.8357  0.9561
 2920TIP3   OH230174   3.645   2.020   4.135 -0.1100  0.3740 -0.5972
 2920TIP3    H130175   3.644   2.103   4.088  1.0874  1.1943  0.7545
 2920TIP3    H230176   3.606   2.039   4.220  2.3970  0.2156  0.6683
 2921TIP3   OH230177   5.479   0.111  15.595  0.2355 -0.7462  0.2306
 2921TIP3    H130178   5.463   0.041  15.532 -0.0484 -0.5631  0.0976
 2921TIP3    H230179   5.418   0.180  15.570  0.5604 -0.4275  0.3232
 2922TIP3   OH230180   2.750   0.766  13.139 -0.4569 -0.2605  0.0633
 2922TIP3    H130181   2.801   0.688  13.118 -1.8162 -0.9086 -0.9582
 2922TIP3    H230182   2.683   0.770  13.071 -1.6508  0.6706  1.2407
 2923TIP3   OH230183   1.705   6.032   4.214 -0.1896 -0.4686 -0.7275
 2923TIP3    H130184   1.759   6.090   4.160 -0.8499  1.4108  0.5200
 2923TIP3    H230185   1.637   6.000   4.155 -0.9454  1.6082 -1.0929
 2924TIP3   OH230186   1.322   6.461   2.925 -0.3694  0.1067  0.3497
 2924TIP3    H130187   1.342   6.381   2.974  0.5495  1.0585  1.5915
 2924TIP3    H230188   1.251   6.502   2.974 -0.9720 -0.0295 -0.3927
 2925TIP3   OH230189   0.993   5.726  15.203  0.0652  0.6510  0.1760
 2925TIP3    H130190   1.025   5.770  15.282 -1.6696  2.0903  0.1332
 2925TIP3    H230191   0.922   5.669  15.234  0.7350 -0.3738 -0.1061
 2926TIP3   OH230192   5.295   5.513   4.420 -0.2587  0.1802  0.0464
 2926TIP3    H130193   5.336   5.431   4.393  0.9847  0.3827  1.1970
 2926TIP3    H230194   5.213   5.517   4.370 -0.3570 -1.7532 -0.0174
 2927TIP3   OH230195   0.655   1.912  11.288  0.0876 -0.1192 -0.2345
 2927TIP3    H130196   0.577   1.940  11.334 -1.4350  0.0479 -2.7317
 2927TIP3    H230197   0.623   1.875  11.206  2.5886 -0.7695 -1.0286
 2928TIP3   OH230198   0.998   6.057  13.719  0.2149  0.0336  0.3659
 2928TIP3    H130199   1.046   6.035  13.799  0.2741 -0.2415  0.2555
 2928TIP3    H230200   1.065   6.091  13.660  0.5240 -1.6166 -0.2746
 2929TIP3   OH230201   6.468   6.671  12.838  0.1861 -0.4972  0.1542
 2929TIP3    H130202   6.480   6.672  12.743 -0.9805 -1.1493 -0.0123
 2929TIP3    H230203   6.386   6.624  12.852 -1.2935  2.1638  1.3023
 2930TIP3   OH230204   6.254   5.110   1.523  0.3803 -0.0698 -0.4741
 2930TIP3    H130205   6.192   5.055   1.570 -0.4665 -0.0839 -1.5668
 2930TIP3    H230206   6.280   5.177   1.587 -1.0572  0.1646 -0.0912
 2931TIP3   OH230207   4.385   3.750  15.572 -0.1250 -0.1403  0.0260
 2931TIP3    H130208   4.367   3.703  15.653 -0.6593  0.6983  0.4075
 2931TIP3    H230209   4.370   3.686  15.503 -1.3316 -0.4030  0.5089
 2932TIP3   OH230210   2.635   2.390  13.716 -0.2743  0.7770  0.3302
 2932TIP3    H130211   2.642   2.486  13.717  2.2299  0.6537  1.1992
 2932TIP3    H230212   2.646   2.366  13.624  1.4782  1.2727  0.3652
 2933TIP3   OH230213   3.240   6.503   5.174  0.3576  0.2441  0.4716
 2933TIP3    H130214   3.182   6.532   5.245  0.1591 -0.3951  0.5813
 2933TIP3    H230215   3.180   6.464   5.109  0.7480 -1.7512  1.2328
 2934TIP3   OH230216   6.359   2.477   6.164 -0.3749 -0.2548 -0.6975
 2934TIP3    H130217   6.289   2.529   6.206  1.3279  1.5026  0.1385
 2934TIP3    H230218   6.370   2.518   6.078  0.1925  0.0412 -0.4872
 2935TIP3   OH230219   1.966   0.410   5.811  0.3076 -0.1587  0.4055
 2935TIP3    H130220   2.003   0.441   5.729  0.6026  1.5648  1.1437
 2935TIP3    H230221   1.994   0.475   5.876 -1.1186 -0.6905  1.6120
 2936TIP3   OH230222   1.454   6.213   3.017  0.2205 -0.0640  0.0253
 2936TIP3    H130223   1.534   6.238   2.970 -0.4474  1.3610 -0.4183
 2936TIP3    H230224   1.404   6.163   2.953 -1.3070  3.0305 -1.3983
 2937TIP3   OH230225   0.646   3.615  11.769 -0.3379  0.0029  0.0204
 2937TIP3    H130226   0.722   3.557  11.769  0.9544  1.5542 -1.5810
 2937TIP3    H230227   0.603   3.599  11.853  0.2770 -2.7763 -0.0935
 2938TIP3   OH230228   1.652   1.856  11.427  0.0078  0.2977 -0.2802
 2938TIP3    H130229   1.573   1.909  11.436  0.9823  1.9096 -0.7611
 2938TIP3    H230230   1.690   1.883  11.343  1.2410 -0.1887  0.0915
 2939TIP3   OH230231   1.007   0.088  14.004 -0.3583 -0.0991 -0.4443
 2939TIP3    H130232   1.040   0.108  14.092  0.0009 -1.3771 -0.2752
 2939TIP3    H230233   1.059   0.015  13.974 -2.0099 -1.1969 -0.7824
 2940TIP3   OH230234   1.609   2.356  13.944 -0.2680 -0.5756  0.1603
 2940TIP3    H130235   1.560   2.366  13.862 -0.1719 -0.9592  0.0566
 2940TIP3    H230236   1.700   2.374  13.920 -0.1631 -1.2081  0.0723
 2941TIP3   OH230237   6.455   1.592   2.624  0.4741  0.4644 -0.7554
 2941TIP3    H130238   6.366   1.587   2.658  0.4371  1.0962 -0.7396
 2941TIP3    H230239   6.504   1.637   2.693  0.3818  1.8197 -1.5330
 2942TIP3   OH230240   6.299   4.730  16.697 -0.5859  0.0715  0.1655
 2942TIP3    H130241   6.362   4.673  16.651 -0.9121  0.1737 -0.4165
 2942TIP3    H230242   6.231   4.747  16.633 -0.5270  1.0785  0.3491
 2943TIP3   OH230243   1.461   0.222  12.471  0.3545  0.2006 -0.2197
 2943TIP3    H130244   1.480   0.314  12.452  1.9585  0.2316  1.2944
 2943TIP3    H230245   1.368   0.212  12.450  0.5821  1.6443 -2.2749
 2944TIP3   OH230246   5.804   1.229  15.797 -0.2407  0.0938 -0.7501
 2944TIP3    H130247   5.823   1.248  15.705 -1.8826  1.4034 -0.8594
 2944TIP3    H230248   5.744   1.298  15.824  1.4877  0.7356  1.8226
 2945TIP3   OH230249   1.741   3.995  15.722  0.0655  0.3532  0.0261
 2945TIP3    H130250   1.706   4.059  15.785  0.8440 -1.7220  2.7632
 2945TIP3    H230251   1.835   3.993  15.740  0.2975 -0.3431 -1.1870
 2946TIP3   OH230252   3.436   1.459   2.680  0.2182 -0.1299 -0.0517
 2946TIP3    H130253   3.350   1.434   2.645  0.0495  0.9015 -0.4013
 2946TIP3    H230254   3.474   1.514   2.611  1.4524 -1.1168 -0.1926
 2947TIP3   OH230255   4.842   1.211   4.505 -0.0799 -0.6709  0.2153
 2947TIP3    H130256   4.758   1.245   4.535 -0.6031 -1.0437 -0.7675
 2947TIP3    H230257   4.842   1.119   4.531  1.8121  0.1781  3.8844
 2948TIP3   OH230258   6.620   4.759   2.741  0.0127  0.3728  0.0476
 2948TIP3    H130259   6.527   4.746   2.723  0.2301 -2.3876  0.5263
 2948TIP3    H230260   6.637   4.849   2.712 -2.5832  0.6703 -0.8572
 2949TIP3   OH230261   3.627   6.291   1.058  0.7542  0.2682  0.0653
 2949TIP3    H130262   3.631   6.245   0.974 -1.0906  1.3852 -0.7041
 2949TIP3    H230263   3.649   6.225   1.123 -1.4467 -1.6956 -1.0233
 2950TIP3   OH230264   0.743   3.639   4.110  0.3178  0.2890 -0.6159
 2950TIP3    H130265   0.768   3.562   4.058  0.9959 -0.8049  1.2359
 2950TIP3    H230266   0.814   3.650   4.173  1.3979  3.8661 -2.1837
 2951TIP3   OH230267   1.239   1.617  13.691  0.1148  0.0418  0.2305
 2951TIP3    H130268   1.248   1.666  13.773  0.0035 -0.5744  0.6172
 2951TIP3    H230269   1.267   1.528  13.713  0.6051 -0.0029 -0.5399
 2952TIP3   OH230270   3.345   0.038  13.228 -0.2644  0.1529 -0.6579
 2952TIP3    H130271   3.339  -0.002  13.315 -1.4202 -0.2296 -0.8991
 2952TIP3    H230272   3.438   0.052  13.215 -0.1323  1.4143  1.1956
 2953TIP3   OH230273   2.961   5.876   3.375 -0.2111 -0.0395 -0.1493
 2953TIP3    H130274   3.055   5.871   3.357 -0.2692  0.5487 -0.6192
 2953TIP3    H230275   2.945   5.968   3.391 -0.7688 -0.0996 -0.3605
 2954TIP3   OH230276   6.006   3.194  16.595  0.2304 -0.1192 -0.5767
 2954TIP3    H130277   6.037   3.271  16.546 -1.9313  1.3240  0.1744
 2954TIP3    H230278   5.939   3.155  16.539 -0.1503 -0.2109 -0.0682
 2955TIP3   OH230279   0.712   3.544   3.503  0.2321 -0.1135  0.3330
 2955TIP3    H130280   0.684   3.460   3.538  0.6627  0.1769  1.4465
 2955TIP3    H230281   0.778   3.523   3.437 -0.1084 -0.6644  0.1687
 2956TIP3   OH230282   3.001   6.323   2.388  0.1722  0.1928 -0.0970
 2956TIP3    H130283   2.960   6.402   2.353  0.1840  0.0413 -0.4644
 2956TIP3    H230284   3.076   6.354   2.438  0.3136  0.4008 -0.4359
 2957TIP3   OH230285   6.611   4.659  12.258  0.4852 -0.2434  0.9260
 2957TIP3    H130286   6.593   4.748  12.287  1.1540  0.2117 -0.0043
 2957TIP3    H230287   6.626   4.610  12.338  0.2102  0.5015  1.4411
 2958TIP3   OH230288   3.528   5.561  11.692  0.2146 -0.5676 -0.2494
 2958TIP3    H130289   3.443   5.601  11.707  0.4351  0.4906 -1.6358
 2958TIP3    H230290   3.520   5.473  11.728 -0.7899  0.1797  1.4811
 2959TIP3   OH230291   4.115   2.086  11.351  0.0888 -0.2208 -0.2453
 2959TIP3    H130292   4.172   2.098  11.275  1.0487 -2.7252 -0.0141
 2959TIP3    H230293   4.049   2.024  11.322 -0.9565  0.5859  0.3244
 2960TIP3   OH230294   1.894   1.036   0.324  0.0822  0.3334 -0.3447
 2960TIP3    H130295   1.808   0.996   0.312  0.5121 -0.4471 -0.9112
 2960TIP3    H230296   1.930   0.992   0.401  0.3019  0.0680 -0.5968
 2961TIP3   OH230297   6.191   5.014   4.258  0.1863  0.5824 -0.2732
 2961TIP3    H130298   6.119   5.073   4.279  0.9159  2.0917 -1.7734
 2961TIP3    H230299   6.265   5.072   4.239  1.2016 -0.8521 -0.8902
 2962TIP3   OH230300   3.526   4.196   1.943 -0.8261 -0.6322  0.1836
 2962TIP3    H130301   3.574   4.159   2.017  2.0228  0.5249 -0.9422
 2962TIP3    H230302   3.499   4.283   1.973  0.4701 -0.0970 -0.1166
 2963TIP3   OH230303   4.617   4.909  16.905 -0.3074  0.2333 -0.1539
 2963TIP3    H130304   4.585   4.991  16.942 -0.5650  0.1515 -0.1907
 2963TIP3    H230305   4.557   4.890  16.832  0.3843  0.5615 -0.8232
 2964TIP3   OH230306   2.149   1.863  16.530 -0.1868 -0.1560  0.7904
 2964TIP3    H130307   2.233   1.832  16.496  0.4643  1.4455  0.8810
 2964TIP3    H230308   2.120   1.793  16.589  0.4634 -1.2856 -0.1887
 2965TIP3   OH230309   4.868   3.752   0.303  0.5357  0.0528  0.1683
 2965TIP3    H130310   4.912   3.680   0.347 -0.2070 -0.4198  0.1547
 2965TIP3    H230311   4.775   3.729   0.306  0.2288  1.2911  0.6825
 2966TIP3   OH230312   1.130   1.382  16.684 -0.0600  0.4795 -0.3551
 2966TIP3    H130313   1.089   1.421  16.606  0.4605  1.6542 -0.0406
 2966TIP3    H230314   1.224   1.387  16.667  0.0406  0.2600  0.1281
 2967TIP3   OH230315   1.130   5.359  12.069 -0.0485 -0.1008 -0.5893
 2967TIP3    H130316   1.203   5.304  12.098  0.3700  0.4563 -0.5723
 2967TIP3    H230317   1.092   5.393  12.150 -0.6225 -0.7500 -0.5734
 2968TIP3   OH230318   0.483   1.046  16.035  0.9689  0.1212 -0.0892
 2968TIP3    H130319   0.394   1.066  16.062  0.6219 -2.4711  0.9393
 2968TIP3    H230320   0.520   1.131  16.008 -1.3941  1.4258  0.5509
 2969TIP3   OH230321   3.282   5.081  14.946 -0.5802  0.4327 -0.1382
 2969TIP3    H130322   3.346   5.088  14.876 -0.8554 -0.9050 -0.5578
 2969TIP3    H230323   3.219   5.016  14.914 -0.3667 -0.6872  1.5864
 2970TIP3   OH230324   5.757   6.068  15.798  0.7374 -0.1143 -0.1705
 2970TIP3    H130325   5.686   6.108  15.848 -0.0216  0.6550 -1.7974
 2970TIP3    H230326   5.816   6.032  15.865 -1.1927 -0.8480  1.2220
 2971TIP3   OH230327   2.886   4.504  11.704 -0.1022  0.4398  0.1800
 2971TIP3    H130328   2.803   4.546  11.724 -0.3636 -0.5920  1.3489
 2971TIP3    H230329   2.893   4.432  11.767  1.1053 -0.2378 -0.6808
 2972TIP3   OH230330   6.705   0.877  16.771  0.1101  0.1661  0.0906
 2972TIP3    H130331   6.617   0.841  16.783  0.5754 -1.2589 -0.5266
 2972TIP3    H230332   6.695   0.971  16.786 -1.2251 -0.1604  1.4905
 2973TIP3   OH230333   0.815   6.303  11.645  0.4055 -0.2479 -0.7421
 2973TIP3    H130334   0.759   6.231  11.614 -0.1582  0.5889 -1.7624
 2973TIP3    H230335   0.860   6.333  11.566  0.2025  0.8799 -0.4403
 2974TIP3   OH230336   3.594   3.944   6.370  0.0949 -0.5363  0.1420
 2974TIP3    H130337   3.516   3.890   6.373 -0.9099  0.8233 -0.6061
 2974TIP3    H230338   3.597   3.988   6.455 -1.2160  1.0705 -0.5960
 2975TIP3   OH230339   0.009   4.065   5.071  0.6721  0.2717  0.7030
 2975TIP3    H130340   0.041   3.976   5.089  1.8252  0.4424 -0.3356
 2975TIP3    H230341  -0.060   4.079   5.136  1.0889 -1.0413  1.4830
 2976TIP3   OH230342   4.788   4.420   0.167 -0.9736 -0.1277  0.2322
 2976TIP3    H130343   4.879   4.420   0.139 -0.8620 -3.7231  0.2308
 2976TIP3    H230344   4.786   4.481   0.242  1.3941  0.0005  0.2574
 2977TIP3   OH230345   2.330   6.020   1.224  0.1122 -0.2535 -0.0596
 2977TIP3    H130346   2.239   6.045   1.206  0.1040  0.1340  0.4933
 2977TIP3    H230347   2.341   6.035   1.318  0.4214 -1.3711  0.0925
 2978TIP3   OH230348   5.541   2.083  11.908 -0.3082 -0.2291 -0.3972
 2978TIP3    H130349   5.506   2.004  11.948 -1.1758  0.6299  0.6314
 2978TIP3    H230350   5.464   2.126  11.869 -0.0766  0.6539  0.0771
 2979TIP3   OH230351   2.404   4.170  16.877 -0.7748  0.4406  0.9475
 2979TIP3    H130352   2.353   4.210  16.947 -1.6431 -2.3546  2.0214
 2979TIP3    H230353   2.340   4.154  16.807 -0.4246  0.8990  0.5097
 2980TIP3   OH230354   6.248   3.344   5.142  0.0983 -0.0096  0.3178
 2980TIP3    H130355   6.296   3.296   5.074 -0.1422 -0.4698  0.4687
 2980TIP3    H230356   6.189   3.278   5.180 -0.2198  0.4029  0.5413
 2981TIP3   OH230357   0.517   0.977  10.472 -0.0783 -0.1642  1.1508
 2981TIP3    H130358   0.582   1.042  10.497  0.4311 -0.7701  1.4108
 2981TIP3    H230359   0.552   0.893  10.503  0.6647 -1.0108 -1.6192
 2982TIP3   OH230360   0.824   2.672   1.289  0.4527  0.2175 -0.4936
 2982TIP3    H130361   0.759   2.740   1.270  0.6208  0.6326  0.3633
 2982TIP3    H230362   0.810   2.652   1.382  1.2640  0.0054 -0.4154
 2983TIP3   OH230363   5.398   4.143   6.041 -0.2275  0.5895  0.2542
 2983TIP3    H130364   5.482   4.175   6.007 -0.5930  2.8979  1.3143
 2983TIP3    H230365   5.421   4.066   6.092  1.0585  0.3689 -0.6167
 2984TIP3   OH230366   0.652   6.664   2.039  1.0373 -0.0602  0.0381
 2984TIP3    H130367   0.639   6.750   2.080 -0.0320 -0.6084  0.8721
 2984TIP3    H230368   0.625   6.601   2.105  2.4166 -1.0889 -0.3279
 2985TIP3   OH230369   6.460   5.958  14.927 -0.5677 -0.6623  0.0823
 2985TIP3    H130370   6.495   5.898  14.992 -0.7514  0.0001  0.8039
 2985TIP3    H230371   6.516   6.036  14.935 -0.7800 -0.4632 -0.3470
 2986TIP3   OH230372   1.493   0.063  10.665 -0.7078 -0.4691 -0.0129
 2986TIP3    H130373   1.530   0.137  10.617 -0.4352  0.2017  1.1899
 2986TIP3    H230374   1.398   0.072  10.655 -0.6438 -0.5894 -0.7730
 2987TIP3   OH230375   3.619   2.265  17.221  0.2093  0.3477  0.5523
 2987TIP3    H130376   3.581   2.288  17.136 -0.2424  1.0619  0.9352
 2987TIP3    H230377   3.695   2.211  17.199  0.2784  0.7743 -0.3269
 2988TIP3   OH230378   1.852   5.713  16.592 -0.3039  0.2401  0.2360
 2988TIP3    H130379   1.819   5.729  16.680 -1.3065  2.7293 -0.5052
 2988TIP3    H230380   1.850   5.618  16.583 -1.8820  0.0008  2.2630
 2989TIP3   OH230381   5.730   0.131   1.734  0.3856  0.7503 -0.1018
 2989TIP3    H130382   5.656   0.189   1.746  0.4370  0.5217  1.6599
 2989TIP3    H230383   5.721   0.097   1.645 -0.8830  1.7180 -0.3626
 2990TIP3   OH230384   2.913   5.966   4.568  0.2737  0.4517  0.2249
 2990TIP3    H130385   2.818   5.955   4.560  0.0497  1.4858  1.2598
 2990TIP3    H230386   2.937   6.020   4.492 -0.0237  0.4982  0.1617
 2991TIP3   OH230387   2.634   5.545  11.213  0.3610  0.3123  0.7614
 2991TIP3    H130388   2.618   5.595  11.132  3.2072  0.8806  0.4405
 2991TIP3    H230389   2.551   5.550  11.261 -0.1992  3.4902 -0.2755
 2992TIP3   OH230390   1.890   5.261   2.953  0.1034 -0.4189  0.0263
 2992TIP3    H130391   1.864   5.353   2.940 -0.3413 -0.8701 -2.8394
 2992TIP3    H230392   1.969   5.266   3.007 -0.4466  1.5772  0.7374
 2993TIP3   OH230393   3.047   1.287  15.158  0.5395 -0.3668 -0.6414
 2993TIP3    H130394   3.125   1.278  15.103  0.6208  0.2609 -0.6305
 2993TIP3    H230395   3.077   1.335  15.235  0.7321 -2.3405  0.5989
 2994TIP3   OH230396   6.212   3.905  10.791  0.2804 -0.1936 -0.3477
 2994TIP3    H130397   6.155   3.904  10.714  1.4707  0.8335 -1.2801
 2994TIP3    H230398   6.214   3.814  10.820  1.1706 -0.9446 -2.5784
 2995TIP3   OH230399   4.575   6.687   4.372 -0.4027  0.1357 -0.3690
 2995TIP3    H130400   4.596   6.609   4.321 -0.0452 -0.7208  1.0401
 2995TIP3    H230401   4.496   6.665   4.421 -0.0843  0.5030  0.3339
 2996TIP3   OH230402   1.644   3.852  14.919  0.2551  0.0975 -0.6035
 2996TIP3    H130403   1.556   3.816  14.927  0.2884  0.2764  0.6362
 2996TIP3    H230404   1.669   3.833  14.828 -1.1661  0.3236 -1.0575
 2997TIP3   OH230405   0.724   0.948   1.766 -0.8683  0.3561 -0.0485
 2997TIP3    H130406   0.725   1.043   1.758  0.6403  0.5690  1.9430
 2997TIP3    H230407   0.759   0.916   1.684 -0.1742  1.5834 -0.2413
 2998TIP3   OH230408   2.263   1.305  14.825 -0.3866  0.0123 -0.4124
 2998TIP3    H130409   2.188   1.275  14.876 -0.5994  1.8030  0.4184
 2998TIP3    H230410   2.319   1.349  14.889  1.2507 -1.0399 -1.0743
 2999TIP3   OH230411   3.909   4.002  10.593 -0.3195  0.0082  0.3019
 2999TIP3    H130412   3.893   3.907  10.588  1.8065 -0.3776 -0.1709
 2999TIP3    H230413   3.827   4.041  10.562 -0.9367 -1.6947 -0.3818
 3000TIP3   OH230414   5.993   3.214  13.418  0.1866  0.7341  0.3362
 3000TIP3    H130415   5.950   3.199  13.334  0.1743 -1.0278  0.6050
 3000TIP3    H230416   5.988   3.308  13.432 -1.6102  0.8292 -0.6798
 3001TIP3   OH230417   1.414   4.884   2.809 -0.4433 -0.0185  0.9937
 3001TIP3    H130418   1.498   4.838   2.819 -0.7914 -0.9815 -0.2246
 3001TIP3    H230419   1.349   4.821   2.842 -0.7678  0.3469  1.0529
 3002TIP3   OH230420   0.205   0.949  14.116 -0.1341 -0.0708  0.2153
 3002TIP3    H130421   0.197   0.894  14.194  3.6886  0.4084  1.1720
 3002TIP3    H230422   0.236   1.034  14.149 -1.4987  1.2378 -1.6155
 3003TIP3   OH230423   6.554   0.444  15.567  0.2020  0.0784 -0.3371
 3003TIP3    H130424   6.491   0.376  15.541  0.6498 -0.5410  0.1832
 3003TIP3    H230425   6.517   0.482  15.646  0.1466  0.1652 -0.4054
 3004TIP3   OH230426   5.506   4.062  12.299 -0.3400  0.0112 -0.2642
 3004TIP3    H130427   5.508   4.057  12.395 -2.3714  2.1474 -0.0129
 3004TIP3    H230428   5.583   4.013  12.271  1.4183  0.9040  2.5409
 3005TIP3   OH230429   1.816   2.245  17.140  0.2683  0.5009  0.7984
 3005TIP3    H130430   1.761   2.250  17.062  1.1235 -0.7703  0.0881
 3005TIP3    H230431   1.754   2.251  17.213 -0.7117  0.1569  0.0162
 3006TIP3   OH230432   4.396   4.999  13.331  0.1288 -0.3472  0.3614
 3006TIP3    H130433   4.349   4.997  13.247  1.3398 -0.1920 -0.3326
 3006TIP3    H230434   4.327   5.019  13.396 -1.1469 -2.2070 -0.3343
 3007TIP3   OH230435   5.155   0.000  12.156  0.1087 -0.0742 -0.1065
 3007TIP3    H130436   5.118   0.065  12.216 -0.1773  0.1672 -0.5342
 3007TIP3    H230437   5.242  -0.020  12.192 -0.2340 -0.2547  0.6178
 3008TIP3   OH230438   3.684   2.071   5.417 -0.2711 -0.3947 -0.1520
 3008TIP3    H130439   3.710   2.088   5.326 -0.0432 -0.8241 -0.1683
 3008TIP3    H230440   3.684   1.976   5.424 -0.0528 -0.3554  0.3685
 3009TIP3   OH230441   4.137   5.598  13.677  0.2238 -0.5860  0.0728
 3009TIP3    H130442   4.147   5.657  13.602  0.1732 -0.3848  0.2225
 3009TIP3    H230443   4.215   5.542  13.674  2.0062  1.5754  1.7648
 3010TIP3   OH230444   3.051   0.165   4.506  0.0624 -0.8574  0.4112
 3010TIP3    H130445   3.035   0.258   4.518 -0.9796 -1.0915  0.9066
 3010TIP3    H230446   3.144   0.160   4.482 -0.5336  0.5369 -2.5593
 3011TIP3   OH230447   5.692   0.584  16.349 -0.7111  0.1835 -0.1037
 3011TIP3    H130448   5.619   0.623  16.301  0.1152  1.1431 -0.6341
 3011TIP3    H230449   5.748   0.547  16.281  0.0477  0.8061  0.1601
 3012TIP3   OH230450   1.861   0.360  11.040  1.1342  0.4572 -0.0139
 3012TIP3    H130451   1.956   0.362  11.041  1.2899 -2.4471  0.5283
 3012TIP3    H230452   1.837   0.381  10.950  2.3095  0.8927 -0.2402
 3013TIP3   OH230453   5.781   3.150   3.036 -0.4681  0.6714 -0.3458
 3013TIP3    H130454   5.819   3.068   3.066 -2.1847  0.5287  1.7021
 3013TIP3    H230455   5.811   3.215   3.099 -0.5831  1.2642 -0.8931
 3014TIP3   OH230456   6.601   5.531   3.407  0.0716  0.7965  0.0457
 3014TIP3    H130457   6.638   5.529   3.495  1.4113  0.4970 -0.5048
 3014TIP3    H230458   6.661   5.586   3.357 -0.3823  0.5231 -0.8110
 3015TIP3   OH230459   5.670   6.733  16.175  0.1581  0.4993 -0.0176
 3015TIP3    H130460   5.655   6.695  16.088  0.8168  0.1637  0.0128
 3015TIP3    H230461   5.745   6.686  16.210 -1.5271 -1.0853  1.7334
 3016TIP3   OH230462   5.465   2.317  12.985  0.1314  0.4904 -0.1451
 3016TIP3    H130463   5.520   2.361  13.050  1.4318 -1.7445  0.3625
 3016TIP3    H230464   5.392   2.281  13.035 -0.2575  0.9488 -0.3671
 3017TIP3   OH230465   4.345   3.766  16.766 -0.3233 -1.0323 -0.1448
 3017TIP3    H130466   4.256   3.757  16.733  0.3648 -2.0370 -1.8959
 3017TIP3    H230467   4.400   3.746  16.690  1.3881 -0.9729  1.0316
 3018TIP3   OH230468   1.608   4.661   0.965  0.0718  0.4135  0.0178
 3018TIP3    H130469   1.693   4.674   1.007  0.4091  0.9446 -0.8011
 3018TIP3    H230470   1.559   4.607   1.027  1.0420 -0.0017  0.4570
 3019TIP3   OH230471   0.706   5.950  16.643  0.1515  0.7396  0.9373
 3019TIP3    H130472   0.763   6.023  16.620 -0.6110  0.3402 -2.8432
 3019TIP3    H230473   0.765   5.884  16.679  1.7760  1.1655 -0.8102
 3020TIP3   OH230474   6.743   3.723  15.711  0.1781 -0.2001 -0.1527
 3020TIP3    H130475   6.653   3.754  15.701  0.2676  0.8857  2.0028
 3020TIP3    H230476   6.772   3.756  15.796  1.8642 -2.4227  0.2531
 3021TIP3   OH230477   4.387   4.740   1.502 -0.3907  0.2420 -0.1480
 3021TIP3    H130478   4.466   4.745   1.555  0.0734 -1.5000 -0.6006
 3021TIP3    H230479   4.416   4.701   1.420 -1.6671 -0.1229 -0.4461
 3022TIP3   OH230480   0.075   6.089   1.835 -0.0798  0.7097  0.6369
 3022TIP3    H130481   0.071   6.072   1.929 -1.9183 -1.3344  0.2744
 3022TIP3    H230482   0.088   6.184   1.828  2.6567  0.6107  2.8953
 3023TIP3   OH230483   2.923   6.185  17.252 -0.6749  0.4190  0.4181
 3023TIP3    H130484   2.871   6.144  17.321 -1.5790  0.6311 -0.1267
 3023TIP3    H230485   3.011   6.191  17.289 -0.6759 -1.3300  0.8081
 3024TIP3   OH230486   5.720   5.404  14.467 -0.1589 -0.1969  0.1904
 3024TIP3    H130487   5.682   5.318  14.483 -2.3713  0.7278  0.2305
 3024TIP3    H230488   5.661   5.465  14.512  0.7657  1.4159 -0.7084
 3025TIP3   OH230489   1.770   2.545   4.642 -0.3137 -0.2476  0.0974
 3025TIP3    H130490   1.816   2.580   4.719 -1.7605  2.0135  0.0443
 3025TIP3    H230491   1.767   2.619   4.581 -2.2373 -0.9354 -0.7060
 3026TIP3   OH230492   5.262   2.840  17.382  0.2669 -0.5744 -0.4906
 3026TIP3    H130493   5.221   2.921  17.350 -2.5284 -1.9183 -0.6209
 3026TIP3    H230494   5.266   2.784  17.305  1.1690 -0.9760 -0.1642
 3027TIP3   OH230495   4.013   5.644  12.654  0.1378 -0.4578  0.0205
 3027TIP3    H130496   3.925   5.672  12.628  0.8397  0.9565 -1.0127
 3027TIP3    H230497   4.020   5.670  12.746 -0.1516  0.4792 -0.2053
 3028TIP3   OH230498   5.004   1.246  15.185 -0.6090 -0.1601  0.1956
 3028TIP3    H130499   5.033   1.169  15.235 -0.4941  0.4083  1.0319
 3028TIP3    H230500   5.084   1.281  15.147 -0.3827  0.5182  1.2358
 3029TIP3   OH230501   4.672   1.186   5.313  0.1753  0.1192 -0.9029
 3029TIP3    H130502   4.747   1.126   5.317  0.3987  0.4223  2.2067
 3029TIP3    H230503   4.710   1.272   5.334 -1.0001  0.2152  1.1231
 3030TIP3   OH230504   0.038   5.107   0.157 -0.2644  0.2393  0.1121
 3030TIP3    H130505   0.066   5.103   0.248  0.2216 -0.2998 -0.0550
 3030TIP3    H230506   0.119   5.124   0.108 -0.5104  0.4482 -0.2246
 3031TIP3   OH230507   1.577   4.438   6.320  0.3587  0.0548 -0.3895
 3031TIP3    H130508   1.612   4.519   6.358  0.5326  0.0980 -0.6392
 3031TIP3    H230509   1.653   4.379   6.317  0.1888 -0.1887 -0.0211
 3032TIP3   OH230510   3.396   1.828  13.203  0.1387 -0.7166 -0.0125
 3032TIP3    H130511   3.452   1.900  13.173 -0.0298 -1.2687 -1.7564
 3032TIP3    H230512   3.458   1.763  13.236  0.5028 -1.0028 -1.2198
 3033TIP3   OH230513   3.263   3.427  12.464 -0.5592 -0.6696 -0.2357
 3033TIP3    H130514   3.245   3.517  12.435  0.0371 -0.9467 -1.5428
 3033TIP3    H230515   3.231   3.372  12.393  2.5267 -1.2960 -1.3089
 3034TIP3   OH230516   1.696   0.779   1.970 -0.2830 -0.2722 -0.0695
 3034TIP3    H130517   1.717   0.750   2.059 -0.5248  1.0114  0.4337
 3034TIP3    H230518   1.615   0.734   1.949  0.8952 -2.2916 -0.5297
 3035TIP3   OH230519   4.092   0.510   6.667 -0.4057  0.4725 -0.1431
 3035TIP3    H130520   4.186   0.506   6.646 -0.1208  1.9746  0.7347
 3035TIP3    H230521   4.049   0.496   6.583  0.6464  1.6376 -0.9147
 3036TIP3   OH230522   2.491   3.643  12.785 -0.3612 -0.2845 -0.2852
 3036TIP3    H130523   2.540   3.586  12.844  0.4197  0.5238 -0.1385
 3036TIP3    H230524   2.416   3.672  12.837 -0.5685 -0.8824 -0.2411
 3037TIP3   OH230525   4.654   0.625   6.727 -0.2836  0.1237  0.4813
 3037TIP3    H130526   4.660   0.682   6.650 -0.8633  0.2625  0.5301
 3037TIP3    H230527   4.743   0.623   6.763  0.3089 -1.0198 -0.9514
 3038TIP3   OH230528   3.244   4.632  15.359  0.1373  0.0264  0.2567
 3038TIP3    H130529   3.213   4.596  15.276  1.0643 -0.3333  0.0476
 3038TIP3    H230530   3.338   4.615  15.358 -0.0192 -1.1944  1.9718
 3039TIP3   OH230531   5.512   5.539  14.218  0.2805 -0.4081  0.1451
 3039TIP3    H130532   5.502   5.622  14.171 -0.0978 -1.5794 -1.9871
 3039TIP3    H230533   5.597   5.506  14.191  0.9247 -0.2338  1.8561
 3040TIP3   OH230534   1.398   4.854  12.184 -0.3889 -0.2366 -0.1936
 3040TIP3    H130535   1.480   4.884  12.145  0.0089  0.2267  0.9563
 3040TIP3    H230536   1.356   4.802  12.115  1.5382 -1.7230 -0.3071
 3041TIP3   OH230537   0.571   1.072   3.475 -0.3002 -0.1446 -0.0558
 3041TIP3    H130538   0.500   1.075   3.539 -1.1291 -2.4486 -0.7489
 3041TIP3    H230539   0.633   1.009   3.511  0.6412  0.6754 -0.2060
 3042TIP3   OH230540   3.408   6.671  15.868  0.3479  0.7097 -0.8095
 3042TIP3    H130541   3.329   6.663  15.922  0.0645  3.4343 -0.6635
 3042TIP3    H230542   3.474   6.619  15.913 -0.8568 -0.0696  0.1083
 3043TIP3   OH230543   0.780   2.463  13.092  0.0935  0.2748  0.5200
 3043TIP3    H130544   0.786   2.556  13.114 -0.3671  1.0716 -2.2711
 3043TIP3    H230545   0.839   2.419  13.153  0.7174  2.4535  1.5683
 3044TIP3   OH230546   5.858   4.429  17.348  0.1514 -0.1425  0.3413
 3044TIP3    H130547   5.929   4.385  17.300  0.8136  0.1750  1.0130
 3044TIP3    H230548   5.859   4.518  17.314 -1.2643 -0.6358 -1.1003
 3045TIP3   OH230549   1.144   0.386  17.029  0.3335 -0.0270 -0.2707
 3045TIP3    H130550   1.171   0.464  17.076 -0.8818  0.6772 -0.6897
 3045TIP3    H230551   1.090   0.418  16.956 -0.9892 -1.2687  0.0917
 3046TIP3   OH230552   5.820   1.336   2.261  0.4378  0.4493  0.2069
 3046TIP3    H130553   5.887   1.383   2.211  2.2408 -2.0686  0.0227
 3046TIP3    H230554   5.744   1.335   2.203  1.2533  0.8158 -0.9205
 3047TIP3   OH230555   5.822   4.817   0.939  0.5568  0.4907 -0.2880
 3047TIP3    H130556   5.827   4.756   1.013  0.0540 -0.1816 -0.7996
 3047TIP3    H230557   5.892   4.881   0.956  1.6666 -0.7175 -0.1832
 3048TIP3   OH230558   4.434   1.758   0.875  0.4323 -0.1451 -0.1772
 3048TIP3    H130559   4.423   1.668   0.905  0.6092 -0.8090 -2.0009
 3048TIP3    H230560   4.382   1.763   0.794  0.7359  1.2750 -0.3112
 3049TIP3   OH230561   1.285   1.998  16.272  0.3837  0.0203  0.3576
 3049TIP3    H130562   1.212   1.960  16.224 -0.0824  0.6156  0.5740
 3049TIP3    H230563   1.251   2.083  16.303  0.7287 -0.2612  1.5679
 3050TIP3   OH230564   4.238   4.729  15.681  0.1035 -0.2972 -0.1494
 3050TIP3    H130565   4.200   4.735  15.593 -1.3821 -1.0738  0.4070
 3050TIP3    H230566   4.213   4.812  15.723  0.1395 -0.2568 -0.2072
 3051TIP3   OH230567   3.998   2.580   1.160  0.3313  0.0676  0.4807
 3051TIP3    H130568   4.087   2.561   1.129  0.2142  0.0495  0.1563
 3051TIP3    H230569   4.000   2.674   1.179  0.6067 -0.0548  1.0956
 3052TIP3   OH230570   0.823   0.331  13.682  0.1303 -0.5321 -0.0626
 3052TIP3    H130571   0.915   0.346  13.706 -0.0680 -0.5596  0.7429
 3052TIP3    H230572   0.788   0.280  13.754 -1.0757  1.3090  0.7278
 3053TIP3   OH230573   0.891   1.035   3.736  0.3601  0.0628  0.2102
 3053TIP3    H130574   0.840   1.066   3.810 -0.3241 -1.2295  0.3129
 3053TIP3    H230575   0.951   0.970   3.773 -1.0759 -1.7810 -0.5312
 3054TIP3   OH230576   4.887   2.729   5.847 -0.7439  0.0127 -0.2020
 3054TIP3    H130577   4.934   2.658   5.890 -0.2026 -0.5476 -1.6432
 3054TIP3    H230578   4.941   2.807   5.862 -0.0468 -0.3665 -0.6923
 3055TIP3   OH230579   5.769   1.832  16.129 -0.1869  0.2981  0.0270
 3055TIP3    H130580   5.785   1.856  16.220 -1.2323  1.3520 -0.0511
 3055TIP3    H230581   5.760   1.737  16.131  2.1306  0.0245  0.6448
 3056TIP3   OH230582   3.344   1.392  16.101 -0.2624  0.2451 -0.4877
 3056TIP3    H130583   3.403   1.325  16.137 -0.9223  0.7264  1.6524
 3056TIP3    H230584   3.267   1.342  16.073  0.2326 -0.1445 -1.1608
 3057TIP3   OH230585   2.476   4.507   2.324 -0.8877  0.1724  0.4531
 3057TIP3    H130586   2.392   4.465   2.309 -1.5963  1.2560  1.2371
 3057TIP3    H230587   2.501   4.543   2.239 -0.6481 -1.1241 -0.0383
 3058TIP3   OH230588   1.331   4.395  11.759 -0.7029 -0.1848 -0.3468
 3058TIP3    H130589   1.358   4.433  11.843 -0.1090 -0.7970 -0.2444
 3058TIP3    H230590   1.281   4.464  11.716 -0.4221  0.3827  0.2140
 3059TIP3   OH230591   1.897   0.003   1.302 -0.1387  0.5114 -0.1454
 3059TIP3    H130592   1.951  -0.046   1.365 -0.1622  0.2308 -0.3443
 3059TIP3    H230593   1.952   0.078   1.278  0.6440 -0.3822 -1.2283
 3060TIP3   OH230594   3.071   5.766  11.003 -0.9687  0.1472  0.0652
 3060TIP3    H130595   3.158   5.769  10.963 -1.1963  0.8653 -0.3917
 3060TIP3    H230596   3.042   5.676  10.991 -1.3197  0.5044 -2.0308
 3061TIP3   OH230597   3.699   0.960   2.495 -0.2502 -0.1421 -0.3419
 3061TIP3    H130598   3.732   0.872   2.479  1.8326  0.8824 -2.2401
 3061TIP3    H230599   3.639   0.977   2.422 -1.2468 -0.1983  0.4290
 3062TIP3   OH230600   3.585   2.274   4.066  0.8169  0.1027 -1.2968
 3062TIP3    H130601   3.531   2.310   3.995  0.8632  0.4623 -1.1499
 3062TIP3    H230602   3.555   2.320   4.144  0.7201 -0.3436 -1.0715
 3063TIP3   OH230603   0.416   1.943  13.563 -0.3728  0.4013  0.1386
 3063TIP3    H130604   0.446   1.933  13.654 -2.4660 -1.7421  0.6906
 3063TIP3    H230605   0.446   2.031  13.538  1.7412  0.4103  2.2796
 3064TIP3   OH230606   2.686   2.381  11.888 -0.0122  0.0978 -0.0031
 3064TIP3    H130607   2.591   2.386  11.877  0.0001  0.1093 -0.1089
 3064TIP3    H230608   2.720   2.379  11.798 -0.0857 -3.5544 -0.0910
 3065TIP3   OH230609   3.213   4.382   5.957 -0.2202 -0.3008 -0.3280
 3065TIP3    H130610   3.119   4.385   5.938 -0.7323 -2.2124  1.4776
 3065TIP3    H230611   3.225   4.448   6.026 -0.1890  0.0608 -0.6753
 3066TIP3   OH230612   1.534   5.828  17.156  0.5693  0.2993 -0.2539
 3066TIP3    H130613   1.441   5.817  17.135  0.9412 -0.5869 -1.5640
 3066TIP3    H230614   1.539   5.814  17.250 -0.7399  1.2069 -0.0267
 3067TIP3   OH230615   6.003   3.178   5.838 -0.0543  0.1290  0.9332
 3067TIP3    H130616   5.950   3.206   5.913 -0.7808  2.5036 -0.3455
 3067TIP3    H230617   6.027   3.260   5.794 -0.4813 -1.1796 -1.9731
 3068TIP3   OH230618   4.506   4.421  14.023 -0.0496  0.0380 -0.6479
 3068TIP3    H130619   4.467   4.507  14.039  2.5890  1.2024  0.0681
 3068TIP3    H230620   4.596   4.440  13.998  0.9774 -2.5591  0.7432
 3069TIP3   OH230621   3.988   0.539   3.535 -0.0203  0.2296  0.0584
 3069TIP3    H130622   3.996   0.628   3.500 -0.8481  0.6106  0.8139
 3069TIP3    H230623   3.904   0.539   3.582 -0.2783 -1.1022 -0.3682
 3070TIP3   OH230624   6.301   1.187  15.917 -0.3041 -0.2033 -0.4723
 3070TIP3    H130625   6.323   1.209  16.008  0.2491 -2.2499 -0.0560
 3070TIP3    H230626   6.205   1.180  15.917 -0.3988  0.8930 -0.3415
 3071TIP3   OH230627   0.606   6.055   1.981  0.6990  0.4349  0.1023
 3071TIP3    H130628   0.662   5.980   1.959 -2.2836 -1.2006 -2.7784
 3071TIP3    H230629   0.625   6.120   1.912 -1.8298 -0.7611 -1.8579
 3072TIP3   OH230630   0.637   2.391  12.875  0.4253 -0.1467  0.2986
 3072TIP3    H130631   0.552   2.432  12.893 -0.6648 -1.8069 -0.7708
 3072TIP3    H230632   0.694   2.422  12.946 -1.0823  0.9341  1.1022
 3073TIP3   OH230633   2.965   1.233   6.075 -0.6221 -0.5465  0.2863
 3073TIP3    H130634   3.007   1.271   6.152 -0.3406  0.5675 -0.3998
 3073TIP3    H230635   2.959   1.305   6.012 -0.7971 -1.4409 -0.7598
 3074TIP3   OH230636   5.659   1.875  11.699  0.1358  0.3056 -0.4307
 3074TIP3    H130637   5.737   1.831  11.665 -0.3097  1.6257 -3.5767
 3074TIP3    H230638   5.693   1.938  11.763  1.3208 -1.0014  0.2620
 3075TIP3   OH230639   3.472   3.130  16.510  0.0661 -0.7837 -0.4924
 3075TIP3    H130640   3.481   3.224  16.491  1.0619 -0.3892  1.6542
 3075TIP3    H230641   3.390   3.122  16.557  0.4715 -0.8113  0.2263
 3076TIP3   OH230642   3.233   1.063   6.171  0.1026 -0.7102 -0.3077
 3076TIP3    H130643   3.327   1.059   6.154 -0.1215 -0.1169 -1.8730
 3076TIP3    H230644   3.196   1.099   6.090 -1.2365  1.3021  1.1117
 3077TIP3   OH230645   4.532   1.726   3.942  0.1433 -0.2194 -0.5112
 3077TIP3    H130646   4.530   1.820   3.960  1.6151 -0.2213 -0.2239
 3077TIP3    H230647   4.440   1.699   3.942 -0.2122  0.8715  1.2509
 3078TIP3   OH230648   1.538   1.154  10.804  0.3746 -0.4102  0.0586
 3078TIP3    H130649   1.578   1.222  10.858  0.0916  0.6901 -1.0531
 3078TIP3    H230650   1.546   1.187  10.715 -0.1710 -1.6492 -0.4708
 3079TIP3   OH230651   5.362   1.319  11.974  0.3816  0.0102  0.4395
 3079TIP3    H130652   5.285   1.262  11.976  2.6708 -3.3436  1.0965
 3079TIP3    H230653   5.387   1.321  11.881 -0.6878  1.4892  0.1548
 3080TIP3   OH230654   0.363   0.056   2.005  0.1258  0.0454 -0.0053
 3080TIP3    H130655   0.441   0.064   2.059  0.2810 -0.3625 -0.1677
 3080TIP3    H230656   0.312  -0.014   2.046 -0.5787  0.8983  0.6134
 3081TIP3   OH230657   1.500   6.597  17.153 -0.2682  0.0426  0.3238
 3081TIP3    H130658   1.521   6.545  17.231 -2.2756 -0.3077  0.7062
 3081TIP3    H230659   1.560   6.565  17.086 -0.0184 -1.2800  1.1282
 3082TIP3   OH230660   0.282   1.866   6.140 -0.5630 -0.2651  0.1989
 3082TIP3    H130661   0.244   1.898   6.222  0.2307 -0.7839  0.7790
 3082TIP3    H230662   0.348   1.931   6.117  0.1581 -0.8099  0.6987
 3083TIP3   OH230663   4.776   3.052   5.096  0.2135  0.1935  0.1956
 3083TIP3    H130664   4.741   3.085   5.178 -0.6514 -0.3896  0.0762
 3083TIP3    H230665   4.737   3.109   5.029 -1.9891 -1.5073 -0.0871
 3084TIP3   OH230666   2.485   3.190  14.602  0.6508  0.1227 -0.3142
 3084TIP3    H130667   2.541   3.267  14.607  0.5168  0.1889  0.2746
 3084TIP3    H230668   2.527   3.133  14.537  1.9624 -0.2793  0.8403
 3085TIP3   OH230669   1.289   4.550  14.798  0.0502 -0.2174 -0.4356
 3085TIP3    H130670   1.258   4.527  14.710  0.4559  0.7214 -0.8416
 3085TIP3    H230671   1.289   4.646  14.798  2.8071 -0.1437 -0.4234
 3086TIP3   OH230672   6.151   0.246  16.993 -0.0564  0.4758 -0.4582
 3086TIP3    H130673   6.188   0.169  16.950 -1.2530 -0.2541 -0.2314
 3086TIP3    H230674   6.227   0.302  17.011  0.9292 -0.9208 -0.0677
 3087TIP3   OH230675   6.285   1.094  10.955 -0.3908  0.0235 -0.1463
 3087TIP3    H130676   6.227   1.018  10.959 -0.8009  0.2713 -1.1145
 3087TIP3    H230677   6.282   1.122  10.863 -1.0604  1.8207  0.3739
 3088TIP3   OH230678   0.010   0.476  12.632 -0.3231  0.5584  0.1354
 3088TIP3    H130679   0.006   0.564  12.669 -0.1338  0.5923  0.0742
 3088TIP3    H230680   0.044   0.422  12.703 -1.5723  0.3189  0.5689
 3089TIP3   OH230681   1.875   4.315   5.486 -0.1928 -0.1375 -1.0481
 3089TIP3    H130682   1.914   4.336   5.570  1.3634  0.1640 -1.8078
 3089TIP3    H230683   1.864   4.220   5.488  1.1656 -0.3163 -1.0173
 3090TIP3   OH230684   6.573   0.130  14.453  0.5645  0.6127 -0.1562
 3090TIP3    H130685   6.591   0.049  14.405  0.2556  0.8664 -0.7124
 3090TIP3    H230686   6.478   0.140  14.449  0.3931  0.0172  1.5544
 3091TIP3   OH230687   2.317   3.993   4.209  0.2277  0.1072 -0.2016
 3091TIP3    H130688   2.380   4.065   4.212  0.1535  0.1549  0.4077
 3091TIP3    H230689   2.370   3.916   4.189  0.1636  0.4743 -1.9338
 3092TIP3   OH230690   6.529   2.006   2.963  0.2916  0.0039 -0.4507
 3092TIP3    H130691   6.497   2.082   2.913 -0.2363  0.0651 -0.0255
 3092TIP3    H230692   6.460   1.989   3.027  1.3413  0.4663  0.8576
 3093TIP3   OH230693   3.659   0.021  11.247 -0.2757  0.0570  0.0683
 3093TIP3    H130694   3.711   0.095  11.215  2.8661 -1.3565  1.3748
 3093TIP3    H230695   3.596   0.060  11.307  0.4519  1.8017 -0.2198
 3094TIP3   OH230696   5.861   1.330   6.238 -0.2968  0.0424 -0.4211
 3094TIP3    H130697   5.936   1.296   6.190  0.0934  0.4752 -0.1275
 3094TIP3    H230698   5.884   1.421   6.256 -0.0902 -0.3054  1.2475
 3095TIP3   OH230699   0.679   2.240   1.957  0.4286  0.9691 -0.3902
 3095TIP3    H130700   0.626   2.215   1.881 -0.8579 -0.9814  1.0726
 3095TIP3    H230701   0.616   2.275   2.019  0.7234 -1.4613  1.4186
 3096TIP3   OH230702   1.517   0.445  12.219  0.3871  0.3657 -0.3790
 3096TIP3    H130703   1.551   0.534  12.226 -0.8166  0.7900  0.2563
 3096TIP3    H230704   1.426   0.451  12.247  0.7031 -1.3485  1.2068
 3097TIP3   OH230705   3.661   3.346   1.771 -0.9134  0.2678  1.1880
 3097TIP3    H130706   3.572   3.373   1.753 -0.8507 -0.4604 -0.3860
 3097TIP3    H230707   3.693   3.408   1.837 -1.1533  3.2967 -1.3180
 3098TIP3   OH230708   5.374   3.195  13.270 -0.0416 -0.2408  0.2814
 3098TIP3    H130709   5.394   3.182  13.363  2.4247 -0.9975 -0.2965
 3098TIP3    H230710   5.414   3.278  13.248  1.9625 -1.4174 -0.7302
 3099TIP3   OH230711   2.901   2.876   4.807  0.6167 -0.1839 -0.1292
 3099TIP3    H130712   2.898   2.921   4.891  0.4680  0.6958 -0.5946
 3099TIP3    H230713   2.940   2.790   4.827  1.3258  0.3133  0.6891
 3100TIP3   OH230714   5.616   2.668   3.690  0.0581  0.1309 -0.0186
 3100TIP3    H130715   5.585   2.653   3.601  0.7115  0.6301 -0.3365
 3100TIP3    H230716   5.672   2.745   3.684 -0.7053  0.7952  1.0123
 3101TIP3   OH230717   6.412   3.438  15.683  0.5259  0.5316 -1.1977
 3101TIP3    H130718   6.424   3.348  15.713  0.3503  1.5324  2.3170
 3101TIP3    H230719   6.466   3.445  15.604  1.7052 -2.2164 -0.7431
 3102TIP3   OH230720   6.437   1.533   6.261  0.0959 -0.9387 -0.0171
 3102TIP3    H130721   6.420   1.471   6.333 -1.0539 -0.6227 -0.0030
 3102TIP3    H230722   6.352   1.548   6.221  0.3095  0.7340  0.0583
 3103TIP3   OH230723   3.043   0.729   2.961 -0.6705  0.4210 -0.5698
 3103TIP3    H130724   2.952   0.711   2.936 -1.0453 -2.0343  2.0365
 3103TIP3    H230725   3.036   0.800   3.026 -0.6002  0.9364 -1.1204
 3104TIP3   OH230726   0.001   3.863  16.578  0.4856 -0.3738  0.3692
 3104TIP3    H130727  -0.065   3.811  16.532  0.7092 -1.2163  0.9710
 3104TIP3    H230728   0.073   3.869  16.516 -0.9502  2.5153 -1.2255
 3105TIP3   OH230729   6.443   3.571  15.919 -0.8191 -0.4420  0.4986
 3105TIP3    H130730   6.415   3.519  15.844  0.6097 -2.0690  1.0218
 3105TIP3    H230731   6.532   3.597  15.898 -0.4005 -0.9332  1.6412
 3106TIP3   OH230732   4.459   4.115   5.417 -0.1195  0.0554 -0.1449
 3106TIP3    H130733   4.508   4.143   5.495  0.5897  0.8104 -0.8463
 3106TIP3    H230734   4.477   4.021   5.411  2.0510  0.4664 -0.8969
 3107TIP3   OH230735   5.106   0.396   5.239  0.5917  0.0222  0.2632
 3107TIP3    H130736   5.012   0.381   5.245  0.9045 -2.1496  0.5912
 3107TIP3    H230737   5.137   0.393   5.330  1.1346 -0.6205  0.0670
 3108TIP3   OH230738   5.508   5.449   0.801  0.3972 -0.0785  0.7287
 3108TIP3    H130739   5.492   5.500   0.880 -2.3927  3.7111 -1.8691
 3108TIP3    H230740   5.421   5.415   0.777  0.7204  0.5955 -1.6477
 3109TIP3   OH230741   3.924   3.683  16.864 -0.3861  0.3409  0.0359
 3109TIP3    H130742   3.860   3.743  16.825 -1.3140  0.3930  1.5732
 3109TIP3    H230743   3.993   3.741  16.898 -0.6106  0.4508  0.3117
 3110TIP3   OH230744   0.454   0.052  14.287  0.3303 -0.5898  0.1720
 3110TIP3    H130745   0.370   0.019  14.321  0.2006 -0.6505 -0.2105
 3110TIP3    H230746   0.442   0.147  14.283 -0.6644 -0.7529 -2.3550
 3111TIP3   OH230747   3.285   3.883  17.298 -0.4170 -0.2059  0.1231
 3111TIP3    H130748   3.203   3.892  17.250 -0.8035 -1.7744  0.4304
 3111TIP3    H230749   3.336   3.960  17.274 -1.5781  0.2783 -0.8680
 3112TIP3   OH230750   4.365   3.677  12.724 -0.2818  0.3811  0.0333
 3112TIP3    H130751   4.274   3.702  12.736 -0.8403 -1.0048 -0.9773
 3112TIP3    H230752   4.407   3.695  12.808 -1.3847  1.4028  0.3882
 3113TIP3   OH230753   6.046   4.705   4.941 -0.0560  0.2653  0.1940
 3113TIP3    H130754   6.034   4.692   4.847 -0.6130  1.9203  0.0082
 3113TIP3    H230755   6.126   4.658   4.962  1.5227  1.9947 -1.6131
 3114TIP3   OH230756   5.676   0.591   5.900 -0.2373  0.2037  0.8357
 3114TIP3    H130757   5.745   0.530   5.928  0.5726  1.0505  0.7239
 3114TIP3    H230758   5.639   0.550   5.821  1.7987  0.8750 -0.5506
 3115TIP3   OH230759   2.229   0.123  12.842 -0.4201  0.5245 -0.2640
 3115TIP3    H130760   2.228   0.137  12.747 -1.5954  2.5191 -0.0063
 3115TIP3    H230761   2.171   0.048  12.856  0.0885 -0.0533 -1.1250
 3116TIP3   OH230762   6.555   2.775   1.870 -0.4130  0.5040 -0.3040
 3116TIP3    H130763   6.529   2.761   1.779  0.4579  1.1654 -0.6692
 3116TIP3    H230764   6.529   2.866   1.889  0.6530  0.8263 -0.3445
 3117TIP3   OH230765   1.286   1.742  12.113  0.4552  0.5475  0.1638
 3117TIP3    H130766   1.191   1.746  12.122  0.5586  3.5296  0.8727
 3117TIP3    H230767   1.317   1.706  12.196 -0.0157 -0.3737 -0.0445
 3118TIP3   OH230768   5.825   6.083   0.604 -0.4249  0.0671  0.4503
 3118TIP3    H130769   5.898   6.060   0.661  0.8583  2.2477 -0.1949
 3118TIP3    H230770   5.751   6.096   0.663  0.2756 -0.0211  1.3621
 3119TIP3   OH230771   1.273   6.651  14.241 -0.8086  0.0508 -0.3591
 3119TIP3    H130772   1.345   6.660  14.303 -1.1993  0.7694  0.0018
 3119TIP3    H230773   1.218   6.728  14.256 -0.3846  0.7799 -2.2993
 3120TIP3   OH230774   6.165   2.510  11.063 -0.4314  0.1430 -0.2266
 3120TIP3    H130775   6.071   2.519  11.074 -0.4496 -0.9459  0.7427
 3120TIP3    H230776   6.178   2.504  10.968 -1.2934  0.6243 -0.3849
 3121TIP3   OH230777   4.327   0.290  14.922 -0.1711  0.3404 -0.2643
 3121TIP3    H130778   4.256   0.355  14.924 -0.2072  0.3126 -0.5673
 3121TIP3    H230779   4.307   0.236  14.846  2.1370  2.5697 -2.6199
 3122TIP3   OH230780   4.591   6.323  11.617  0.5101  0.7372  0.4248
 3122TIP3    H130781   4.655   6.270  11.665 -0.1909 -1.3198 -0.7812
 3122TIP3    H230782   4.637   6.405  11.599  2.3828 -0.2180  0.6114
 3123TIP3   OH230783   0.420   1.956   2.438 -0.2408 -0.0161 -0.3496
 3123TIP3    H130784   0.366   2.032   2.458  1.3712  1.0419  0.1127
 3123TIP3    H230785   0.505   1.974   2.477  0.4572 -1.6743 -0.9644
 3124TIP3   OH230786   3.717   2.659  16.846 -0.1461 -0.4833 -0.1887
 3124TIP3    H130787   3.752   2.582  16.891 -1.5476 -1.1578 -0.1948
 3124TIP3    H230788   3.641   2.626  16.797 -0.8946  0.9349 -0.0356
 3125TIP3   OH230789   1.541   5.439   4.302 -0.4531  0.4131 -0.2527
 3125TIP3    H130790   1.498   5.382   4.238  0.9605  0.1056 -0.9606
 3125TIP3    H230791   1.491   5.426   4.383  1.3736 -3.9550  0.3969
 3126TIP3   OH230792   2.762   3.570   3.111  0.6184 -0.3299  0.1975
 3126TIP3    H130793   2.789   3.537   3.196  0.4075  0.2383  0.4906
 3126TIP3    H230794   2.824   3.530   3.049  0.7320 -0.7916  0.6070
 3127TIP3   OH230795   0.977   2.999   4.473  0.5025 -0.3835  0.1202
 3127TIP3    H130796   0.953   3.050   4.551  4.6892 -0.6114  1.8519
 3127TIP3    H230797   1.050   3.048   4.436  0.5151 -1.8831 -1.9583
 3128TIP3   OH230798   6.163   2.589   5.967 -0.5075  0.4540  0.1315
 3128TIP3    H130799   6.116   2.647   6.027 -1.0480  0.5825 -0.4042
 3128TIP3    H230800   6.129   2.502   5.986 -0.0708  0.3847  0.5847
 3129TIP3   OH230801   1.611   3.399  16.957  0.1150  0.0091 -0.3978
 3129TIP3    H130802   1.583   3.400  16.866  0.8496 -3.7782 -0.8363
 3129TIP3    H230803   1.581   3.483  16.993 -2.8408  0.3937 -3.3093
 3130TIP3   OH230804   2.381   0.437   1.053 -0.3881 -0.6394  0.3848
 3130TIP3    H130805   2.349   0.464   0.967 -0.7131  0.0634  0.7200
 3130TIP3    H230806   2.303   0.436   1.109  0.3048  2.5028  1.5703
 3131TIP3   OH230807   4.024   3.147  11.848  0.1686  0.7637 -0.2250
 3131TIP3    H130808   3.972   3.093  11.788 -2.9777 -2.5201  4.6218
 3131TIP3    H230809   4.084   3.085  11.889 -1.2843  1.4282  3.2823
 3132TIP3   OH230810   3.555   0.589  11.561  0.7306  0.3932 -0.2286
 3132TIP3    H130811   3.559   0.566  11.654  0.6422  1.9212  0.1803
 3132TIP3    H230812   3.624   0.655  11.550 -0.3983  1.5066 -0.8415
 3133TIP3   OH230813   1.078   2.233  14.202  0.1006 -0.1213 -0.0272
 3133TIP3    H130814   1.152   2.241  14.142  2.4291 -2.4181  2.2448
 3133TIP3    H230815   1.077   2.317  14.249 -0.4463  0.9025 -1.7847
 3134TIP3   OH230816   6.646   5.777  11.645 -0.7905  0.2076  0.5198
 3134TIP3    H130817   6.635   5.771  11.740 -0.5728  2.9385  0.8160
 3134TIP3    H230818   6.734   5.814  11.633  0.5177 -2.9615 -0.9721
 3135TIP3   OH230819   1.283   6.280  16.100  0.0566  0.0858 -0.0409
 3135TIP3    H130820   1.230   6.209  16.137 -1.2540  1.0895  0.0952
 3135TIP3    H230821   1.357   6.288  16.160 -0.2012 -0.6298  0.3866
 3136TIP3   OH230822   4.351   1.675   4.645 -0.4237 -0.0345  0.0193
 3136TIP3    H130823   4.276   1.734   4.655 -1.8733 -1.8379  0.4270
 3136TIP3    H230824   4.375   1.683   4.553 -1.3983  0.2979 -0.2210
 3137TIP3   OH230825   4.509   4.019  12.774 -0.7602 -0.0260 -0.2849
 3137TIP3    H130826   4.573   3.959  12.736 -1.3395 -2.0084  1.6410
 3137TIP3    H230827   4.522   4.102  12.727  1.2787 -1.1491 -1.8454
 3138TIP3   OH230828   1.407   5.950  10.778  0.2546 -0.0460 -0.2603
 3138TIP3    H130829   1.416   5.926  10.870 -0.1079  1.1418  0.0945
 3138TIP3    H230830   1.338   5.891  10.746 -1.8874  1.5954  1.0538
 3139TIP3   OH230831   3.972   1.944   2.243 -0.3638  0.0559 -0.0489
 3139TIP3    H130832   4.014   1.998   2.176  2.0996 -0.5426  0.9128
 3139TIP3    H230833   4.030   1.869   2.254 -0.4630  0.2812  2.9557
 3140TIP3   OH230834   4.145   3.634  15.757 -0.5846 -0.3330  0.6999
 3140TIP3    H130835   4.097   3.610  15.679 -0.0338 -0.5749  0.4273
 3140TIP3    H230836   4.183   3.552  15.788 -0.0990 -0.1005  0.7331
 3141TIP3   OH230837   5.166   3.872  10.871  0.1086  0.1302  0.1478
 3141TIP3    H130838   5.170   3.779  10.853  0.1096  0.4166 -1.4313
 3141TIP3    H230839   5.245   3.908  10.832  0.1461  0.7947  0.8098
 3142TIP3   OH230840   0.466   3.306   4.505 -0.0260 -0.0315 -0.3986
 3142TIP3    H130841   0.544   3.358   4.524 -0.5964  0.6659  0.0787
 3142TIP3    H230842   0.449   3.321   4.411  0.9339 -0.9242 -0.7289
 3143TIP3   OH230843   0.742   0.610   0.167  0.5133  0.1830  0.3413
 3143TIP3    H130844   0.820   0.663   0.153 -0.4040  1.5177  0.0740
 3143TIP3    H230845   0.689   0.660   0.229 -0.8517  0.1296 -0.7235
 3144TIP3   OH230846   0.467   4.892  13.385 -0.2404  0.1801  0.0201
 3144TIP3    H130847   0.460   4.800  13.360  0.6330 -0.2687  1.3164
 3144TIP3    H230848   0.423   4.897  13.470 -1.0443  1.1517 -0.4430
 3145TIP3   OH230849   1.117   2.318  12.404 -0.5354 -0.4082 -0.4807
 3145TIP3    H130850   1.202   2.351  12.434 -1.3068  0.5412  0.7514
 3145TIP3    H230851   1.137   2.272  12.323  1.1861 -0.3628 -0.1270
 3146TIP3   OH230852   3.107   4.417  17.160  0.7345  0.5225 -1.1434
 3146TIP3    H130853   3.023   4.461  17.171  0.8681  1.1783 -2.5934
 3146TIP3    H230854   3.146   4.419  17.248 -1.3565 -1.1401 -0.0816
 3147TIP3   OH230855   1.886   2.176  16.252 -0.1773  0.0676 -0.1448
 3147TIP3    H130856   1.893   2.083  16.230  0.1668 -0.4616  1.9348
 3147TIP3    H230857   1.794   2.187  16.276 -0.4335  0.5093 -1.2788
 3148TIP3   OH230858   0.627   2.643  10.945 -0.2930 -0.5259  0.2735
 3148TIP3    H130859   0.707   2.653  10.893  0.2866 -0.6264  1.1315
 3148TIP3    H230860   0.585   2.729  10.941 -1.0599 -0.9467 -1.6252
 3149TIP3   OH230861   2.378   0.644  11.904  0.4412  0.6260 -0.3388
 3149TIP3    H130862   2.421   0.644  11.818  1.2450 -0.1821  0.0544
 3149TIP3    H230863   2.388   0.554  11.936 -0.7778  0.6465  0.1495
 3150TIP3   OH230864   2.238   2.634  14.045  0.4624  0.1764 -0.1777
 3150TIP3    H130865   2.171   2.582  14.089  0.9240  0.0028  0.3364
 3150TIP3    H230866   2.190   2.705  14.002 -0.0753 -0.1219 -0.0728
 3151TIP3   OH230867   3.422   4.044   5.379 -0.1476 -0.0755 -0.0828
 3151TIP3    H130868   3.397   4.117   5.322 -0.4338  0.4182  0.6490
 3151TIP3    H230869   3.515   4.060   5.397 -0.4204  0.6478  0.8020
 3152TIP3   OH230870   1.787   6.015  14.542 -0.2008  0.2606  0.2960
 3152TIP3    H130871   1.737   5.934  14.531  0.1508  0.3267 -2.6278
 3152TIP3    H230872   1.877   5.985  14.555  0.3345  0.0406 -3.0863
 3153TIP3   OH230873   2.885   5.041   5.518  0.3100 -0.0037  0.4346
 3153TIP3    H130874   2.873   4.995   5.434  2.3601 -2.0314  1.1327
 3153TIP3    H230875   2.932   5.121   5.495 -0.9312  0.4936 -0.5260
 3154TIP3   OH230876   4.693   3.210  17.079 -0.3181 -0.0898  0.2571
 3154TIP3    H130877   4.721   3.298  17.054 -2.1894  0.1787 -1.0870
 3154TIP3    H230878   4.628   3.225  17.148 -0.9852 -0.3564 -0.2985
 3155TIP3   OH230879   1.009   5.932   0.273  0.0244  0.2752  0.1583
 3155TIP3    H130880   1.066   6.006   0.254 -0.2676  0.1752 -1.2535
 3155TIP3    H230881   0.938   5.940   0.209  0.0049 -1.2232 -0.0502
 3156TIP3   OH230882   4.515   3.901  14.595 -0.2665  0.5593 -0.4400
 3156TIP3    H130883   4.579   3.955  14.550 -0.1135  1.8344  1.2285
 3156TIP3    H230884   4.430   3.936  14.568 -0.2526 -0.0770 -1.3693
 3157TIP3   OH230885   4.017   2.506  12.471  0.1537 -0.5428  0.0600
 3157TIP3    H130886   4.095   2.559  12.456  0.3521 -0.4253  1.3651
 3157TIP3    H230887   3.956   2.565  12.516 -1.1558 -0.2912 -1.9231
 3158TIP3   OH230888   6.206   2.308  17.145 -0.2814  0.1049 -0.3144
 3158TIP3    H130889   6.258   2.292  17.066  2.6246 -0.7109  1.6260
 3158TIP3    H230890   6.252   2.378  17.191 -2.7680  1.6496  0.0420
 3159TIP3   OH230891   5.429   5.720   6.304  0.4757  0.1111 -0.2576
 3159TIP3    H130892   5.447   5.733   6.398  0.0955  2.6403 -0.4526
 3159TIP3    H230893   5.335   5.703   6.300  0.8403 -2.2845 -0.0687
 3160TIP3   OH230894   1.910   0.908   5.023 -0.0479  0.3218  0.0070
 3160TIP3    H130895   1.896   1.003   5.027  2.8862  0.9103 -0.8440
 3160TIP3    H230896   1.963   0.889   5.101 -1.0018 -0.7414  0.4167
 3161TIP3   OH230897   3.425   6.504   0.698 -0.4978  0.4849 -0.1496
 3161TIP3    H130898   3.366   6.532   0.769 -0.8306  0.9354 -0.5956
 3161TIP3    H230899   3.513   6.512   0.735 -0.5863  2.0314 -0.2101
 3162TIP3   OH230900   5.766   3.656  15.882 -0.6656 -0.2183  0.8614
 3162TIP3    H130901   5.841   3.625  15.830  0.3682 -2.5515  3.4493
 3162TIP3    H230902   5.763   3.750  15.865  1.2993 -0.4156 -1.2061
 3163TIP3   OH230903   0.824   6.023   4.278 -0.3118 -0.1451  0.0170
 3163TIP3    H130904   0.766   6.036   4.203  0.0415 -0.4739 -0.3170
 3163TIP3    H230905   0.906   6.066   4.253 -1.1867  2.6915  1.5452
 3164TIP3   OH230906   2.293   2.228   5.954 -0.4085 -0.2732  0.2318
 3164TIP3    H130907   2.216   2.214   6.009 -1.2616  1.1780 -0.5208
 3164TIP3    H230908   2.333   2.142   5.946 -1.7028 -0.9827  1.0035
 3165TIP3   OH230909   0.880   3.677  13.189 -0.2522 -0.5471 -0.1985
 3165TIP3    H130910   0.877   3.611  13.119 -1.2774 -0.0311 -0.6609
 3165TIP3    H230911   0.957   3.730  13.169  0.5520 -1.5403  0.1407
 3166TIP3   OH230912   4.953   3.522  15.066  0.4181  0.1515  0.5331
 3166TIP3    H130913   4.925   3.559  14.982  1.2064  1.2504  0.7276
 3166TIP3    H230914   5.048   3.513  15.057  0.3389 -1.1025  0.7969
 3167TIP3   OH230915   5.201   6.388   3.346  0.1677 -0.1993  0.2100
 3167TIP3    H130916   5.171   6.344   3.267 -0.6137 -0.1178  0.4593
 3167TIP3    H230917   5.286   6.426   3.321 -1.1986  2.0331 -1.3826
 3168TIP3   OH230918   5.331   6.093  13.227 -0.0285 -0.0412  0.1402
 3168TIP3    H130919   5.351   6.000  13.244  0.1502 -0.0882 -0.3007
 3168TIP3    H230920   5.262   6.114  13.289 -0.5706 -0.6717 -0.2260
 3169TIP3   OH230921   1.543   2.691  12.113 -0.1607  0.2284  0.2365
 3169TIP3    H130922   1.557   2.783  12.093  0.3551 -0.3063 -2.1565
 3169TIP3    H230923   1.452   2.675  12.088 -0.6363  0.3245  1.7979
 3170TIP3   OH230924   3.235   3.849   2.862 -0.5651 -0.3572 -0.5138
 3170TIP3    H130925   3.198   3.915   2.920  0.0499  0.0604 -0.5863
 3170TIP3    H230926   3.264   3.779   2.921 -1.9344 -0.9374 -0.4975
 3171TIP3   OH230927   1.695   3.023   6.349 -0.0828 -0.4587  0.3148
 3171TIP3    H130928   1.632   2.984   6.289  0.6990 -2.2511  0.5976
 3171TIP3    H230929   1.642   3.079   6.406 -1.1884 -0.7433 -0.4075
 3172TIP3   OH230930   3.799   4.568  15.376  0.4820 -0.4245 -0.5341
 3172TIP3    H130931   3.724   4.524  15.337  0.3077 -0.6925  0.0952
 3172TIP3    H230932   3.812   4.646  15.322 -0.8770  0.1532 -0.0481
 3173TIP3   OH230933   0.913   1.644  12.802  0.2057 -0.1494  0.2454
 3173TIP3    H130934   0.836   1.627  12.856  0.1568  0.6348  0.4345
 3173TIP3    H230935   0.920   1.568  12.744 -0.2355 -0.6007  0.7800
 3174TIP3   OH230936   0.187   2.676   1.092  0.2575  0.1827 -0.0103
 3174TIP3    H130937   0.258   2.732   1.058 -0.4702  2.6820  2.2642
 3174TIP3    H230938   0.232   2.599   1.126  1.6986  0.8543 -0.3068
 3175TIP3   OH230939   3.179   2.244  15.736  0.1006 -0.5574 -0.2269
 3175TIP3    H130940   3.163   2.206  15.822  0.8602  1.4081  0.8491
 3175TIP3    H230941   3.120   2.197  15.677 -1.6400 -0.8503  1.6475
 3176TIP3   OH230942   1.423   1.160   0.443 -0.2621  0.2045  0.0347
 3176TIP3    H130943   1.456   1.124   0.360 -0.4174  2.2930 -0.9811
 3176TIP3    H230944   1.487   1.132   0.508 -1.1358 -3.1816 -0.3320
 3177TIP3   OH230945   4.111   3.944  15.504 -0.0723 -0.1226  0.6628
 3177TIP3    H130946   4.168   3.990  15.442 -0.3618 -0.4551  0.1496
 3177TIP3    H230947   4.055   3.889  15.450  0.4919 -1.3505  1.2932
 3178TIP3   OH230948   6.545   4.910   6.231 -0.3581  0.2173 -0.2925
 3178TIP3    H130949   6.532   5.002   6.252 -1.0741 -0.2020  1.2578
 3178TIP3    H230950   6.625   4.886   6.276 -1.0475 -0.3005  0.6955
 3179TIP3   OH230951   2.967   0.547   1.836  0.1252  0.7063  0.6110
 3179TIP3    H130952   2.997   0.458   1.854 -1.1019  0.1630  0.1504
 3179TIP3    H230953   2.996   0.564   1.746 -1.0131  0.1199  0.1070
 3180TIP3   OH230954   2.485   6.427   2.444 -0.5037  0.2781 -0.0562
 3180TIP3    H130955   2.560   6.372   2.420 -0.0173  0.0847  1.7607
 3180TIP3    H230956   2.412   6.366   2.451 -0.1198 -0.0779  1.2454
 3181TIP3   OH230957   1.721   1.515   4.820  0.2944  0.3476  0.3139
 3181TIP3    H130958   1.733   1.436   4.766 -0.2708  0.3950  0.1081
 3181TIP3    H230959   1.665   1.485   4.892 -1.3839  0.9280 -0.6788
 3182TIP3   OH230960   3.724   1.877   2.262 -0.2855  0.2569 -0.0223
 3182TIP3    H130961   3.810   1.916   2.243  0.1742 -0.7801 -0.1739
 3182TIP3    H230962   3.744   1.786   2.284 -1.3311  0.0752  0.2236
 3183TIP3   OH230963   6.161   1.187  12.298  0.5535  0.5659  0.3170
 3183TIP3    H130964   6.129   1.099  12.277  0.5242  0.6205  0.1273
 3183TIP3    H230965   6.082   1.241  12.301  0.6613  0.8044 -0.6614
 3184TIP3   OH230966   3.444   2.372   3.299 -0.0052 -0.0583 -0.2672
 3184TIP3    H130967   3.366   2.355   3.246  0.1590  0.6578 -0.7456
 3184TIP3    H230968   3.415   2.435   3.365 -0.6432 -2.1450  1.5835
 3185TIP3   OH230969   3.973   0.017  11.760  0.1376  0.2162  0.0338
 3185TIP3    H130970   3.997   0.100  11.718 -1.9529 -0.0078 -1.8196
 3185TIP3    H230971   3.877   0.020  11.764  0.1440 -0.5017  3.5063
 3186TIP3   OH230972   3.580   4.133   2.552 -0.5597  0.3861  0.4464
 3186TIP3    H130973   3.545   4.191   2.619 -0.5762  1.1688 -0.2248
 3186TIP3    H230974   3.530   4.052   2.563 -0.5656  0.5036  1.3648
 3187TIP3   OH230975   4.072   5.661  11.477 -0.1946 -0.2138 -0.1370
 3187TIP3    H130976   4.146   5.641  11.535 -0.4723  0.5408  0.4887
 3187TIP3    H230977   4.016   5.584  11.482 -0.8621  0.3254  1.6299
 3188TIP3   OH230978   4.062   0.013   0.345  0.3299 -0.0074 -0.2282
 3188TIP3    H130979   4.112  -0.031   0.276 -0.3137 -0.7238 -0.2594
 3188TIP3    H230980   4.038   0.097   0.307 -0.1849 -0.4741 -0.9649
 3189TIP3   OH230981   0.767   0.022   1.789  0.3049 -0.1571 -0.2817
 3189TIP3    H130982   0.685   0.072   1.788 -0.5745 -1.5142 -2.2617
 3189TIP3    H230983   0.755  -0.041   1.860 -0.3030 -0.2107 -0.4224
 3190TIP3   OH230984   4.480   3.567  11.333 -0.9158  0.3693 -0.1653
 3190TIP3    H130985   4.487   3.489  11.388 -2.6086  0.4949  0.2894
 3190TIP3    H230986   4.402   3.612  11.365 -0.9292  1.3772 -1.5083
 3191TIP3   OH230987   1.386   3.525  15.911  0.1986 -0.3055 -0.3441
 3191TIP3    H130988   1.347   3.515  15.824 -0.1594 -0.7962 -0.1343
 3191TIP3    H230989   1.330   3.472  15.969  0.8504 -0.5713  0.0629
 3192TIP3   OH230990   0.537   2.285  15.565 -0.3554 -0.3152  0.1823
 3192TIP3    H130991   0.523   2.264  15.473 -1.4187 -0.7172  0.4228
 3192TIP3    H230992   0.554   2.201  15.607 -0.6828 -0.2315  0.4883
 3193TIP3   OH230993   4.321   4.932  17.130 -0.7545 -0.1382 -0.3279
 3193TIP3    H130994   4.226   4.933  17.119 -0.7705  0.5216 -0.1948
 3193TIP3    H230995   4.336   4.881  17.209 -0.9745 -0.5109 -0.5251
 3194TIP3   OH230996   4.324   5.842   6.061 -0.3714 -0.8421  0.0788
 3194TIP3    H130997   4.283   5.894   6.130  2.1278 -0.8354  1.6810
 3194TIP3    H230998   4.325   5.753   6.095  0.2053 -0.9785 -0.2727
 3195TIP3   OH230999   5.501   2.518  12.209 -0.0968  0.2740 -0.0684
 3195TIP3    H131000   5.585   2.530  12.253  0.0845 -1.4793  0.1546
 3195TIP3    H231001   5.511   2.435  12.161 -1.4391  0.4275 -0.6566
 3196TIP3   OH231002   1.856   4.269  13.227  0.1285 -0.1039  0.0188
 3196TIP3    H131003   1.903   4.210  13.168  0.9172 -1.0671  1.5167
 3196TIP3    H231004   1.814   4.333  13.170  0.9465 -0.9075 -1.5491
 3197TIP3   OH231005   5.696   5.239  15.286  0.2218  0.0762  0.2821
 3197TIP3    H131006   5.638   5.185  15.232 -0.5069  0.7037  0.4254
 3197TIP3    H231007   5.775   5.249  15.233 -0.4248  0.5692 -0.6172
 3198TIP3   OH231008   4.059   5.212   6.329 -0.7964 -0.7686 -0.0259
 3198TIP3    H131009   4.020   5.170   6.405 -0.4569  0.5396  0.9008
 3198TIP3    H231010   3.986   5.260   6.288 -0.3291  1.4230  1.5312
 3199TIP3   OH231011   0.870   0.143  12.970  0.0076 -0.0518  0.2181
 3199TIP3    H131012   0.945   0.096  12.932 -0.6915  0.0133 -1.2924
 3199TIP3    H231013   0.902   0.232  12.981  0.6219 -0.3522  0.9965
 3200TIP3   OH231014   5.385   6.731   1.065  0.5131 -0.2500  0.1775
 3200TIP3    H131015   5.387   6.660   1.128  1.8951 -1.4457 -1.1245
 3200TIP3    H231016   5.425   6.694   0.986 -0.1315  1.5139 -1.0396
 3201TIP3   OH231017   5.284   0.867  15.323 -0.2511 -0.2536 -0.2924
 3201TIP3    H131018   5.300   0.806  15.251 -1.9573  0.8397 -1.6713
 3201TIP3    H231019   5.343   0.941  15.304  2.1893 -1.5430  1.6480
 3202TIP3   OH231020   1.991   6.112  15.227  0.2993 -0.2828 -0.3683
 3202TIP3    H131021   2.059   6.160  15.274 -0.3991  2.8110 -2.2422
 3202TIP3    H231022   1.931   6.082  15.296  2.2692 -1.0841  1.1083
 3203TIP3   OH231023   3.691   0.786  14.578  0.4553  0.6892  0.2494
 3203TIP3    H131024   3.623   0.842  14.542  0.7532  0.4321 -0.7403
 3203TIP3    H231025   3.727   0.836  14.651 -0.0832  1.2700  0.1270
 3204TIP3   OH231026   3.627   6.526   6.930 -0.3916 -0.0251 -0.2033
 3204TIP3    H131027   3.591   6.544   6.843 -0.2204  2.3607  0.1469
 3204TIP3    H231028   3.713   6.488   6.912 -0.8213 -0.6357 -1.0505
 3205TIP3   OH231029   2.027   1.440   0.442  0.1481 -0.2027 -0.3427
 3205TIP3    H131030   2.028   1.470   0.533 -0.4082  1.0513 -0.7284
 3205TIP3    H231031   1.937   1.456   0.413 -0.1297 -2.0799 -0.6548
 3206TIP3   OH231032   6.135   0.486  13.182 -0.4173 -0.6883  0.9497
 3206TIP3    H131033   6.107   0.396  13.201 -0.6748 -1.1740 -1.3585
 3206TIP3    H231034   6.211   0.475  13.125 -2.8190  0.3509 -2.8229
 3207TIP3   OH231035   6.272   2.771   5.626 -0.3179 -0.1402  0.3005
 3207TIP3    H131036   6.202   2.798   5.686 -1.8144 -0.4442 -1.2076
 3207TIP3    H231037   6.328   2.848   5.619 -0.6064  0.1923  1.3830
 3208TIP3   OH231038   0.982   6.304   5.387  0.0214 -0.9638  0.9769
 3208TIP3    H131039   1.035   6.372   5.345 -1.4400 -0.1699  0.3479
 3208TIP3    H231040   1.005   6.223   5.342  0.4480 -0.5716  0.4792
 3209TIP3   OH231041   4.191   3.682  14.256 -0.1324  0.1566  0.1328
 3209TIP3    H131042   4.197   3.659  14.164 -2.3753  1.5558 -0.4420
 3209TIP3    H231043   4.242   3.762  14.264  0.1897 -0.0492  0.1467
 3210TIP3   OH231044   3.370   5.510  10.656 -0.1134  0.2012  0.0248
 3210TIP3    H131045   3.283   5.536  10.629  0.0198 -0.8852 -1.6053
 3210TIP3    H231046   3.364   5.501  10.752 -1.4464  1.2549  0.0648
 3211TIP3   OH231047   3.475   0.049   4.716 -0.2272 -0.2193 -0.3594
 3211TIP3    H131048   3.514   0.103   4.785  1.6784 -2.8270  0.7527
 3211TIP3    H231049   3.386   0.033   4.747  0.0290  0.1305  0.6073
 3212TIP3   OH231050   6.157   1.625  12.634 -0.4896  0.0693  0.2138
 3212TIP3    H131051   6.142   1.624  12.539 -1.1778  1.5633  0.2719
 3212TIP3    H231052   6.140   1.716  12.659  0.3110 -0.1663  1.6785
 3213TIP3   OH231053   2.877   3.433  13.111  0.0617  0.4532  0.7887
 3213TIP3    H131054   2.862   3.524  13.086 -1.5844  0.1195  0.4767
 3213TIP3    H231055   2.948   3.404  13.054 -1.1792  0.7789 -0.9969
 3214TIP3   OH231056   2.864   0.923  12.045 -0.2293  0.5143  0.0199
 3214TIP3    H131057   2.799   0.977  12.089  1.4684  1.6692  1.2200
 3214TIP3    H231058   2.937   0.982  12.026  0.1349 -0.5095 -2.1695
 3215TIP3   OH231059   5.147   6.726   3.347  0.4418 -0.1191  0.4156
 3215TIP3    H131060   5.219   6.675   3.384  1.0020  0.0776 -0.3832
 3215TIP3    H231061   5.173   6.818   3.360  1.3178 -0.0141 -1.6393
 3216TIP3   OH231062   1.751   2.203   4.690  0.0379 -0.3352 -0.3200
 3216TIP3    H131063   1.720   2.113   4.696  0.5037 -0.5019 -0.3781
 3216TIP3    H231064   1.748   2.235   4.781 -1.2689 -0.0105 -0.4536
 3217TIP3   OH231065   0.451   0.891  14.755  0.5664  0.1426  0.3698
 3217TIP3    H131066   0.362   0.881  14.787  0.8869 -1.7879  0.7933
 3217TIP3    H231067   0.447   0.863  14.663  1.0933 -2.2418  0.9987
 3218TIP3   OH231068   4.955   3.805   2.499 -0.3800  0.0320 -0.2144
 3218TIP3    H131069   5.050   3.817   2.495 -0.3034  0.1546  1.2504
 3218TIP3    H231070   4.921   3.853   2.423  0.7236 -0.0547 -0.7778
 3219TIP3   OH231071   4.294   4.682  14.377 -0.1233 -0.0793 -0.5630
 3219TIP3    H131072   4.230   4.662  14.309 -0.5714 -2.3862  0.4379
 3219TIP3    H231073   4.243   4.717  14.450 -0.1596 -0.9758 -0.1364
 3220TIP3   OH231074   1.429   3.199  13.122 -0.2510 -0.1958  0.2082
 3220TIP3    H131075   1.446   3.194  13.028 -1.4173  1.3674 -0.1256
 3220TIP3    H231076   1.414   3.292  13.138  1.2772 -0.2248  2.2075
 3221TIP3   OH231077   6.710   0.316   2.862 -0.6070  0.3172 -0.1821
 3221TIP3    H131078   6.639   0.257   2.888 -0.5743  1.4192  2.8584
 3221TIP3    H231079   6.667   0.382   2.807 -2.0570  1.0267  1.7003
 3222TIP3   OH231080   3.557   0.343   5.106  0.0978  0.3828 -0.3405
 3222TIP3    H131081   3.529   0.294   5.183 -0.4432  0.5843 -0.4057
 3222TIP3    H231082   3.491   0.412   5.096  1.8165  2.3186  0.8466
 3223TIP3   OH231083   6.385   4.113  10.712 -0.5039 -0.4814 -0.0299
 3223TIP3    H131084   6.355   4.030  10.751  0.9549 -0.9142  0.2357
 3223TIP3    H231085   6.468   4.091  10.670 -0.6498  0.6200 -0.9319
 3224TIP3   OH231086   4.144   0.405   5.585 -0.1439  0.5553  0.5360
 3224TIP3    H131087   4.189   0.369   5.661 -1.7722  0.0612  1.2976
 3224TIP3    H231088   4.063   0.443   5.620 -0.7779  0.5986 -0.9020
 3225TIP3   OH231089   2.542   6.258  15.429 -0.0400  0.2938 -0.5833
 3225TIP3    H131090   2.597   6.183  15.452 -0.3497  0.4810  0.8994
 3225TIP3    H231091   2.579   6.330  15.480 -0.7856  0.7427 -0.6763
 3226TIP3   OH231092   6.139   5.163  17.161 -0.0238  0.7917  0.1602
 3226TIP3    H131093   6.075   5.099  17.131  1.5306 -1.1178  0.6803
 3226TIP3    H231094   6.121   5.173  17.255  2.2153 -2.1688  1.0648
 3227TIP3   OH231095   0.696   0.756  14.832 -0.3311  0.2512  0.2235
 3227TIP3    H131096   0.635   0.814  14.787 -0.3161 -0.4431 -0.7322
 3227TIP3    H231097   0.644   0.680  14.856 -0.2683  0.4846  1.1374
 3228TIP3   OH231098   4.896   4.855  14.482 -0.4014  0.1722 -0.3669
 3228TIP3    H131099   4.910   4.915  14.409 -3.2502  0.6054 -0.6799
 3228TIP3    H231100   4.879   4.770  14.441 -1.2377  0.2481 -0.1916
 3229TIP3   OH231101   4.982   3.275   6.281  0.1927  0.6482 -0.8491
 3229TIP3    H131102   4.922   3.219   6.330  0.7797 -0.0057 -0.8551
 3229TIP3    H231103   4.925   3.334   6.231 -0.4082  1.1440  0.4001
 3230TIP3   OH231104   6.647   6.150   0.855 -0.1819  0.3006 -0.1078
 3230TIP3    H131105   6.692   6.165   0.772 -1.1459  0.6520 -0.5849
 3230TIP3    H231106   6.557   6.179   0.839 -0.3137  0.6480  1.1494
 3231TIP3   OH231107   0.041   0.090  15.442 -0.4681 -0.4674 -0.3243
 3231TIP3    H131108   0.038   0.079  15.347  0.7137 -0.4510 -0.3766
 3231TIP3    H231109  -0.016   0.020  15.476 -1.7291  0.1574 -1.0597
 3232TIP3   OH231110   6.676   2.035  13.735  1.0871 -0.0735  0.0535
 3232TIP3    H131111   6.711   1.950  13.709 -0.5095 -0.3480 -1.3679
 3232TIP3    H231112   6.695   2.092  13.660  0.8046  0.4282  0.3591
 3233TIP3   OH231113   4.667   4.851  14.876  0.1754  0.0568 -0.4261
 3233TIP3    H131114   4.684   4.764  14.840  1.5101  0.0401  0.1829
 3233TIP3    H231115   4.715   4.911  14.819  1.7646  0.0852  0.8515
 3234TIP3   OH231116   0.707   6.308   3.170 -0.2090 -0.4507 -0.1773
 3234TIP3    H131117   0.766   6.380   3.193 -0.5999  0.7444 -2.5202
 3234TIP3    H231118   0.620   6.346   3.177 -0.6036 -1.5620  1.2011
 3235TIP3   OH231119   2.134   4.838   4.465  0.1795 -0.4444  0.1795
 3235TIP3    H131120   2.175   4.759   4.500 -0.4045 -0.7494  0.1988
 3235TIP3    H231121   2.084   4.874   4.539  0.8674  0.2514  0.3256
 3236TIP3   OH231122   6.327   3.161  13.622 -0.1986 -0.3961 -0.2388
 3236TIP3    H131123   6.348   3.108  13.546 -0.2797 -0.4180 -0.2467
 3236TIP3    H231124   6.411   3.185  13.660 -0.0676  1.6164 -1.6885
 3237TIP3   OH231125   4.625   1.859   1.492 -0.2392  0.1954 -0.4123
 3237TIP3    H131126   4.534   1.877   1.515 -0.2006  0.1486 -0.2280
 3237TIP3    H231127   4.625   1.768   1.460 -0.7273  0.9575 -2.8244
 3238TIP3   OH231128   5.159   1.426  17.285 -0.0906 -0.5150 -0.9251
 3238TIP3    H131129   5.178   1.371  17.361 -0.6233  0.6888  0.0961
 3238TIP3    H231130   5.088   1.379  17.240  1.1297 -1.9274 -1.4608
 3239TIP3   OH231131   1.325   3.339  12.521  0.2211  0.3545 -0.7028
 3239TIP3    H131132   1.300   3.274  12.455 -0.5334  0.1864 -0.2696
 3239TIP3    H231133   1.323   3.422  12.474  1.7509  0.0356 -1.4090
 3240TIP3   OH231134   0.317   0.499  16.721  0.1583  0.3867 -0.3839
 3240TIP3    H131135   0.374   0.539  16.656  0.0643 -0.2455 -0.8647
 3240TIP3    H231136   0.364   0.421  16.750  0.6773  1.2136  1.0918
 3241TIP3   OH231137   1.174   4.845  12.361  0.1091  0.3211 -0.6102
 3241TIP3    H131138   1.258   4.828  12.319 -0.9586  0.6631 -3.1138
 3241TIP3    H231139   1.147   4.931  12.328 -0.8734  0.5839  0.7711
 3242TIP3   OH231140   1.692   1.846   2.437 -0.1326  0.4149 -0.7154
 3242TIP3    H131141   1.685   1.903   2.360  0.0775  2.7058  0.8638
 3242TIP3    H231142   1.623   1.876   2.496  1.1454  0.3293  0.9207
 3243TIP3   OH231143   4.519   6.169   1.839  0.4423 -0.0679 -0.3218
 3243TIP3    H131144   4.504   6.190   1.747  0.2939 -0.3711 -0.3686
 3243TIP3    H231145   4.480   6.083   1.850  0.5058 -0.0537  0.0139
 3244TIP3   OH231146   1.432   3.336   5.374 -0.4587  0.2509  0.3188
 3244TIP3    H131147   1.491   3.403   5.409  0.1096  0.4631 -1.0039
 3244TIP3    H231148   1.410   3.367   5.286 -2.5810  0.1949  0.7649
 3245TIP3   OH231149   1.080   4.194   5.541 -0.5694 -0.0690 -0.2152
 3245TIP3    H131150   1.112   4.270   5.492 -3.4336  0.9231 -0.7076
 3245TIP3    H231151   1.009   4.228   5.595 -1.9452 -2.3807 -0.4506
 3246TIP3   OH231152   5.638   0.230  10.303 -0.0281  0.5087 -0.1323
 3246TIP3    H131153   5.675   0.277  10.377  0.0092  2.5386 -1.3754
 3246TIP3    H231154   5.713   0.189  10.260  0.0484  0.0013  0.4740
 3247TIP3   OH231155   0.016   6.036  14.536  0.3130  0.6305 -0.0210
 3247TIP3    H131156   0.004   6.064  14.445 -1.4673 -2.4064 -0.8690
 3247TIP3    H231157  -0.061   6.069  14.581 -1.7976 -2.4550 -1.0252
 3248TIP3   OH231158   6.387   0.043   1.202 -0.0516 -0.0182  0.1481
 3248TIP3    H131159   6.470   0.089   1.217  0.2573 -0.9257  1.4122
 3248TIP3    H231160   6.386   0.027   1.108  0.9532  0.4859  0.0309
 3249TIP3   OH231161   6.041   4.067   3.214  0.7620 -0.3445  0.5146
 3249TIP3    H131162   6.073   4.014   3.141  0.8252 -0.5381  0.6823
 3249TIP3    H231163   6.119   4.094   3.261  0.9288  1.7222 -0.7880
 3250TIP3   OH231164   2.238   5.564  17.044 -0.1943  0.4731  0.7341
 3250TIP3    H131165   2.214   5.528  16.959 -2.2463  2.8216  0.2121
 3250TIP3    H231166   2.312   5.510  17.073  0.3372 -0.6278 -2.3349
 3251TIP3   OH231167   3.838   3.158  10.738 -0.1067  0.1930 -0.3087
 3251TIP3    H131168   3.865   3.215  10.666  1.1591 -0.1902 -0.1675
 3251TIP3    H231169   3.844   3.070  10.702 -2.2233  0.1155 -0.5791
 3252TIP3   OH231170   1.896   3.005   3.023  0.6869 -0.2189 -0.0560
 3252TIP3    H131171   1.833   3.069   3.056 -0.8700 -1.4191 -0.6086
 3252TIP3    H231172   1.857   2.972   2.942  1.4121 -1.9017  0.2430
 3253TIP3   OH231173   3.206   3.237   2.714  0.1971 -0.3139  0.2876
 3253TIP3    H131174   3.286   3.263   2.759 -0.2049  0.3077  0.6607
 3253TIP3    H231175   3.165   3.319   2.689 -0.1990 -0.6323 -0.1264
 3254TIP3   OH231176   5.079   3.592   3.785  0.5467 -0.6001  0.0046
 3254TIP3    H131177   5.017   3.540   3.836  1.3454 -0.1612  1.5069
 3254TIP3    H231178   5.094   3.670   3.839 -0.4604  1.1143 -2.0734
 3255TIP3   OH231179   5.469   4.635   2.871 -0.6056 -0.5176 -0.3977
 3255TIP3    H131180   5.444   4.726   2.856 -0.9585 -0.3700  0.9418
 3255TIP3    H231181   5.559   4.629   2.838 -0.4571  0.4049 -0.2070
 3256TIP3   OH231182   1.518   1.631  15.688  0.1183  0.2541  0.2560
 3256TIP3    H131183   1.513   1.692  15.761  3.5774  0.8058  0.2292
 3256TIP3    H231184   1.474   1.677  15.616 -0.7087  0.9976  1.2039
 3257TIP3   OH231185   3.628   0.065  13.178  0.1202 -0.8517 -0.1008
 3257TIP3    H131186   3.605   0.156  13.195 -1.1773 -1.4166  1.3591
 3257TIP3    H231187   3.669   0.066  13.091 -0.7026  0.9722 -0.5015
 3258TIP3   OH231188   3.751   4.912  14.008  0.3881 -0.0759  0.0136
 3258TIP3    H131189   3.699   4.846  13.963  0.4503 -0.8170  0.9752
 3258TIP3    H231190   3.688   4.978  14.035  0.0051 -0.6877  0.6743
 3259TIP3   OH231191   3.154   3.842   5.196  0.3818 -0.3093 -0.1699
 3259TIP3    H131192   3.173   3.773   5.259 -1.7773 -1.0734 -0.2754
 3259TIP3    H231193   3.239   3.866   5.160  1.7577  0.3443  3.1546
 3260TIP3   OH231194   4.566   3.728  16.257 -0.2481  0.6492 -0.2508
 3260TIP3    H131195   4.641   3.783  16.234  0.0280  0.9606  1.2783
 3260TIP3    H231196   4.605   3.649  16.295 -0.6625  0.9685  0.8936
 3261TIP3   OH231197   2.943   4.598  16.800  0.3242  0.1965  0.1361
 3261TIP3    H131198   2.892   4.527  16.761 -0.3671  0.1823  1.0477
 3261TIP3    H231199   3.010   4.555  16.852  2.1603  0.1913 -2.0860
 3262TIP3   OH231200   0.308   6.709   5.812  0.9415 -0.2328  0.3308
 3262TIP3    H131201   0.318   6.736   5.903 -2.6528  0.5784  0.6461
 3262TIP3    H231202   0.290   6.615   5.816 -0.9712  0.1056  0.7261
 3263TIP3   OH231203   1.799   1.556  14.471 -0.0278  0.5512  0.1719
 3263TIP3    H131204   1.765   1.645  14.462 -1.7125  0.0179  0.9014
 3263TIP3    H231205   1.736   1.512  14.528 -0.1800 -1.5999 -1.5291
 3264TIP3   OH231206   4.224   4.966   4.416  0.2327 -0.4646 -0.2255
 3264TIP3    H131207   4.158   5.018   4.462  0.4731 -1.7642  1.7267
 3264TIP3    H231208   4.305   5.016   4.427  0.6197 -1.4773  2.3094
 3265TIP3   OH231209   4.877   5.756  12.162  0.2377  0.5481  0.0384
 3265TIP3    H131210   4.843   5.840  12.132  1.5773  1.2320  0.3756
 3265TIP3    H231211   4.938   5.728  12.094 -0.5207 -0.3811 -0.2837
 3266TIP3   OH231212   2.465   2.783   0.297 -0.1634  0.4945 -0.4601
 3266TIP3    H131213   2.518   2.860   0.280 -0.3076  0.8724  0.7018
 3266TIP3    H231214   2.490   2.721   0.228  1.6127  0.7389 -0.0843
 3267TIP3   OH231215   5.230   1.966   3.308  0.3674  0.1712  0.3218
 3267TIP3    H131216   5.312   1.988   3.352  0.8604 -0.3747 -0.3031
 3267TIP3    H231217   5.254   1.898   3.245 -0.7223 -0.6101  0.7171
 3268TIP3   OH231218   3.228   2.258  13.211  0.2860  0.2677  0.2479
 3268TIP3    H131219   3.167   2.269  13.138  2.3340 -0.6131 -1.7019
 3268TIP3    H231220   3.231   2.343  13.253 -2.2338  0.3452  0.4174
 3269TIP3   OH231221   4.138   0.758   0.127 -0.7003  0.1127  0.1517
 3269TIP3    H131222   4.088   0.822   0.177 -0.5345 -0.7639  1.4802
 3269TIP3    H231223   4.215   0.740   0.181  0.5397  0.6498 -1.3728
 3270TIP3   OH231224   6.462   3.059   3.517 -0.0654  0.4123 -0.1508
 3270TIP3    H131225   6.376   3.018   3.513  0.0547  0.0879  0.4637
 3270TIP3    H231226   6.491   3.063   3.426  0.0149 -1.0889 -0.2134
 3271TIP3   OH231227   3.551   3.724   1.722  0.1267  0.2236 -0.3615
 3271TIP3    H131228   3.568   3.809   1.762 -0.2440  0.8222 -1.4524
 3271TIP3    H231229   3.638   3.688   1.705  0.2835  0.3189  0.2020
 3272TIP3   OH231230   2.192   4.487  11.367 -0.0127  0.0667  0.2279
 3272TIP3    H131231   2.109   4.464  11.324 -0.7864  2.6878  0.1603
 3272TIP3    H231232   2.253   4.419  11.337 -1.0584  0.4485 -3.2519
 3273TIP3   OH231233   1.008   4.098   1.266 -0.2717 -0.1281 -0.2767
 3273TIP3    H131234   1.073   4.150   1.219  1.5031  0.1576  2.3280
 3273TIP3    H231235   1.032   4.007   1.247  0.6859 -0.0224  0.3666
 3274TIP3   OH231236   2.022   6.143  12.004 -0.4631  0.2101 -0.1654
 3274TIP3    H131237   2.041   6.224  11.956 -2.3671  0.4037 -0.6708
 3274TIP3    H231238   2.055   6.158  12.092  0.1440  1.1197 -0.5390
 3275TIP3   OH231239   2.837   5.276   1.720  0.2796 -0.1909  0.5684
 3275TIP3    H131240   2.891   5.240   1.650  0.0670 -0.3475  0.4867
 3275TIP3    H231241   2.747   5.268   1.689  0.1635 -0.5344  0.9803
 3276TIP3   OH231242   5.461   3.611  13.954  0.0777  0.4675 -0.6045
 3276TIP3    H131243   5.553   3.616  13.930  0.0155  1.4060 -0.7008
 3276TIP3    H231244   5.423   3.693  13.922 -1.1494 -0.6024 -2.0172
 3277TIP3   OH231245   0.880   2.369   1.695  0.0467 -0.3127  0.0819
 3277TIP3    H131246   0.965   2.358   1.653 -0.3920  2.8482 -1.9194
 3277TIP3    H231247   0.823   2.304   1.652  1.2684 -2.2848  1.2794
 3278TIP3   OH231248   2.762   2.229  12.650 -0.2848 -0.0415  0.4848
 3278TIP3    H131249   2.747   2.219  12.556  0.3656  1.1033  0.2464
 3278TIP3    H231250   2.762   2.139  12.683 -2.0848 -0.3876 -0.3402
 3279TIP3   OH231251   2.839   4.105  11.874  0.2422 -0.5140  0.7457
 3279TIP3    H131252   2.795   4.029  11.836 -0.5228 -0.8401  2.2080
 3279TIP3    H231253   2.928   4.075  11.891  0.3324 -0.6448  0.0450
 3280TIP3   OH231254   0.773   5.781   4.825  0.2685  0.0982 -0.1321
 3280TIP3    H131255   0.783   5.686   4.819  0.1263  0.0497  0.3714
 3280TIP3    H231256   0.679   5.796   4.827  0.2084  0.0220  2.7654
 3281TIP3   OH231257   4.682   5.659   5.372 -0.4624 -0.0543 -0.1135
 3281TIP3    H131258   4.774   5.641   5.350 -1.0097 -1.0840 -1.6719
 3281TIP3    H231259   4.684   5.679   5.466  1.3621  0.0477 -0.1361
 3282TIP3   OH231260   5.416   1.348  11.708 -0.0809 -0.3549 -0.7687
 3282TIP3    H131261   5.439   1.441  11.709  0.1242 -0.4027 -0.8725
 3282TIP3    H231262   5.452   1.316  11.625 -0.1648 -0.5222 -0.7401
 3283TIP3   OH231263   0.756   0.495  16.471  0.3520  0.5615 -0.2489
 3283TIP3    H131264   0.775   0.416  16.419 -2.6573 -0.5384  0.0842
 3283TIP3    H231265   0.789   0.475  16.558  1.3060  0.4849 -0.6192
 3284TIP3   OH231266   0.320   3.329  14.607  0.3560 -0.1739  0.2684
 3284TIP3    H131267   0.247   3.311  14.547  0.2392  0.3942  0.2339
 3284TIP3    H231268   0.360   3.408  14.572 -0.3230  0.7411  1.5010
 3285TIP3   OH231269   6.409   4.543  11.401  1.0052  0.1082  0.1073
 3285TIP3    H131270   6.352   4.620  11.403 -0.1177 -0.5285 -2.9755
 3285TIP3    H231271   6.458   4.548  11.483 -0.0362  3.3069  0.6727
 3286TIP3   OH231272   3.131   6.263  15.096  0.0385 -0.4419  0.1996
 3286TIP3    H131273   3.212   6.218  15.073  0.7160  1.5929 -1.8853
 3286TIP3    H231274   3.121   6.330  15.028 -1.4713  1.7632  2.4087
 3287TIP3   OH231275   3.679   0.503   2.553  0.1249  0.6949 -0.0240
 3287TIP3    H131276   3.680   0.526   2.645 -0.9862 -3.1314  1.1393
 3287TIP3    H231277   3.741   0.431   2.545 -3.1319 -2.2987 -1.0560
 3288TIP3   OH231278   2.075   0.850   1.782 -0.5900 -0.2166  0.4216
 3288TIP3    H131279   2.143   0.783   1.775 -0.4013  0.0452 -0.3937
 3288TIP3    H231280   2.060   0.879   1.692 -1.7500 -0.2302  0.5898
 3289TIP3   OH231281   1.569   3.287   3.450 -0.0399 -0.1367  0.1982
 3289TIP3    H131282   1.483   3.262   3.417 -0.6079  1.3625  0.4871
 3289TIP3    H231283   1.554   3.368   3.499  1.7725  1.0725 -1.1282
 3290TIP3   OH231284   4.277   4.559  10.644  1.2002  0.2251 -0.5570
 3290TIP3    H131285   4.184   4.546  10.663  0.3719  1.7488 -3.1177
 3290TIP3    H231286   4.317   4.474  10.662 -1.3167 -1.5414 -2.6314
 3291TIP3   OH231287   0.541   3.117  17.058  0.3612 -0.2377 -0.7363
 3291TIP3    H131288   0.601   3.092  17.128  0.9952  0.3238 -1.0712
 3291TIP3    H231289   0.463   3.148  17.104  0.8901  0.4157 -0.2601
 3292TIP3   OH231290   0.418   1.452  10.506 -0.0828  0.1058  0.3698
 3292TIP3    H131291   0.339   1.429  10.457 -0.4436  0.6079  0.7111
 3292TIP3    H231292   0.441   1.540  10.476  1.1966 -0.5832 -0.8002
 3293TIP3   OH231293   3.148   1.589   3.495  0.5555  0.6038 -0.3497
 3293TIP3    H131294   3.161   1.671   3.447  0.3695  0.7209 -0.1987
 3293TIP3    H231295   3.180   1.521   3.435  0.8059  0.7949 -0.4348
 3294TIP3   OH231296   6.289   6.156  12.044  0.1134 -0.2788  0.2555
 3294TIP3    H131297   6.202   6.148  12.006  0.3402  0.2786 -0.3877
 3294TIP3    H231298   6.283   6.108  12.127 -0.4313 -1.3520 -0.3822
 3295TIP3   OH231299   1.315   6.234   3.509  0.0383  0.4819 -1.1351
 3295TIP3    H131300   1.381   6.293   3.472  0.3086  1.2114  0.4193
 3295TIP3    H231301   1.238   6.289   3.520  0.1663  0.4705 -0.0492
 3296TIP3   OH231302   0.197   6.611  14.947 -0.5847  0.4100 -0.0259
 3296TIP3    H131303   0.190   6.516  14.937  0.0070  0.3751 -0.1610
 3296TIP3    H231304   0.284   6.632  14.913 -0.1605  0.8251  1.2626
 3297TIP3   OH231305   5.435   5.816  14.413  0.3717 -0.4105  0.1101
 3297TIP3    H131306   5.520   5.838  14.449 -0.1769 -0.2008  1.3108
 3297TIP3    H231307   5.432   5.720  14.414  0.3022 -0.4022  0.7700
 3298TIP3   OH231308   2.768   1.709   3.657  0.4880 -0.0898 -0.1490
 3298TIP3    H131309   2.820   1.767   3.600  0.8515 -1.3821 -1.1717
 3298TIP3    H231310   2.677   1.731   3.636  0.6137  0.7304  0.1289
 3299TIP3   OH231311   1.234   3.982   1.913 -0.0914  0.1893  0.0578
 3299TIP3    H131312   1.243   3.888   1.894 -0.1052  0.0862  0.5619
 3299TIP3    H231313   1.314   4.006   1.959 -0.9578 -0.0408  1.7540
 3300TIP3   OH231314   1.119   2.322   1.578 -0.4461 -0.0957  0.4298
 3300TIP3    H131315   1.175   2.251   1.548  0.3566  0.7091 -0.0203
 3300TIP3    H231316   1.090   2.365   1.497  0.3751  1.0605  0.7267
 3301TIP3   OH231317   4.444   5.258   4.274 -0.3988 -0.0731  0.1204
 3301TIP3    H131318   4.395   5.200   4.216 -0.2529  0.5482 -0.6493
 3301TIP3    H231319   4.453   5.209   4.355  2.2177 -2.3634 -1.3868
 3302TIP3   OH231320   0.229   3.339   2.745  0.1714  0.3936 -0.5505
 3302TIP3    H131321   0.284   3.260   2.747  0.8277  0.8527  0.2393
 3302TIP3    H231322   0.193   3.346   2.833 -2.1719 -0.5567 -1.3660
 3303TIP3   OH231323   3.479   3.267  13.535 -0.6389  0.3142  0.0939
 3303TIP3    H131324   3.460   3.276  13.628  0.3750 -0.7761  0.4262
 3303TIP3    H231325   3.460   3.175  13.516 -0.5898  0.4676 -0.7184
 3304TIP3   OH231326   1.957   6.595   1.928  0.3010 -0.2896 -0.1778
 3304TIP3    H131327   2.025   6.660   1.910 -0.4564  0.2672 -1.0704
 3304TIP3    H231328   1.924   6.619   2.015  0.8134 -0.1907 -0.0065
 3305TIP3   OH231329   6.022   3.949   2.574  0.3209  0.5015  0.3898
 3305TIP3    H131330   5.950   3.941   2.636 -0.4869  1.9123 -0.3061
 3305TIP3    H231331   6.070   4.027   2.604 -0.6226  1.7580 -1.2498
 3306TIP3   OH231332   0.247   2.633   1.533 -0.2470  0.7836 -0.3765
 3306TIP3    H131333   0.167   2.647   1.482 -1.3282 -0.1486  0.9893
 3306TIP3    H231334   0.316   2.676   1.482 -1.5780  1.4568 -1.6799
 3307TIP3   OH231335   6.305   4.539   4.667  0.8009  0.2139  0.5361
 3307TIP3    H131336   6.376   4.596   4.697  1.9300 -0.8574  0.0224
 3307TIP3    H231337   6.231   4.597   4.654  1.6583  1.4158  0.8545
 3308TIP3   OH231338   2.234   1.694  13.546 -0.0599 -0.1416  0.7064
 3308TIP3    H131339   2.254   1.675  13.637 -0.1111  0.3574  0.8230
 3308TIP3    H231340   2.158   1.752  13.549  0.0908  0.0830  0.3575
 3309TIP3   OH231341   1.195   1.186   0.588  0.1896 -0.2122 -0.0419
 3309TIP3    H131342   1.278   1.196   0.543  0.9675 -0.2126  1.3414
 3309TIP3    H231343   1.148   1.268   0.570  0.9542  0.2646  0.0808
 3310TIP3   OH231344   0.562   1.250  14.277  0.2769  0.0953 -0.2873
 3310TIP3    H131345   0.612   1.238  14.357  0.6382  0.0394 -0.5175
 3310TIP3    H231346   0.621   1.299  14.219 -0.6168  1.7289  0.1113
 3311TIP3   OH231347   4.881   5.097   5.472 -0.2468  0.0734  0.1756
 3311TIP3    H131348   4.861   5.092   5.378 -0.0493  0.0736  0.1318
 3311TIP3    H231349   4.948   5.166   5.477 -0.4249  0.2323  0.3434
 3312TIP3   OH231350   1.674   4.791  11.955  0.3246 -0.3434  0.3666
 3312TIP3    H131351   1.598   4.809  11.900  1.0282  0.5878 -0.3382
 3312TIP3    H231352   1.668   4.698  11.974 -0.7010 -0.3958 -0.1218
 3313TIP3   OH231353   5.257   2.129  15.574  0.1093  0.2428 -0.1658
 3313TIP3    H131354   5.347   2.159  15.564 -0.0665  0.7427 -0.2927
 3313TIP3    H231355   5.260   2.066  15.646  0.4147  0.9009  0.4109
 3314TIP3   OH231356   1.352   4.398  12.629  0.1311 -0.0068 -0.0515
 3314TIP3    H131357   1.371   4.387  12.722 -0.2734  1.6345  0.2485
 3314TIP3    H231358   1.438   4.402  12.587  0.3269 -2.1197  0.0274
 3315TIP3   OH231359   4.534   4.950  14.072  0.1053  0.1992  0.1743
 3315TIP3    H131360   4.446   4.983  14.056  0.3827  0.9242  0.1245
 3315TIP3    H231361   4.592   5.015  14.033  0.6678 -0.2808  0.1873
 3316TIP3   OH231362   4.846   3.543   2.911 -0.3747 -0.1766 -0.3334
 3316TIP3    H131363   4.822   3.545   2.818  2.0272 -3.3141 -1.1617
 3316TIP3    H231364   4.813   3.459   2.942  0.6249 -0.0446  1.1460
 3317TIP3   OH231365   6.393   5.167  12.918 -0.0625  0.0931  0.0876
 3317TIP3    H131366   6.488   5.175  12.908  0.1799 -0.4084  1.6295
 3317TIP3    H231367   6.377   5.072  12.919 -0.5373  0.1708  0.1834
 3318TIP3   OH231368   6.101   2.906  13.543  0.1865  0.3783  0.6195
 3318TIP3    H131369   6.100   2.920  13.638 -0.7305  3.4540  0.2556
 3318TIP3    H231370   6.170   2.963  13.511  1.1067 -1.2964 -0.5641
 3319TIP3   OH231371   3.898   0.329  11.848 -0.0350 -0.3940 -0.4399
 3319TIP3    H131372   3.891   0.423  11.863 -2.2418 -0.6210  0.3264
 3319TIP3    H231373   3.876   0.317  11.756  2.0755 -0.0417 -1.0381
 3320TIP3   OH231374   0.870   4.354  13.886  0.4544 -0.2576  0.1855
 3320TIP3    H131375   0.911   4.394  13.809 -1.2893  0.7599 -0.2850
 3320TIP3    H231376   0.881   4.418  13.955 -0.0865 -0.0826  0.1184
 3321TIP3   OH231377   4.601   3.781  13.378  0.5875 -0.1741  0.1936
 3321TIP3    H131378   4.671   3.733  13.423  0.6253  0.6119  0.9988
 3321TIP3    H231379   4.521   3.733  13.399  0.4385  0.8256  2.0997
 3322TIP3   OH231380   0.182   2.753  15.585 -0.3232 -0.0382 -0.0144
 3322TIP3    H131381   0.149   2.681  15.639 -2.3133  1.1108  0.4057
 3322TIP3    H231382   0.215   2.711  15.506  0.7405 -1.5829  1.1901
 3323TIP3   OH231383   1.149   6.718  13.694  0.2371 -0.4358 -0.0571
 3323TIP3    H131384   1.186   6.704  13.781  0.5120 -0.9266 -0.2493
 3323TIP3    H231385   1.224   6.746  13.641 -0.2040  1.3211  0.1999
 3324TIP3   OH231386   3.948   5.963   3.557  0.5019 -0.1593 -0.1098
 3324TIP3    H131387   3.867   5.917   3.535 -0.0458  0.7527 -0.0346
 3324TIP3    H231388   3.965   5.941   3.648  1.0745 -1.4248 -0.5008
 3325TIP3   OH231389   5.418   5.250   4.401 -0.4223  0.1329  0.2728
 3325TIP3    H131390   5.403   5.213   4.488 -0.1921 -0.3014  0.1278
 3325TIP3    H231391   5.427   5.174   4.343  0.0622  0.4088 -0.0227
 3326TIP3   OH231392   4.053   4.423   0.590  0.0248 -0.4245 -0.6667
 3326TIP3    H131393   4.003   4.346   0.617  0.1490 -0.6017 -0.9340
 3326TIP3    H231394   4.061   4.476   0.670 -0.9380 -0.1941 -0.7197
 3327TIP3   OH231395   4.112   5.517  14.261 -0.2950 -0.0059 -0.0792
 3327TIP3    H131396   4.032   5.492  14.215  0.0317 -0.6048 -0.3429
 3327TIP3    H231397   4.173   5.445  14.244  0.9048  1.2431 -1.3842
 3328TIP3   OH231398   6.247   2.269  15.155 -0.0621 -0.2819  0.2622
 3328TIP3    H131399   6.250   2.336  15.223 -0.9649 -0.0609  0.0969
 3328TIP3    H231400   6.338   2.254  15.132  0.3210 -0.9169  2.0521
 3329TIP3   OH231401   1.636   4.514   5.406  0.3071  0.0635 -0.6104
 3329TIP3    H131402   1.707   4.467   5.447  1.7587  0.4028 -2.5736
 3329TIP3    H231403   1.646   4.605   5.435  0.6089  0.0819 -0.7677
 3330TIP3   OH231404   4.343   3.072   2.893  0.5291  0.3604 -0.2393
 3330TIP3    H131405   4.349   3.141   2.960 -1.3749 -1.6427  2.2009
 3330TIP3    H231406   4.404   3.004   2.924 -0.6622 -0.7594 -0.2696
 3331TIP3   OH231407   5.457   1.544   5.652 -0.4253 -0.1228 -0.4823
 3331TIP3    H131408   5.413   1.484   5.593 -1.3762  1.5384 -1.5413
 3331TIP3    H231409   5.426   1.631   5.627  0.6816  0.8234  1.1532
 3332TIP3   OH231410   2.484   3.778  15.201  0.3137  0.1519  0.1242
 3332TIP3    H131411   2.499   3.852  15.142 -0.9892 -0.7172 -1.3740
 3332TIP3    H231412   2.499   3.813  15.289  1.0864  1.8125 -0.6399
 3333TIP3   OH231413   3.096   1.230   0.055 -0.2696  0.0365 -0.6281
 3333TIP3    H131414   3.087   1.281   0.135  0.4505 -1.3393  0.3786
 3333TIP3    H231415   3.033   1.269  -0.006  0.5698  2.3964 -0.0981
 3334TIP3   OH231416   6.303   0.721  17.153  0.6808  0.3711 -0.2037
 3334TIP3    H131417   6.308   0.639  17.202 -0.6646  1.3861  1.7602
 3334TIP3    H231418   6.392   0.755  17.153  0.8697 -0.0926  0.7839
 3335TIP3   OH231419   1.829   2.868  16.392  0.2126 -0.6624  0.2140
 3335TIP3    H131420   1.885   2.862  16.315  0.0234 -1.4106  0.1219
 3335TIP3    H231421   1.758   2.806  16.375  0.2558 -0.9587  1.0600
 3336TIP3   OH231422   4.829   3.806  13.174 -0.6278 -0.4849 -0.2735
 3336TIP3    H131423   4.754   3.785  13.229 -0.1828 -0.2348  0.4477
 3336TIP3    H231424   4.791   3.833  13.090 -1.4207  1.0557  0.5440
 3337TIP3   OH231425   4.470   1.112  15.023  0.3228 -0.3584 -0.0574
 3337TIP3    H131426   4.430   1.026  15.037  0.5845 -0.4995 -0.1751
 3337TIP3    H231427   4.553   1.093  14.978  0.7243 -0.0958  0.5690
 3338TIP3   OH231428   2.228   1.193  15.499 -0.0134  0.1900  0.2016
 3338TIP3    H131429   2.222   1.173  15.406 -1.4769 -0.5615  0.4238
 3338TIP3    H231430   2.315   1.232  15.510  0.4407 -0.3173 -1.3510
 3339TIP3   OH231431   5.232   1.691   0.092 -0.0877  0.6125 -0.0055
 3339TIP3    H131432   5.194   1.766   0.137 -0.6747  0.2038  0.2037
 3339TIP3    H231433   5.228   1.620   0.156  1.1560  0.5831  0.0523
 3340TIP3   OH231434   0.098   3.896   0.514  0.0232  0.2562 -0.4486
 3340TIP3    H131435   0.193   3.888   0.508 -0.0361 -0.6595 -0.2428
 3340TIP3    H231436   0.071   3.922   0.427  0.3558 -0.6862 -0.8479
 3341TIP3   OH231437   6.536   1.066   3.732 -0.1227  0.5509  0.1875
 3341TIP3    H131438   6.575   1.028   3.811  2.7163  0.3990 -1.1431
 3341TIP3    H231439   6.475   1.132   3.764  1.5821  1.1059  2.5512
 3342TIP3   OH231440   0.584   4.334  13.929 -0.1001  0.0213  0.2656
 3342TIP3    H131441   0.568   4.264  13.993  0.2677 -0.4457 -0.1434
 3342TIP3    H231442   0.669   4.311  13.890 -0.5697  0.0073 -0.7636
 3343TIP3   OH231443   4.062   5.891  12.018 -0.0804  0.0897 -0.6929
 3343TIP3    H131444   4.010   5.843  11.953  0.8944 -3.3779  0.8544
 3343TIP3    H231445   3.997   5.923  12.080 -0.6983 -0.8552 -0.8169
 3344TIP3   OH231446   1.676   2.518   4.024 -0.0618  0.0345  0.0004
 3344TIP3    H131447   1.664   2.527   4.118  0.8650 -1.4204  0.3045
 3344TIP3    H231448   1.592   2.484   3.992  0.3355 -1.7135  0.7030
 3345TIP3   OH231449   1.210   5.436  13.439  0.1878 -0.7685 -0.0400
 3345TIP3    H131450   1.189   5.487  13.516 -2.3508 -1.3292 -0.2853
 3345TIP3    H231451   1.286   5.480  13.401  0.5526  0.3984  1.9096
 3346TIP3   OH231452   2.512   2.131   5.593  0.1987  0.5882  0.0909
 3346TIP3    H131453   2.446   2.072   5.558  0.7999 -1.3537  2.0497
 3346TIP3    H231454   2.486   2.145   5.684  2.0443  0.3842  0.6847
 3347TIP3   OH231455   5.983   3.056  16.105 -0.2538  0.2183  0.8400
 3347TIP3    H131456   5.937   3.121  16.051 -0.4335  0.0431  0.7818
 3347TIP3    H231457   6.072   3.056  16.070 -0.6147 -0.6155 -0.1230
 3348TIP3   OH231458   3.185   3.069   2.462 -0.1196  0.5941  0.3795
 3348TIP3    H131459   3.151   3.153   2.430 -0.0726  0.2937 -0.4746
 3348TIP3    H231460   3.212   3.088   2.552 -0.2162  1.4705  0.2391
 3349TIP3   OH231461   3.458   4.761  17.170  0.3272  0.1548  0.7891
 3349TIP3    H131462   3.415   4.832  17.217 -0.5579  1.0989 -1.3485
 3349TIP3    H231463   3.495   4.706  17.240  0.0375  2.0377  2.5388
 3350TIP3   OH231464   2.624   5.250   4.531  0.1913 -0.5134 -0.0227
 3350TIP3    H131465   2.631   5.187   4.603 -0.5849  2.3657  2.8027
 3350TIP3    H231466   2.676   5.325   4.560 -1.0466  1.2138 -1.9754
 3351TIP3   OH231467   3.435   0.796  13.697 -0.0795 -0.2054 -0.3783
 3351TIP3    H131468   3.504   0.743  13.656  0.7792 -0.8448  1.7389
 3351TIP3    H231469   3.355   0.745  13.683  0.6205 -1.7780  0.9794
 3352TIP3   OH231470   1.923   1.870   3.190 -0.9022 -0.2248 -0.0048
 3352TIP3    H131471   1.956   1.863   3.101 -0.2169 -2.4077  0.3497
 3352TIP3    H231472   1.828   1.868   3.182 -0.9366  2.2253 -0.8039
 3353TIP3   OH231473   2.753   4.323  17.006 -0.0025  0.0101  0.1578
 3353TIP3    H131474   2.777   4.230  17.004 -1.4981 -0.3900 -0.5576
 3353TIP3    H231475   2.751   4.349  16.914 -1.3639  0.2457  0.2342
 3354TIP3   OH231476   5.855   5.202  12.024  0.8257  0.4144  0.4070
 3354TIP3    H131477   5.897   5.267  12.081  0.3289  1.5382 -0.4672
 3354TIP3    H231478   5.924   5.140  12.003  0.9625 -0.1796  2.4270
 3355TIP3   OH231479   4.677   2.933  11.820 -0.1360 -0.3874 -0.5305
 3355TIP3    H131480   4.739   2.953  11.750  0.1120  1.0472  0.0524
 3355TIP3    H231481   4.698   2.844  11.848  0.3101 -0.6614 -1.7019
 3356TIP3   OH231482   1.996   0.737  16.653 -0.4149 -0.1511  0.4228
 3356TIP3    H131483   2.029   0.658  16.694  0.9491  0.9637  1.5683
 3356TIP3    H231484   2.035   0.738  16.566  0.8818  0.0530  0.9882
 3357TIP3   OH231485   1.881   1.902   2.614 -0.5216  0.0863  0.1638
 3357TIP3    H131486   1.810   1.871   2.558 -0.7063 -0.9544  0.9320
 3357TIP3    H231487   1.871   1.998   2.615 -1.0082  0.0560 -0.8997
 3358TIP3   OH231488   5.139   3.986  15.554 -0.1066 -0.2388  0.0672
 3358TIP3    H131489   5.059   3.955  15.513  1.1250  0.1531 -2.8654
 3358TIP3    H231490   5.173   4.052  15.494  1.8493  0.4131  1.7661
 3359TIP3   OH231491   1.443   4.434   0.822  0.6300  0.0004 -0.2263
 3359TIP3    H131492   1.538   4.440   0.837  0.9280 -0.6570 -1.6457
 3359TIP3    H231493   1.413   4.525   0.821  1.5370  0.3133 -1.2927
 3360TIP3   OH231494   5.498   2.964   5.580  0.5251 -0.5040 -0.0542
 3360TIP3    H131495   5.551   2.885   5.580  2.1729  0.5554  0.1594
 3360TIP3    H231496   5.536   3.018   5.649  1.5574  1.8259 -2.3132
 3361TIP3   OH231497   0.982   3.889  13.889 -0.5942  0.2933  0.1422
 3361TIP3    H131498   0.923   3.898  13.815  2.6234 -1.5587 -2.9710
 3361TIP3    H231499   1.030   3.972  13.893 -1.2742  0.6756  0.7382
 3362TIP3   OH231500   1.217   4.135  12.146 -0.2270  0.4506 -0.0981
 3362TIP3    H131501   1.244   4.129  12.238 -1.5486 -0.5830  0.2635
 3362TIP3    H231502   1.121   4.139  12.150 -0.3153  0.1487 -1.4452
 3363TIP3   OH231503   3.636   6.743  15.049 -0.4592  0.3027  0.2363
 3363TIP3    H131504   3.700   6.691  15.000 -0.1142  0.0174  0.9773
 3363TIP3    H231505   3.681   6.767  15.130 -1.2686  0.1284  0.7509
 3364TIP3   OH231506   5.894   6.586  11.340  0.3239 -0.0616  0.4040
 3364TIP3    H131507   5.831   6.604  11.271  0.5860 -1.7346 -0.3430
 3364TIP3    H231508   5.891   6.490  11.350  2.7603 -0.2101  0.2735
 3365TIP3   OH231509   2.580   1.937  12.438 -0.0002  0.2580  0.1557
 3365TIP3    H131510   2.539   1.866  12.387  0.2923  1.6650 -2.1660
 3365TIP3    H231511   2.513   2.005  12.443  0.2889  0.4968  0.9186
 3366TIP3   OH231512   1.701   1.926  16.899 -0.1997  0.6498  0.3042
 3366TIP3    H131513   1.683   1.927  16.993  0.2217 -0.0286  0.3977
 3366TIP3    H231514   1.677   1.838  16.870 -2.3563  1.4967 -0.6521
 3367TIP3   OH231515   4.630   2.669   2.018 -0.2973  0.0645 -0.5295
 3367TIP3    H131516   4.603   2.755   2.052  1.4857  0.0632  1.0660
 3367TIP3    H231517   4.714   2.686   1.975  1.3209 -1.1739  1.9173
 3368TIP3   OH231518   3.375   2.242  11.177  0.1120 -0.2997  0.1719
 3368TIP3    H131519   3.429   2.320  11.186 -1.9852  1.0488  2.5116
 3368TIP3    H231520   3.378   2.200  11.263 -0.3038 -1.7458 -0.4869
 3369TIP3   OH231521   1.680   1.974  15.472 -0.5715 -0.2904 -0.1668
 3369TIP3    H131522   1.659   1.945  15.383 -2.6145  0.6056 -0.0302
 3369TIP3    H231523   1.775   1.967  15.477 -0.5316 -1.8046 -1.9042
 3370TIP3   OH231524   3.711   3.926  16.183  0.5952  0.0855 -0.8893
 3370TIP3    H131525   3.716   3.929  16.087 -1.1665  1.6953 -0.9948
 3370TIP3    H231526   3.717   4.017  16.210  0.7728 -0.3217  0.5418
 3371TIP3   OH231527   6.640   2.478  10.826  0.2921  0.0948 -0.1733
 3371TIP3    H131528   6.553   2.500  10.856  0.6087  0.9972  0.1230
 3371TIP3    H231529   6.646   2.383  10.836  0.0167  0.2313  1.6132
 3372TIP3   OH231530   3.474   4.989   3.125 -0.0254 -0.1386 -0.8263
 3372TIP3    H131531   3.411   4.980   3.053  0.6518 -0.1590 -1.4214
 3372TIP3    H231532   3.527   5.064   3.102  0.8356 -0.7358 -0.8360
 3373TIP3   OH231533   2.898   5.214  13.677 -0.6614  0.8224 -0.0627
 3373TIP3    H131534   2.859   5.127  13.668 -0.9672  0.9937 -0.4077
 3373TIP3    H231535   2.958   5.222  13.604  0.8787  0.1343  1.0683
 3374TIP3   OH231536   0.532   6.497  12.467  0.1514 -0.5181  0.0140
 3374TIP3    H131537   0.467   6.484  12.399  2.0681 -0.5522 -1.9023
 3374TIP3    H231538   0.535   6.592  12.480  0.4880 -0.4319 -0.6820
 3375TIP3   OH231539   1.916   6.062   5.191  0.4855  0.0606  0.3643
 3375TIP3    H131540   1.929   6.146   5.147  0.5535  0.0112  0.2910
 3375TIP3    H231541   1.988   6.007   5.160  1.8560  0.7135  2.2341
 3376TIP3   OH231542   0.373   3.895   5.249 -0.4988  0.1451  0.1471
 3376TIP3    H131543   0.454   3.920   5.206 -0.7135 -0.6783 -0.7654
 3376TIP3    H231544   0.315   3.970   5.237  0.2230  0.8830  1.1150
 3377TIP3   OH231545   1.187   3.292  11.751 -0.1581  0.4433  0.3633
 3377TIP3    H131546   1.150   3.243  11.825  0.6083 -0.0650  0.4148
 3377TIP3    H231547   1.281   3.292  11.767 -0.1830  3.4839  1.3637
 3378TIP3   OH231548   2.576   0.155  15.808  0.1203  0.5117 -0.5360
 3378TIP3    H131549   2.482   0.142  15.797  0.0449  0.5898 -0.0139
 3378TIP3    H231550   2.615   0.122  15.727 -0.3951  0.9179 -0.9541
 3379TIP3   OH231551   2.431   5.136   3.183 -0.4505  0.2358  0.0729
 3379TIP3    H131552   2.368   5.130   3.255  0.7555 -0.0557  1.1434
 3379TIP3    H231553   2.485   5.212   3.205 -1.3762  1.4755 -1.6647
 3380TIP3   OH231554   3.114   4.331  14.822 -0.3988 -0.1009  0.1492
 3380TIP3    H131555   3.153   4.246  14.801  3.6708  1.4131  0.6586
 3380TIP3    H231556   3.088   4.367  14.738  1.2051 -0.4416 -0.5261
 3381TIP3   OH231557   2.497   4.081   5.582 -0.2393 -0.4508  0.7652
 3381TIP3    H131558   2.434   4.022   5.624 -0.1388 -0.3716  1.0260
 3381TIP3    H231559   2.556   4.023   5.534 -0.9850 -0.4893 -0.1407
 3382TIP3   OH231560   6.253   1.875  14.870  0.8078 -0.0583  0.2105
 3382TIP3    H131561   6.203   1.793  14.864 -0.4294  0.6100  0.8913
 3382TIP3    H231562   6.294   1.871  14.957 -2.3093  1.6150  1.9448
 3383TIP3   OH231563   4.445   2.954   3.723 -0.1061 -0.2867 -0.0799
 3383TIP3    H131564   4.446   2.924   3.814 -0.1067  0.0985  0.0460
 3383TIP3    H231565   4.531   2.994   3.709 -0.9447  1.8327  0.4849
 3384TIP3   OH231566   3.525   6.371  12.455 -0.7363  0.2046 -0.0649
 3384TIP3    H131567   3.576   6.392  12.377  0.2759 -0.5006  0.3851
 3384TIP3    H231568   3.434   6.384  12.428 -0.5903 -2.1618 -2.0893
 3385TIP3   OH231569   5.716   0.008   0.936 -0.0156  0.5632  0.0961
 3385TIP3    H131570   5.795  -0.046   0.927 -1.1260 -1.0596 -0.3856
 3385TIP3    H231571   5.727   0.052   1.020  1.5674  0.6886 -0.1326
 3386TIP3   OH231572   0.116   6.020  13.995  0.2705  0.1743  0.8200
 3386TIP3    H131573   0.064   6.098  13.977  0.7612  0.4182  0.4335
 3386TIP3    H231574   0.117   5.972  13.912  0.5405  0.0996  0.8640
 3387TIP3   OH231575   3.483   0.642  15.117 -0.6361 -0.2705  0.6264
 3387TIP3    H131576   3.573   0.613  15.134 -0.1679  0.5323 -0.3517
 3387TIP3    H231577   3.458   0.596  15.037 -0.2200  1.2239 -0.4173
 3388TIP3   OH231578   1.421   1.000   5.640  0.3633 -0.3763  0.3687
 3388TIP3    H131579   1.358   1.029   5.574  1.6167  1.3535 -0.1289
 3388TIP3    H231580   1.425   0.905   5.629  0.5610 -0.1503 -2.0873
 3389TIP3   OH231581   5.398   6.485   3.196 -0.6477 -0.1669  0.2074
 3389TIP3    H131582   5.459   6.440   3.137 -0.1899 -0.7770  1.1147
 3389TIP3    H231583   5.365   6.559   3.145  1.9072  1.0151  0.1249
 3390TIP3   OH231584   0.682   1.758  13.368 -1.0308 -0.1802 -0.0108
 3390TIP3    H131585   0.706   1.768  13.460  1.8629 -0.6685 -0.6229
 3390TIP3    H231586   0.686   1.846  13.332  2.8331 -0.4340 -0.6396
 3391TIP3   OH231587   5.587   2.243   3.567  0.4634 -0.5646 -0.2244
 3391TIP3    H131588   5.560   2.187   3.495 -0.2283  0.8941 -1.1452
 3391TIP3    H231589   5.683   2.238   3.566  0.4606 -0.6797 -1.1579
 3392TIP3   OH231590   5.961   1.201   5.605  0.2053 -0.3567 -0.4104
 3392TIP3    H131591   5.938   1.262   5.675 -0.5383  0.1161 -1.0564
 3392TIP3    H231592   6.041   1.159   5.635 -0.7188 -1.0180  1.2769
 3393TIP3   OH231593   5.665   4.945  16.711  0.3368 -0.0946  0.2118
 3393TIP3    H131594   5.610   5.021  16.729 -1.3766 -1.5832  1.7106
 3393TIP3    H231595   5.608   4.886  16.661  0.7560 -1.3911  1.2004
 3394TIP3   OH231596   4.008   5.899   1.991 -0.3990 -0.4268 -0.6127
 3394TIP3    H131597   3.922   5.867   1.965 -1.6655  3.3157 -1.6934
 3394TIP3    H231598   4.006   5.900   2.087 -2.1695  0.8897 -0.6242
 3395TIP3   OH231599   4.305   1.992  11.575 -0.4460  0.0053  0.5140
 3395TIP3    H131600   4.270   1.937  11.646  0.8446  1.3359  2.2987
 3395TIP3    H231601   4.353   1.931  11.519 -0.1004 -0.8922  1.7290
 3396TIP3   OH231602   3.471   0.437  14.420 -0.4583  0.0313 -0.0226
 3396TIP3    H131603   3.391   0.389  14.400 -0.7387  0.3764  0.2446
 3396TIP3    H231604   3.539   0.396  14.367 -1.1512  0.8514 -1.6003
 3397TIP3   OH231605   4.854   2.013   3.232  0.2615  0.0290 -0.4257
 3397TIP3    H131606   4.922   2.077   3.208  0.0023  0.8442  0.9162
 3397TIP3    H231607   4.864   2.002   3.326 -2.2877  1.1554  0.0568
 3398TIP3   OH231608   4.710   3.048   0.692  0.4272  0.3317  0.7764
 3398TIP3    H131609   4.630   3.042   0.639  0.8457 -0.6003  0.2141
 3398TIP3    H231610   4.754   3.127   0.661  0.0449  0.4875  0.6260
 3399TIP3   OH231611   2.762   5.023  15.145  0.2403  0.6725  0.8590
 3399TIP3    H131612   2.834   4.987  15.092 -1.0408  1.4030 -1.5104
 3399TIP3    H231613   2.792   5.110  15.170  0.4116  0.7431  0.4101
 3400TIP3   OH231614   5.945   6.348  16.869  0.3928 -0.0917  0.5840
 3400TIP3    H131615   5.890   6.425  16.856 -1.6584 -1.7619 -1.2266
 3400TIP3    H231616   5.954   6.341  16.965 -1.8027  0.7785  0.9053
 3401TIP3   OH231617   0.254   2.541  11.945 -0.0442  0.0572  0.0007
 3401TIP3    H131618   0.240   2.449  11.965 -1.6006  0.1440 -0.5658
 3401TIP3    H231619   0.312   2.541  11.869 -0.2961 -0.4553 -0.1914
 3402TIP3   OH231620   0.742   5.892   2.943 -0.2203 -0.2388  0.3134
 3402TIP3    H131621   0.799   5.850   3.007  1.1850  0.0814 -0.6960
 3402TIP3    H231622   0.782   5.976   2.926 -1.3309  0.2515  0.0129
 3403TIP3   OH231623   5.472   4.143  14.175  0.2337  0.3749  0.2183
 3403TIP3    H131624   5.479   4.097  14.259 -0.5425  2.4511  1.4908
 3403TIP3    H231625   5.379   4.164  14.168  0.4778  1.2135 -0.6185
 3404TIP3   OH231626   0.351   5.657   4.152  0.3755 -0.2438 -0.2210
 3404TIP3    H131627   0.292   5.589   4.187 -1.7136  1.2022 -0.7259
 3404TIP3    H231628   0.372   5.712   4.228  0.0420 -0.0372 -0.2786
 3405TIP3   OH231629   2.220   1.937  16.969 -0.3664 -0.3270 -0.1156
 3405TIP3    H131630   2.161   1.871  16.933 -1.5187  1.5027 -1.7691
 3405TIP3    H231631   2.245   1.991  16.894  1.6339  0.3269  0.9412
 3406TIP3   OH231632   2.486   2.720  15.888 -0.4711  0.1339  0.7347
 3406TIP3    H131633   2.427   2.648  15.863 -2.2268  1.6406  0.3500
 3406TIP3    H231634   2.429   2.796  15.899  1.4062  1.6874  0.3685
 3407TIP3   OH231635   4.407   5.115   1.545  0.2715  0.8102  0.0061
 3407TIP3    H131636   4.345   5.048   1.517  0.9403 -0.4082  1.2866
 3407TIP3    H231637   4.491   5.085   1.510  0.4391  1.4177 -0.1112
 3408TIP3   OH231638   2.073   1.656  17.165 -0.1283 -0.4537  0.3085
 3408TIP3    H131639   2.031   1.573  17.190 -1.2635 -0.4458 -1.4046
 3408TIP3    H231640   2.166   1.635  17.160 -0.3752 -1.5887  0.1057
 3409TIP3   OH231641   5.392   2.470  14.018 -0.4366 -0.3048  0.5088
 3409TIP3    H131642   5.410   2.410  13.946 -3.0340 -0.2451 -0.2852
 3409TIP3    H231643   5.320   2.429  14.066  0.1766  0.4386  2.1501
 3410TIP3   OH231644   1.152   1.082   5.562 -0.3043 -0.1838  0.4535
 3410TIP3    H131645   1.147   1.028   5.642  1.5712 -0.0613  0.6792
 3410TIP3    H231646   1.119   1.168   5.589  1.1262  0.1091  1.3597
 3411TIP3   OH231647   5.571   4.883   2.560 -0.4144  0.6436 -0.2946
 3411TIP3    H131648   5.487   4.923   2.584 -0.1851  0.6254  0.5672
 3411TIP3    H231649   5.637   4.945   2.591 -0.1092  0.8841 -1.3939
 3412TIP3   OH231650   0.375   0.664  11.598 -0.1545 -0.0040  0.2529
 3412TIP3    H131651   0.470   0.657  11.588 -0.3206 -0.8149 -1.0516
 3412TIP3    H231652   0.345   0.573  11.600 -0.8212  0.2249  1.8042
 3413TIP3   OH231653   4.038   3.321  15.437  0.7328 -0.4127  0.3836
 3413TIP3    H131654   4.123   3.293  15.469  0.3201 -2.0155  0.1591
 3413TIP3    H231655   4.018   3.399  15.488  1.2288 -1.4447  2.2588
 3414TIP3   OH231656   0.435   5.276   2.048  0.0140  0.5303  0.3198
 3414TIP3    H131657   0.387   5.348   2.087  0.5215  0.8550  0.3489
 3414TIP3    H231658   0.448   5.302   1.957 -0.3779  0.1787  0.1595
 3415TIP3   OH231659   4.861   5.317   6.810 -0.0250 -0.3632 -0.1701
 3415TIP3    H131660   4.920   5.289   6.741 -0.8953 -1.3643 -0.5401
 3415TIP3    H231661   4.910   5.383   6.859  0.8782 -0.1863 -1.2800
 3416TIP3   OH231662   4.350   6.007   5.368  0.0123  0.2292 -0.2476
 3416TIP3    H131663   4.322   5.916   5.362 -0.9053  0.4352  0.7060
 3416TIP3    H231664   4.271   6.056   5.390  0.4341  1.3060 -1.0262
 3417TIP3   OH231665   0.221   3.220   1.848 -0.9420 -0.3080 -0.1846
 3417TIP3    H131666   0.133   3.231   1.812 -1.6146 -1.0530  1.1547
 3417TIP3    H231667   0.223   3.129   1.878  0.3883 -0.3809 -0.4235
 3418TIP3   OH231668   4.762   0.708   0.832  0.3086  0.0161 -0.2068
 3418TIP3    H131669   4.855   0.686   0.822  0.1278 -0.8618  0.0100
 3418TIP3    H231670   4.730   0.647   0.899  0.0393  1.5989  1.1789
 3419TIP3   OH231671   4.869   0.557  13.886  0.3418  0.1954 -0.2387
 3419TIP3    H131672   4.960   0.579  13.908  0.0860  0.3666  0.7221
 3419TIP3    H231673   4.817   0.616  13.941 -0.3491 -0.0374 -0.6380
 3420TIP3   OH231674   1.804   5.725   4.104  0.4143 -0.3288  0.1016
 3420TIP3    H131675   1.757   5.741   4.186 -0.8267  0.8549 -0.8001
 3420TIP3    H231676   1.853   5.645   4.120  0.5149  0.0813  2.1366
 3421TIP3   OH231677   2.796   4.007  14.714  0.4217  0.6690  1.0919
 3421TIP3    H131678   2.790   4.076  14.647 -1.6851  0.3806  0.8986
 3421TIP3    H231679   2.819   3.928  14.664  1.9184  1.0326  1.1803
 3422TIP3   OH231680   0.762   1.222   1.421  0.2174  0.0151  0.2101
 3422TIP3    H131681   0.757   1.186   1.332  1.7517 -0.6926  0.3889
 3422TIP3    H231682   0.677   1.265   1.434 -0.3935 -0.6916 -1.2383
 3423TIP3   OH231683   6.028   3.562  13.962 -0.3122 -0.1789  0.2633
 3423TIP3    H131684   6.089   3.633  13.979 -1.9777  1.3596  0.1370
 3423TIP3    H231685   6.047   3.535  13.872  0.9981 -0.6172  0.6485
 3424TIP3   OH231686   2.166   1.105   3.805  0.0505 -0.3913 -0.2713
 3424TIP3    H131687   2.172   1.115   3.710 -0.9750  2.0471 -0.1629
 3424TIP3    H231688   2.247   1.145   3.839 -0.3651  0.3441 -0.1023
 3425TIP3   OH231689   1.801   0.435  14.643 -0.0750  0.1926 -0.0074
 3425TIP3    H131690   1.756   0.406  14.563 -0.4123  1.7484 -0.4188
 3425TIP3    H231691   1.874   0.487  14.612  0.9778 -0.7988  0.7036
 3426TIP3   OH231692   0.716   4.248   0.226  0.2681  0.0065  0.0429
 3426TIP3    H131693   0.751   4.160   0.209  0.9787  0.2781  0.0629
 3426TIP3    H231694   0.718   4.257   0.321  0.0498 -0.0128  0.0496
 3427TIP3   OH231695   3.713   1.221  16.885  0.1130 -0.1850  0.1710
 3427TIP3    H131696   3.758   1.305  16.898 -0.5756  0.2789 -0.3463
 3427TIP3    H231697   3.763   1.159  16.938  0.4269  0.6236  0.8633
 3428TIP3   OH231698   6.447   2.063   5.285  0.5209  0.6203  0.5265
 3428TIP3    H131699   6.359   2.064   5.323 -0.3607  2.4128 -1.3655
 3428TIP3    H231700   6.503   2.097   5.354 -0.9137  3.0581  0.6017
 3429TIP3   OH231701   5.679   4.808   3.536  0.1262 -0.9897 -0.2442
 3429TIP3    H131702   5.739   4.819   3.610 -0.7433 -0.6033  0.4202
 3429TIP3    H231703   5.730   4.759   3.471  1.3690 -0.1479  0.0538
 3430TIP3   OH231704   1.004   5.987   5.465 -0.1308 -0.0920 -0.2086
 3430TIP3    H131705   0.929   5.972   5.523  1.9399  0.1055  2.7590
 3430TIP3    H231706   1.021   5.901   5.426 -1.0800 -0.4423  0.1121
 3431TIP3   OH231707   5.980   5.962   0.087  0.3158 -0.1167 -0.0677
 3431TIP3    H131708   6.030   5.890   0.126  1.4793  0.2284 -0.8702
 3431TIP3    H231709   5.911   5.918   0.036 -0.4944 -0.5871  1.3793
 3432TIP3   OH231710   1.251   2.805  13.912  0.0496  0.1844  0.5332
 3432TIP3    H131711   1.187   2.873  13.933  0.6639  1.3428 -1.1300
 3432TIP3    H231712   1.204   2.723  13.924 -1.1704  0.9443  1.1483
 3433TIP3   OH231713   3.209   4.911  15.447 -0.0885 -0.7889  0.2295
 3433TIP3    H131714   3.204   4.845  15.378  0.7211 -0.1422 -0.4560
 3433TIP3    H231715   3.278   4.879  15.505  0.6465 -0.3119 -0.3671
 3434TIP3   OH231716   0.115   5.259   4.362 -0.6187  0.9741 -0.2193
 3434TIP3    H131717   0.110   5.222   4.450 -0.6536  1.8285  0.1411
 3434TIP3    H231718   0.067   5.197   4.307 -0.2842  0.2483  0.2989
 3435TIP3   OH231719   0.249   6.755   3.558  0.3224 -0.1838  0.0654
 3435TIP3    H131720   0.237   6.838   3.513 -0.4396 -0.2318  0.1729
 3435TIP3    H231721   0.341   6.757   3.587 -0.2755  1.6264  2.0876
 3436TIP3   OH231722   2.104   1.979  15.084 -0.6671 -0.5936 -0.3108
 3436TIP3    H131723   2.082   1.976  14.991 -1.2556  0.4349 -0.2192
 3436TIP3    H231724   2.061   1.901  15.121  0.7472 -1.8020 -1.1076
 3437TIP3   OH231725   1.175   3.704   2.403  0.6276 -0.0139  0.6831
 3437TIP3    H131726   1.264   3.705   2.439  0.5501  0.9658  0.8801
 3437TIP3    H231727   1.188   3.717   2.309  0.6888  0.2780  0.7304
 3438TIP3   OH231728   4.618   0.034  13.876 -0.3233 -0.0260  0.2744
 3438TIP3    H131729   4.641  -0.046  13.829  0.0746 -0.8238  1.7634
 3438TIP3    H231730   4.631   0.104  13.812  1.8783 -0.8734 -0.2901
 3439TIP3   OH231731   1.705   6.707  14.946 -0.4388  0.9422 -0.6695
 3439TIP3    H131732   1.779   6.766  14.961  0.2760 -0.0331 -0.3297
 3439TIP3    H231733   1.741   6.636  14.892 -1.2515  0.7131 -0.9242
 3440TIP3   OH231734   2.695   3.564   5.895 -0.2175  0.1267 -0.0202
 3440TIP3    H131735   2.647   3.522   5.966 -0.1565  0.3807  0.1708
 3440TIP3    H231736   2.662   3.521   5.816  2.2326 -2.7180  0.3451
 3441TIP3   OH231737   2.383   2.775   2.598  0.0764  0.1953 -0.1565
 3441TIP3    H131738   2.299   2.763   2.553  0.7864  0.3672 -1.6061
 3441TIP3    H231739   2.370   2.738   2.685 -1.4261  0.0167 -0.4363
 3442TIP3   OH231740   2.626   2.208   0.569 -0.5394 -0.4375 -0.1251
 3442TIP3    H131741   2.537   2.243   0.562  0.1577  1.5193  0.0813
 3442TIP3    H231742   2.673   2.273   0.622  0.8502 -1.7742  0.3644
 3443TIP3   OH231743   2.889   1.541  13.478  0.2902  0.0629 -0.5480
 3443TIP3    H131744   2.801   1.525  13.511  0.3827  1.5324  0.4800
 3443TIP3    H231745   2.877   1.555  13.384 -0.0615 -3.4252 -1.1500
 3444TIP3   OH231746   0.886   5.062  16.948  0.5467  0.2159  0.1131
 3444TIP3    H131747   0.814   5.000  16.941  0.5797  0.1505  0.3702
 3444TIP3    H231748   0.931   5.056  16.864 -0.2375  0.8601 -0.3721
 3445TIP3   OH231749   1.197   4.254   4.047 -0.3385  0.1602 -0.2206
 3445TIP3    H131750   1.166   4.192   3.981 -0.8019 -0.2308  0.3487
 3445TIP3    H231751   1.118   4.283   4.092 -0.0818  0.8633 -0.2141
 3446TIP3   OH231752   5.934   2.228  14.645 -0.2018 -0.4123  0.2683
 3446TIP3    H131753   5.862   2.168  14.628  0.7279 -1.3672 -0.4663
 3446TIP3    H231754   6.006   2.171  14.674  1.1887  0.1082 -1.9042
 3447TIP3   OH231755   4.118   3.387   5.337 -0.3060  0.6662  0.2011
 3447TIP3    H131756   4.124   3.448   5.264  2.8814  2.0736  1.4151
 3447TIP3    H231757   4.077   3.437   5.407  0.3686  0.7234  0.5647
 3448TIP3   OH231758   6.253   0.422  16.280 -0.6372  0.5796 -0.1167
 3448TIP3    H131759   6.286   0.334  16.299  0.3107  0.8679 -0.3949
 3448TIP3    H231760   6.236   0.460  16.366 -0.8976  0.1904  0.0083
 3449TIP3   OH231761   2.496   6.257   5.113 -0.4123  0.1043  0.2319
 3449TIP3    H131762   2.464   6.257   5.203  3.6236  0.4264  1.8821
 3449TIP3    H231763   2.494   6.349   5.087  0.1415  0.2520  0.7073
 3450TIP3   OH231764   2.315   4.820   4.783 -0.3884  0.8047 -0.1732
 3450TIP3    H131765   2.331   4.897   4.729  0.7202  1.5409  1.1199
 3450TIP3    H231766   2.351   4.844   4.869 -1.2772 -0.6407  0.6406
 3451TIP3   OH231767   6.271   2.777  15.365  0.9771  0.0959  0.0827
 3451TIP3    H131768   6.231   2.726  15.295  0.2314  0.0333  0.5398
 3451TIP3    H231769   6.348   2.727  15.392  1.4694  0.2918 -0.9124
 3452TIP3   OH231770   2.086   2.436   3.908 -0.7101  0.3221 -0.0001
 3452TIP3    H131771   2.109   2.475   3.824 -0.1628  2.2015  0.9581
 3452TIP3    H231772   2.065   2.345   3.888 -1.7856  1.0110 -2.3471
 3453TIP3   OH231773   4.278   5.630   5.659  0.6493  0.5973  0.9607
 3453TIP3    H131774   4.353   5.602   5.711  0.8633 -0.4925  0.0894
 3453TIP3    H231775   4.303   5.612   5.568  1.3969  4.8731  0.0807
 3454TIP3   OH231776   1.390   5.764  14.420 -0.0571 -0.7524 -0.2070
 3454TIP3    H131777   1.390   5.717  14.503  1.1569  0.0983  0.3032
 3454TIP3    H231778   1.297   5.773  14.397 -0.3335 -2.6611  0.0677
 3455TIP3   OH231779   2.650   0.652   5.944 -0.1568 -0.0333  0.0858
 3455TIP3    H131780   2.583   0.651   6.012 -1.0724 -0.7239 -0.7944
 3455TIP3    H231781   2.601   0.654   5.862  0.9171  0.2666 -0.5717
 3456TIP3   OH231782   1.480   1.194  17.092  0.1572  0.4421  0.1453
 3456TIP3    H131783   1.473   1.176  16.998 -1.5785  2.6009 -0.2265
 3456TIP3    H231784   1.428   1.273  17.105  0.2262  0.1193  2.9777
 3457TIP3   OH231785   0.061   4.985   6.351  0.7641  0.0599 -0.1105
 3457TIP3    H131786   0.142   5.016   6.390  1.4169 -0.4889 -0.9812
 3457TIP3    H231787   0.050   5.038   6.273 -0.2175  0.7532  0.4830
 3458TIP3   OH231788   0.961   4.708  12.904 -0.2305  0.1593 -0.2305
 3458TIP3    H131789   0.990   4.799  12.909 -1.0828  0.3896  0.7418
 3458TIP3    H231790   0.865   4.714  12.905 -0.3675 -0.8665  3.1060
 3459TIP3   OH231791   3.197   2.752   3.953 -0.4255  0.7656  0.0702
 3459TIP3    H131792   3.211   2.804   3.874  2.3001 -0.8530 -0.6412
 3459TIP3    H231793   3.166   2.668   3.921 -0.6184  0.5301  0.8527
 3460TIP3   OH231794   6.195   5.842  11.884  0.4634 -0.2215 -0.6695
 3460TIP3    H131795   6.204   5.902  11.810  1.5688 -1.0033 -1.2020
 3460TIP3    H231796   6.284   5.835  11.919 -0.0027 -0.0636  0.5926
 3461TIP3   OH231797   6.511   0.443  13.778  0.3607  0.9175 -0.6372
 3461TIP3    H131798   6.564   0.428  13.699  1.9391 -1.6665  0.7833
 3461TIP3    H231799   6.481   0.356  13.803 -1.7692  1.9378  0.5706
 3462TIP3   OH231800   1.665   4.876   0.337  0.1558 -0.1642  0.0543
 3462TIP3    H131801   1.709   4.954   0.371 -0.8550  0.0461  0.8967
 3462TIP3    H231802   1.609   4.909   0.267 -2.8211  0.4658  2.5229
 3463TIP3   OH231803   1.288   5.801   5.806  0.7489  0.0673  0.1197
 3463TIP3    H131804   1.365   5.762   5.763 -0.5111 -1.6226 -0.6985
 3463TIP3    H231805   1.214   5.775   5.751 -0.6382  0.0129  1.9456
 3464TIP3   OH231806   0.928   2.582   0.115 -0.1326  0.7243  0.1551
 3464TIP3    H131807   0.984   2.658   0.129 -0.6298  1.3668 -1.1598
 3464TIP3    H231808   0.859   2.590   0.180  0.2847  0.9409  0.5722
 3465TIP3   OH231809   2.175   6.661   5.330  0.6523  0.3430  0.3309
 3465TIP3    H131810   2.142   6.744   5.295 -0.9082 -0.8669 -1.2345
 3465TIP3    H231811   2.104   6.627   5.384  2.0421  0.9123  2.6373
 3466TIP3   OH231812   4.785   3.704  15.968 -0.2622 -0.4196  0.7502
 3466TIP3    H131813   4.797   3.758  16.045 -0.0463 -1.3200  1.3588
 3466TIP3    H231814   4.693   3.718  15.943 -0.1519  0.3762  0.7649
 3467TIP3   OH231815   0.080   4.431   3.491  0.6898 -0.5320  0.3137
 3467TIP3    H131816   0.054   4.435   3.399 -1.5731 -1.2393  0.8702
 3467TIP3    H231817   0.175   4.444   3.489  0.5984  0.2766 -2.0349
 3468TIP3   OH231818   3.957   2.983  15.148 -0.3877  0.1967  0.5008
 3468TIP3    H131819   3.999   3.030  15.076 -0.8037  0.4625  0.4341
 3468TIP3    H231820   4.029   2.966  15.210 -0.2199  0.8444  0.4916
 3469TIP3   OH231821   4.363   4.829   0.855 -0.1085  0.2695 -0.4944
 3469TIP3    H131822   4.368   4.857   0.946 -1.0699 -0.2374 -0.2805
 3469TIP3    H231823   4.280   4.783   0.848  0.8544 -1.4635 -1.1459
 3470TIP3   OH231824   3.564   2.923  14.599 -0.2333 -0.4545 -0.6579
 3470TIP3    H131825   3.649   2.883  14.581  0.0988 -0.6733  1.2643
 3470TIP3    H231826   3.525   2.935  14.512  2.2764  0.8680 -1.6971
 3471TIP3   OH231827   5.445   0.873   5.417  0.0073  0.3837  0.1677
 3471TIP3    H131828   5.472   0.787   5.387 -0.8564  0.0977  0.1712
 3471TIP3    H231829   5.352   0.862   5.441 -0.1207  1.3139  0.1411
 3472TIP3   OH231830   6.122   4.130  11.268 -0.2237  0.3090 -0.2551
 3472TIP3    H131831   6.151   4.085  11.347 -0.2552  0.7854  0.0310
 3472TIP3    H231832   6.111   4.221  11.295  1.5995  0.8844 -1.2476
 3473TIP3   OH231833   2.813   4.565   0.676  0.3997 -0.4217 -0.5232
 3473TIP3    H131834   2.805   4.482   0.722  0.5089  0.9295  2.1553
 3473TIP3    H231835   2.810   4.542   0.584 -0.6176 -3.2718  0.1164
 3474TIP3   OH231836   0.707   1.551   1.202 -0.6228 -0.2380 -0.2221
 3474TIP3    H131837   0.754   1.553   1.119 -0.5531  2.0743 -0.2157
 3474TIP3    H231838   0.616   1.533   1.177 -0.8617  1.7710 -1.0395
 3475TIP3   OH231839   6.545   0.965  16.262 -0.1497  0.8969  0.1333
 3475TIP3    H131840   6.476   0.973  16.329 -0.5966 -0.5091 -0.1118
 3475TIP3    H231841   6.561   0.871  16.256 -0.4830  0.9203 -2.0885
 3476TIP3   OH231842   3.592   5.059  17.183 -0.1314 -0.3178 -0.2527
 3476TIP3    H131843   3.537   5.005  17.240 -0.6857 -0.0528 -0.5243
 3476TIP3    H231844   3.531   5.123  17.145  0.1878 -0.5861 -1.2538
 3477TIP3   OH231845   1.606   2.235   6.054 -0.2907 -0.2474 -0.1627
 3477TIP3    H131846   1.584   2.170   6.120  1.9289 -2.6987 -1.6683
 3477TIP3    H231847   1.668   2.294   6.097  1.8983 -2.3831 -0.1691
 3478TIP3   OH231848   0.949   5.731   0.898 -0.4134  0.2124 -0.6244
 3478TIP3    H131849   0.885   5.780   0.847 -0.7447  0.1853 -0.2389
 3478TIP3    H231850   1.007   5.798   0.934  1.1087  0.1097 -2.7259
 3479TIP3   OH231851   0.616   5.430   3.992  0.7880 -0.2274 -0.0703
 3479TIP3    H131852   0.654   5.441   3.905  1.1898 -1.7203 -0.1175
 3479TIP3    H231853   0.547   5.364   3.980 -1.6159  2.1028  0.0949
 3480TIP3   OH231854   5.273   4.184   0.497 -0.4924  0.2769  0.3046
 3480TIP3    H131855   5.288   4.205   0.589 -3.3127  0.5516  0.8018
 3480TIP3    H231856   5.178   4.171   0.491 -0.1709 -1.6186 -2.1974
 3481TIP3   OH231857   1.593   2.316  11.967  0.0544 -0.2297 -0.2583
 3481TIP3    H131858   1.609   2.356  11.881  1.3806 -1.1442 -0.4687
 3481TIP3    H231859   1.584   2.223  11.949  0.2174 -0.4171  0.5768
 3482TIP3   OH231860   6.480   1.316  12.498 -0.0880  0.5448 -0.1126
 3482TIP3    H131861   6.556   1.297  12.444  1.3945 -0.2752  2.1112
 3482TIP3    H231862   6.473   1.412  12.499 -0.9988  0.5734 -2.7423
 3483TIP3   OH231863   0.782   0.685   0.868 -0.1695 -0.2613  0.1746
 3483TIP3    H131864   0.827   0.601   0.857 -2.4816 -1.7187  1.0758
 3483TIP3    H231865   0.774   0.696   0.962 -1.5987 -0.0557  0.0583
 3484TIP3   OH231866   5.235   6.426   0.248  0.0362 -0.8909 -0.3285
 3484TIP3    H131867   5.286   6.490   0.297 -1.8587  0.7840 -0.3981
 3484TIP3    H231868   5.268   6.432   0.158  1.9028 -2.2581  0.2143
 3485TIP3   OH231869   6.100   4.115   4.623  0.3436  0.1039  0.2815
 3485TIP3    H131870   6.102   4.042   4.684  0.5133 -0.3648 -0.2839
 3485TIP3    H231871   6.045   4.181   4.667 -1.0260 -0.9191  0.1662
 3486TIP3   OH231872   4.964   1.231   2.295 -0.0438 -0.6117  0.2730
 3486TIP3    H131873   4.976   1.146   2.252  1.1707 -0.7193  0.7839
 3486TIP3    H231874   4.999   1.218   2.383  0.4646  0.5017  0.2478
 3487TIP3   OH231875   5.448   3.641  12.344  0.7532 -0.0465  0.1861
 3487TIP3    H131876   5.515   3.707  12.364 -0.0573  1.2824 -1.1863
 3487TIP3    H231877   5.369   3.675  12.385  0.5069 -0.6046  0.1738
 3488TIP3   OH231878   3.900   4.287   1.377 -0.2846 -0.1896 -0.3387
 3488TIP3    H131879   3.937   4.228   1.442  0.5017  1.2081  0.5339
 3488TIP3    H231880   3.812   4.253   1.361 -0.4864 -0.5990  1.4253
 3489TIP3   OH231881   4.811   4.100  12.927  0.2496 -0.1862 -0.4458
 3489TIP3    H131882   4.828   4.174  12.868 -0.7932  0.5578  0.1540
 3489TIP3    H231883   4.885   4.099  12.987 -0.2491  1.0877  0.2337
 3490TIP3   OH231884   5.854   6.384   4.163 -0.2920  0.2896  0.4126
 3490TIP3    H131885   5.879   6.394   4.255  0.4487 -1.1126  0.3968
 3490TIP3    H231886   5.810   6.299   4.160 -0.0054  0.1709 -0.5900
 3491TIP3   OH231887   1.901   0.024   4.820  0.3427 -0.4751  0.0252
 3491TIP3    H131888   1.894   0.116   4.845  0.0174 -0.5380  0.1693
 3491TIP3    H231889   1.886  -0.024   4.901 -0.6013 -0.6761 -0.2649
 3492TIP3   OH231890   4.938   1.670   5.606  0.3157  0.0905 -0.1061
 3492TIP3    H131891   4.971   1.580   5.600 -0.9456 -0.3623 -0.5908
 3492TIP3    H231892   4.900   1.675   5.694 -0.1662 -0.0631 -0.2996
 3493TIP3   OH231893   2.553   4.926  14.442 -1.0089  0.3758 -1.0211
 3493TIP3    H131894   2.563   4.998  14.380  1.4389  0.6784 -0.3741
 3493TIP3    H231895   2.544   4.968  14.528 -0.1859 -0.0394 -0.7138
 3494TIP3   OH231896   4.267   3.094  11.624 -1.0366  0.2750  0.4541
 3494TIP3    H131897   4.196   3.031  11.623 -0.1015 -0.8011  0.2731
 3494TIP3    H231898   4.314   3.077  11.706  0.5329 -0.7993 -0.6059
 3495TIP3   OH231899   5.162   0.892   3.204  0.0825 -0.3585  0.3640
 3495TIP3    H131900   5.097   0.922   3.267 -0.1635  1.6702 -0.7591
 3495TIP3    H231901   5.111   0.859   3.130  0.3258  0.1008 -0.0156
 3496TIP3   OH231902   3.481   1.742  14.921  0.1489  1.0654 -0.3653
 3496TIP3    H131903   3.558   1.727  14.867  1.4359  0.3305  1.5536
 3496TIP3    H231904   3.512   1.799  14.991 -0.8682  0.2056  0.8296
 3497TIP3   OH231905   1.828   4.438   2.380 -0.0984  0.5196  0.3964
 3497TIP3    H131906   1.739   4.472   2.371 -0.2348  0.3989  1.2122
 3497TIP3    H231907   1.850   4.406   2.293 -1.1491 -0.1402  0.3490
 3498TIP3   OH231908   1.496   0.033   4.075 -0.1431  0.7513  0.2555
 3498TIP3    H131909   1.479  -0.004   4.162  3.1399 -1.3065  0.2114
 3498TIP3    H231910   1.412   0.068   4.047 -2.1302 -1.4321  2.9020
 3499TIP3   OH231911   5.991   3.438   5.716  0.1027  0.0050  0.2126
 3499TIP3    H131912   5.982   3.437   5.621 -0.2681 -0.8520  0.2399
 3499TIP3    H231913   5.992   3.530   5.740 -3.5958  0.3046 -0.2972
 3500TIP3   OH231914   3.806   5.757  15.812 -0.5291  0.0072 -0.1956
 3500TIP3    H131915   3.728   5.782  15.863 -2.1701 -2.4309 -1.3143
 3500TIP3    H231916   3.863   5.713  15.876 -0.9599  0.0890  0.2547
 3501TIP3   OH231917   2.880   3.462  14.179  0.7115 -0.1029 -0.1177
 3501TIP3    H131918   2.956   3.504  14.220  0.3610 -0.1961  0.6327
 3501TIP3    H231919   2.805   3.510  14.212  0.4319 -0.0333 -0.8379
 3502TIP3   OH231920   4.118   0.953  10.881  0.0718  0.2462 -0.1778
 3502TIP3    H131921   4.120   1.015  10.808  1.2355  1.5029  0.8715
 3502TIP3    H231922   4.030   0.914  10.876 -0.8202  2.1828 -0.7327
 3503TIP3   OH231923   5.516   5.864  16.286  0.1641  0.6627 -0.1451
 3503TIP3    H131924   5.508   5.914  16.204 -0.2242  1.5143  0.4073
 3503TIP3    H231925   5.443   5.892  16.339  0.2177 -0.1499  0.3769
 3504TIP3   OH231926   2.397   4.738   5.205  0.2101 -0.1027 -0.6562
 3504TIP3    H131927   2.408   4.650   5.169 -1.5002 -0.8713  0.5693
 3504TIP3    H231928   2.438   4.795   5.141 -0.8405 -1.5820 -2.7616
 3505TIP3   OH231929   0.025   5.032  16.877  0.0555 -0.5095  0.0412
 3505TIP3    H131930   0.003   5.104  16.936 -0.6657 -0.6403 -0.0542
 3505TIP3    H231931  -0.059   4.992  16.855  0.4322 -1.2844 -0.0355
 3506TIP3   OH231932   5.547   1.643   5.103  0.5844  0.7385  0.2593
 3506TIP3    H131933   5.614   1.655   5.169  0.9448  0.1207  0.0083
 3506TIP3    H231934   5.493   1.722   5.109  1.3188  1.2269  0.4704
 3507TIP3   OH231935   3.984   6.301  11.904 -0.2430 -0.4410  0.0494
 3507TIP3    H131936   3.978   6.237  11.834 -2.6988 -1.9040  1.4543
 3507TIP3    H231937   3.980   6.386  11.860 -3.1983 -1.2892 -1.5635
 3508TIP3   OH231938   0.119   5.497  15.079  0.4681  0.0358  0.0116
 3508TIP3    H131939   0.142   5.590  15.079  2.2500 -0.3597 -0.3219
 3508TIP3    H231940   0.046   5.490  15.141  0.8291  1.5438  0.6582
 3509TIP3   OH231941   6.304   4.850  15.739  0.4346  0.2136 -0.0048
 3509TIP3    H131942   6.245   4.880  15.809  0.3097 -0.3469  0.1383
 3509TIP3    H231943   6.388   4.890  15.759 -0.0836  1.6961 -0.6727
 3510TIP3   OH231944   4.647   4.039   3.876  0.3341  0.3183 -0.5675
 3510TIP3    H131945   4.732   4.073   3.901 -0.3463 -0.0070  2.6931
 3510TIP3    H231946   4.664   3.979   3.803  2.7779  0.6587 -0.3306
 3511TIP3   OH231947   5.914   0.798   2.800 -0.7201  0.8373  0.1721
 3511TIP3    H131948   5.965   0.860   2.746  0.0712  0.0087 -0.0663
 3511TIP3    H231949   5.966   0.789   2.880 -1.4145  1.3412  0.6847
 3512TIP3   OH231950   1.720   4.381   0.823 -0.0630  0.4382  0.5539
 3512TIP3    H131951   1.775   4.312   0.860 -0.2675  0.0633  0.1679
 3512TIP3    H231952   1.782   4.444   0.784  0.1762  1.0564  1.8791
 3513TIP3   OH231953   4.024   6.497   2.463  0.1414  0.0144  0.0461
 3513TIP3    H131954   3.949   6.547   2.433  0.4060  0.4253  0.0605
 3513TIP3    H231955   3.991   6.447   2.537 -0.3055 -0.3884 -0.4235
 3514TIP3   OH231956   5.497   4.450   4.908 -0.4132 -0.2793 -1.0867
 3514TIP3    H131957   5.433   4.380   4.901  0.0687 -0.7958 -0.3766
 3514TIP3    H231958   5.582   4.406   4.909 -0.0583  0.3693 -1.5451
 3515TIP3   OH231959   2.616   5.765   5.261 -0.5303  0.2040  0.1316
 3515TIP3    H131960   2.554   5.837   5.275 -1.3312 -0.7279  1.6846
 3515TIP3    H231961   2.680   5.775   5.332 -0.1668 -0.1371 -0.1487
 3516TIP3   OH231962   5.706   3.439   5.747 -0.1535  0.0370  0.0149
 3516TIP3    H131963   5.800   3.445   5.732  0.2308 -3.5922 -0.1042
 3516TIP3    H231964   5.690   3.492   5.825  1.6537  1.9627 -0.8295
 3517TIP3   OH231965   0.828   2.866  11.160  0.1488 -0.2080  0.0137
 3517TIP3    H131966   0.733   2.871  11.151  0.0320  3.8126  1.2134
 3517TIP3    H231967   0.862   2.881  11.072 -0.3517 -0.1488 -0.1704
 3518TIP3   OH231968   4.873   2.813  15.080  0.3982  0.1674  0.5683
 3518TIP3    H131969   4.850   2.849  14.994  0.5890 -0.2772  0.3329
 3518TIP3    H231970   4.790   2.784  15.117  0.2779  0.5988  0.6514
 3519TIP3   OH231971   4.936   4.615  10.866 -1.0089 -0.0239  0.0854
 3519TIP3    H131972   4.948   4.709  10.880 -1.8277  0.2927 -1.1961
 3519TIP3    H231973   4.844   4.599  10.885 -0.8870 -0.5586  0.2415
 3520TIP3   OH231974   0.926   5.335  17.358 -0.2847  0.2852 -0.3527
 3520TIP3    H131975   0.877   5.253  17.346 -2.7078  1.7971 -1.5955
 3520TIP3    H231976   0.867   5.403  17.324  1.6266  2.5666  0.6528
 3521TIP3   OH231977   2.113   2.463  15.900 -0.0834  0.4696 -0.4247
 3521TIP3    H131978   2.077   2.477  15.988  1.5729 -0.9461  0.5426
 3521TIP3    H231979   2.065   2.387  15.866  1.0340 -0.6317  0.3613
 3522TIP3   OH231980   0.250   3.576   5.856  0.1411  0.5687 -0.3670
 3522TIP3    H131981   0.173   3.554   5.805  0.5858  0.3927 -0.9776
 3522TIP3    H231982   0.216   3.621   5.933 -0.5060  1.5346 -1.1859
 3523TIP3   OH231983   2.575   6.709   0.190 -0.5497 -0.1670  0.3516
 3523TIP3    H131984   2.609   6.789   0.229 -0.0404 -0.3202  0.2313
 3523TIP3    H231985   2.636   6.641   0.219  0.1479 -0.2014 -1.1395
 3524TIP3   OH231986   4.616   6.419  16.998 -0.3541  0.1711 -0.3273
 3524TIP3    H131987   4.670   6.495  16.977  0.4220 -0.2622  0.0588
 3524TIP3    H231988   4.543   6.454  17.049 -0.0628  0.6676 -0.2518
 3525TIP3   OH231989   5.671   5.392  12.977  0.2031  0.4058 -0.0328
 3525TIP3    H131990   5.721   5.371  13.056  0.8021 -0.7778 -0.6927
 3525TIP3    H231991   5.734   5.433  12.918  0.5514 -1.4243 -1.0106
 3526TIP3   OH231992   5.932   1.844   4.053  0.3101 -0.4449  0.1750
 3526TIP3    H131993   5.935   1.799   3.968  1.8832 -0.4078  0.1726
 3526TIP3    H231994   6.011   1.898   4.053 -0.2680  0.4287  1.2082
 3527TIP3   OH231995   0.623   1.561  13.979 -0.0050  0.7702  0.1331
 3527TIP3    H131996   0.594   1.598  14.062 -0.7727  1.2901 -0.3597
 3527TIP3    H231997   0.575   1.610  13.912 -0.0954 -0.2643 -0.5867
 3528TIP3   OH231998   1.231   4.411   5.407  0.7496 -0.0454 -0.7680
 3528TIP3    H131999   1.276   4.452   5.333  0.2607  1.9630 -0.0042
 3528TIP3    H232000   1.232   4.477   5.476 -2.3471 -0.2956 -0.3306
 3529TIP3   OH232001   0.942   0.819   3.403  0.1032 -0.3254 -0.2149
 3529TIP3    H132002   0.999   0.893   3.384  1.5807 -1.2629  0.3733
 3529TIP3    H232003   0.978   0.780   3.482 -0.4775 -1.8132 -0.6318
 3530TIP3   OH232004   2.499   3.589   2.069 -0.3701  0.2531 -0.1462
 3530TIP3    H132005   2.417   3.636   2.082 -0.8436 -0.1797 -1.4945
 3530TIP3    H232006   2.500   3.565   1.977  0.2768 -1.6193  0.2962
 3531TIP3   OH232007   0.637   3.864  15.314 -0.5523  0.2723  0.4809
 3531TIP3    H132008   0.728   3.890  15.332 -0.0662  0.0473 -1.4282
 3531TIP3    H232009   0.645   3.787  15.258 -1.9647 -0.7565  1.5976
 3532TIP3   OH232010   2.406   3.724   3.619 -0.8265  0.2949  0.2778
 3532TIP3    H132011   2.325   3.724   3.569  0.1155  3.9312 -1.6021
 3532TIP3    H232012   2.475   3.710   3.555  0.2408  1.5773  1.0859
 3533TIP3   OH232013   6.387   4.966  14.334  0.1648 -0.6466 -0.5641
 3533TIP3    H132014   6.395   5.029  14.262 -0.0240  0.6729  0.5201
 3533TIP3    H232015   6.460   4.906  14.322  2.1953  1.5488  0.0049
 3534TIP3   OH232016   4.483   0.248  12.150  0.6848 -0.2839 -0.3535
 3534TIP3    H132017   4.400   0.294  12.135  0.1920 -1.4022 -1.2784
 3534TIP3    H232018   4.495   0.251  12.245 -0.1055  0.4153 -0.2592
 3535TIP3   OH232019   2.744   3.702  10.520  0.3548 -0.3672 -0.4379
 3535TIP3    H132020   2.790   3.635  10.571 -1.0775 -0.7982  0.3548
 3535TIP3    H232021   2.793   3.783  10.535 -0.2713 -0.3725  2.0644
 3536TIP3   OH232022   6.670   3.692   4.336  0.6170  0.3857 -0.2389
 3536TIP3    H132023   6.594   3.749   4.341  1.3317  1.6085 -2.2288
 3536TIP3    H232024   6.744   3.750   4.356  1.3375  0.1962 -2.1374
 3537TIP3   OH232025   0.868   5.816  13.653  0.2035 -0.6634 -0.4380
 3537TIP3    H132026   0.810   5.857  13.589 -1.6487  0.8662  2.0192
 3537TIP3    H232027   0.934   5.883  13.672 -2.0902  0.9444  2.6530
 3538TIP3   OH232028   2.003   1.937   2.244 -0.5600  0.1005 -0.2265
 3538TIP3    H132029   2.019   1.977   2.159 -2.2307  0.1916 -0.5171
 3538TIP3    H232030   1.958   1.855   2.225 -0.1222 -0.3368  0.5373
 3539TIP3   OH232031   6.060   4.699  15.959  0.5072 -0.1652  0.6385
 3539TIP3    H132032   6.087   4.686  15.867 -0.1855 -2.0444  0.6637
 3539TIP3    H232033   6.038   4.792  15.964  1.6579  0.2357 -0.7965
 3540TIP3   OH232034   5.878   6.713   2.168 -0.0682 -0.2945  0.3915
 3540TIP3    H132035   5.955   6.696   2.114  0.3092  1.3894  0.3290
 3540TIP3    H232036   5.835   6.787   2.126 -1.9377 -1.4011  0.2384
 3541TIP3   OH232037   4.317   2.240  13.217 -0.5854  0.1177 -0.6828
 3541TIP3    H132038   4.252   2.205  13.155 -1.2139 -0.3608  0.2212
 3541TIP3    H232039   4.309   2.184  13.294  1.9979 -0.9446 -1.0714
 3542TIP3   OH232040   4.212   1.141   5.996 -0.0411 -0.5873  0.0443
 3542TIP3    H132041   4.210   1.083   6.072 -1.0400 -0.6709 -0.0313
 3542TIP3    H232042   4.288   1.197   6.010 -0.6378 -0.1124  1.4808
 3543TIP3   OH232043   4.587   2.858  13.907 -0.5279 -0.1100  0.8219
 3543TIP3    H132044   4.526   2.930  13.889 -0.0272  0.6452  2.0319
 3543TIP3    H232045   4.571   2.835  13.998 -0.4343 -1.3223  0.5488
 3544TIP3   OH232046   1.082   4.071  17.021 -0.0405 -0.1654 -0.7270
 3544TIP3    H132047   1.161   4.081  17.074  0.7042 -0.7569 -1.6852
 3544TIP3    H232048   1.063   4.159  16.989 -1.6981  0.6171  2.0963
 3545TIP3   OH232049   0.942   5.091  14.375  0.2215  0.2397 -0.1914
 3545TIP3    H132050   0.944   5.181  14.408  0.6596  0.4392 -0.7409
 3545TIP3    H232051   0.854   5.060  14.393  0.1189  0.7298  0.1444
 3546TIP3   OH232052   0.783   5.853   1.955  0.4269  1.2608  0.1009
 3546TIP3    H132053   0.865   5.865   2.002  0.9232 -0.0788 -0.3921
 3546TIP3    H232054   0.777   5.759   1.939 -0.9406  1.3954 -0.3539
 3547TIP3   OH232055   4.173   5.229   3.289 -0.2720  0.2406 -0.5985
 3547TIP3    H132056   4.190   5.140   3.258 -0.5673  0.5519 -1.6876
 3547TIP3    H232057   4.086   5.224   3.329 -0.2069 -0.0025 -0.4859
 3548TIP3   OH232058   1.154   5.185  11.759  0.2713  0.9115  0.0296
 3548TIP3    H132059   1.185   5.139  11.837 -0.9367 -0.4433 -0.2417
 3548TIP3    H232060   1.233   5.210  11.712  0.9983 -1.0801  0.1242
 3549TIP3   OH232061   1.075   5.408   2.267  0.0545  0.3695  0.0906
 3549TIP3    H132062   1.091   5.328   2.317 -2.4628 -0.1187  0.2463
 3549TIP3    H232063   1.111   5.478   2.321  3.9872 -0.6582 -0.8622
 3550TIP3   OH232064   5.733   2.817   6.596  0.1814 -0.4696 -0.0021
 3550TIP3    H132065   5.782   2.745   6.556  0.6007 -0.2391  0.0968
 3550TIP3    H232066   5.770   2.825   6.684  2.0414  1.6451 -0.8863
 3551TIP3   OH232067   2.178   5.654   4.616 -0.5154  0.6908 -0.0093
 3551TIP3    H132068   2.085   5.674   4.601 -0.7056  0.1172  0.3850
 3551TIP3    H232069   2.191   5.669   4.709 -0.0537  1.3672 -0.1747
 3552TIP3   OH232070   1.820   1.530   1.710  0.2252  0.3505 -0.8816
 3552TIP3    H132071   1.766   1.458   1.678  0.7084 -0.9090  0.9663
 3552TIP3    H232072   1.910   1.501   1.695  0.4246  0.9976 -0.9729
 3553TIP3   OH232073   3.927   5.601   1.678 -0.7417  0.2501 -0.1801
 3553TIP3    H132074   4.008   5.651   1.688  0.1403 -1.4845  2.5028
 3553TIP3    H232075   3.951   5.530   1.618  0.0068 -0.6629  1.1476
 3554TIP3   OH232076   1.907   1.769  13.781 -0.4377 -0.1301  0.2132
 3554TIP3    H132077   1.880   1.838  13.721  1.1364  0.6145  0.2957
 3554TIP3    H232078   1.988   1.802  13.821  0.5796 -2.1571 -0.0019
 3555TIP3   OH232079   4.341   4.293  11.548  0.5636 -0.0766 -0.2087
 3555TIP3    H132080   4.416   4.259  11.499 -0.2536 -0.3188 -1.3199
 3555TIP3    H232081   4.307   4.217  11.595 -0.7032 -0.6691 -1.9724
 3556TIP3   OH232082   1.506   1.817  15.900  0.2579 -0.3592 -0.3418
 3556TIP3    H132083   1.538   1.895  15.944 -0.8018 -0.0426 -0.1121
 3556TIP3    H232084   1.419   1.840  15.869  0.8160 -0.6894 -2.3089
 3557TIP3   OH232085   3.452   1.605  14.617 -0.5090 -0.1626  0.0121
 3557TIP3    H132086   3.375   1.594  14.673  0.4850 -0.8155  1.3157
 3557TIP3    H232087   3.505   1.670  14.663 -0.2290  0.2275 -0.8422
 3558TIP3   OH232088   5.327   3.285  13.777 -0.1874  0.0284 -0.8124
 3558TIP3    H132089   5.237   3.269  13.806 -0.1521  3.3054  1.7138
 3558TIP3    H232090   5.381   3.266  13.854  1.2837 -1.4802 -2.1559
 3559TIP3   OH232091   6.486   5.930  15.788 -0.3342 -0.5039 -0.1340
 3559TIP3    H132092   6.501   6.019  15.820  0.6850 -0.9565  0.7123
 3559TIP3    H232093   6.402   5.934  15.742 -0.1687  0.9467 -0.3368
 3560TIP3   OH232094   1.025   4.223  15.027 -0.4096  0.3886  0.7910
 3560TIP3    H132095   0.970   4.293  14.992 -0.1901 -0.1113 -0.5982
 3560TIP3    H232096   1.106   4.268  15.054  0.2340  0.5575 -1.2302
 3561TIP3   OH232097   4.878   2.051   2.377 -0.7330 -0.0491 -0.6186
 3561TIP3    H132098   4.868   2.145   2.391 -0.3536  0.1430 -1.5206
 3561TIP3    H232099   4.858   2.038   2.284  0.4493 -0.6535 -0.8196
 3562TIP3   OH232100   5.829   3.001  12.391 -0.7956  0.1548 -0.4671
 3562TIP3    H132101   5.911   2.970  12.430 -0.1036  0.5381 -1.5803
 3562TIP3    H232102   5.768   3.007  12.465  0.8811  2.2549  0.8595
 3563TIP3   OH232103   3.859   4.049  16.531 -0.7856  0.2834 -0.3122
 3563TIP3    H132104   3.899   4.135  16.516 -0.3411 -0.1234 -1.5400
 3563TIP3    H232105   3.933   3.992  16.551 -0.9087 -0.1449 -1.0612
 3564TIP3   OH232106   2.545   0.252   2.946  0.0831  0.2175  0.3866
 3564TIP3    H132107   2.576   0.339   2.925 -1.0835  0.4677 -0.4205
 3564TIP3    H232108   2.583   0.232   3.031 -1.8278  2.6767  1.9553
 3565TIP3   OH232109   5.221   4.591   2.211  0.0427  0.0976 -0.0077
 3565TIP3    H132110   5.262   4.520   2.162 -0.1255 -1.1942  1.6448
 3565TIP3    H232111   5.294   4.640   2.248  0.1457  0.4257 -0.6292
 3566TIP3   OH232112   6.696   2.044   3.478  0.2951  0.4945  0.1798
 3566TIP3    H132113   6.715   2.108   3.410  1.7430 -1.0525 -0.9663
 3566TIP3    H232114   6.765   2.057   3.543 -0.2029  0.9707  0.6211
 3567TIP3   OH232115   3.887   5.506  12.188  0.5883  0.4583  0.1363
 3567TIP3    H132116   3.901   5.596  12.218  0.8546  1.4174 -2.6323
 3567TIP3    H232117   3.853   5.515  12.099  1.3498 -2.2035 -0.5136
 3568TIP3   OH232118   2.821   2.726  12.959 -0.1088  0.1315  0.5496
 3568TIP3    H132119   2.771   2.802  12.988  0.5347  0.7412  0.1073
 3568TIP3    H232120   2.819   2.730  12.863  0.9931  0.3238  0.5160
 3569TIP3   OH232121   6.574   6.210  10.768  0.3759  0.4373  0.5330
 3569TIP3    H132122   6.550   6.131  10.721  2.2843  0.4636 -0.5972
 3569TIP3    H232123   6.612   6.178  10.850  2.0046  0.0812 -0.3184
 3570TIP3   OH232124   1.996   2.863  11.244  0.6017  0.3884 -0.5112
 3570TIP3    H132125   1.911   2.865  11.287  1.5223  1.2050  1.3553
 3570TIP3    H232126   1.976   2.877  11.151 -1.4688 -1.7704 -0.4929
 3571TIP3   OH232127   6.605   0.018   0.506 -0.0026 -0.5201  0.7388
 3571TIP3    H132128   6.515   0.044   0.528 -0.0860 -0.6632  0.5715
 3571TIP3    H232129   6.607  -0.076   0.520  0.1812 -0.4873  0.9374
 3572TIP3   OH232130   6.488   4.322  14.030  0.0207 -0.2209  0.1318
 3572TIP3    H132131   6.514   4.281  13.947 -1.3985  0.3222 -0.6214
 3572TIP3    H232132   6.459   4.410  14.006  2.6766  1.1808  1.6795
 3573TIP3   OH232133   5.607   4.477   5.226 -0.1383  0.2269 -1.0966
 3573TIP3    H132134   5.673   4.533   5.184 -1.7213  2.8504 -0.2891
 3573TIP3    H232135   5.524   4.522   5.211 -1.4908 -1.7487 -0.0292
 3574TIP3   OH232136   1.171   3.097  13.333 -0.0092  0.1524  0.0942
 3574TIP3    H132137   1.152   3.155  13.406 -0.5336 -0.0523  0.1265
 3574TIP3    H232138   1.257   3.124  13.302 -0.1087  0.7271  0.3154
 3575TIP3   OH232139   4.780   1.577   0.632  0.2694  0.1521  0.1795
 3575TIP3    H132140   4.825   1.499   0.598  1.0063 -0.7185  2.8939
 3575TIP3    H232141   4.694   1.546   0.658  0.1170  0.5269  0.1313
 3576TIP3   OH232142   4.595   5.774   6.173 -0.5576  0.4889  0.1332
 3576TIP3    H132143   4.555   5.700   6.127  0.0722  0.6709 -0.7223
 3576TIP3    H232144   4.548   5.778   6.257 -1.1136 -0.4009 -0.1221
 3577TIP3   OH232145   6.695   4.719  16.796 -0.1428  0.1633 -0.3395
 3577TIP3    H132146   6.716   4.738  16.705 -0.6896  0.8916 -0.3213
 3577TIP3    H232147   6.614   4.668  16.793 -0.4681  0.6696 -0.2388
 3578TIP3   OH232148   5.309   3.630   5.161  0.6203 -0.5038 -0.4213
 3578TIP3    H132149   5.341   3.572   5.231  0.8636 -0.0953 -0.1913
 3578TIP3    H232150   5.388   3.654   5.112  0.2609 -2.1853 -1.9293
 3579TIP3   OH232151   3.691   1.560   0.932  0.1413  0.0180  0.1278
 3579TIP3    H132152   3.629   1.571   0.860 -0.2752 -1.4556  0.2410
 3579TIP3    H232153   3.643   1.513   0.999  1.2441 -0.7545  0.4066
 3580TIP3   OH232154   2.682   0.830   0.231  0.4818  0.0992  0.1484
 3580TIP3    H132155   2.772   0.839   0.260  0.4923 -0.4736  0.2917
 3580TIP3    H232156   2.674   0.892   0.158  0.9546  0.2253  0.2005
 3581TIP3   OH232157   1.848   6.272   5.552  0.0434 -0.2406 -0.1323
 3581TIP3    H132158   1.773   6.255   5.494  0.6726  0.0247 -1.0393
 3581TIP3    H232159   1.820   6.238   5.637 -1.8732  1.5320  0.0311
 3582TIP3   OH232160   5.418   4.149   5.368 -0.3562  0.1898 -0.2835
 3582TIP3    H132161   5.404   4.216   5.300 -0.2630 -0.7422 -1.2399
 3582TIP3    H232162   5.451   4.073   5.320  1.5446  0.1093  1.0480
 3583TIP3   OH232163   0.765   0.443  16.932 -0.2300 -0.3095 -0.1108
 3583TIP3    H132164   0.824   0.469  17.002 -1.1738 -0.5959  0.8135
 3583TIP3    H232165   0.679   0.476  16.959 -0.6324 -0.5238 -1.0724
 3584TIP3   OH232166   3.320   2.812   1.144  0.1934 -0.0966 -0.1767
 3584TIP3    H132167   3.355   2.901   1.143  1.2743 -0.5042 -1.9940
 3584TIP3    H232168   3.245   2.817   1.204  1.1952  1.6305  1.0377
 3585TIP3   OH232169   5.444   3.927  15.398  0.3499  0.5821 -0.3423
 3585TIP3    H132170   5.401   3.851  15.360  0.6627  0.5636 -0.6683
 3585TIP3    H232171   5.492   3.894  15.474 -0.1358  0.5875 -0.0354
 3586TIP3   OH232172   6.605   0.729  14.883  0.1872  0.3351  0.3277
 3586TIP3    H132173   6.682   0.786  14.879  0.3142  0.1248 -0.3238
 3586TIP3    H232174   6.635   0.653  14.933  0.7243 -0.2039 -0.7615
 3587TIP3   OH232175   1.086   2.397   2.855 -0.3176  0.0822 -0.6742
 3587TIP3    H132176   1.095   2.318   2.907 -0.2490  2.6575  3.7801
 3587TIP3    H232177   1.164   2.400   2.800  1.5080 -1.2840  1.6666
 3588TIP3   OH232178   6.382   1.763  14.588  0.0046 -0.4298  0.2234
 3588TIP3    H132179   6.404   1.737  14.677 -2.2331 -3.0754  0.1492
 3588TIP3    H232180   6.292   1.797  14.594 -0.8046 -2.1575 -1.1798
 3589TIP3   OH232181   2.301   6.408   6.426  0.2187  0.4061  0.0595
 3589TIP3    H132182   2.281   6.315   6.417  0.3707  0.3463  0.3202
 3589TIP3    H232183   2.346   6.415   6.510  0.1025  0.7320  0.0979
 3590TIP3   OH232184   1.633   5.838   3.675 -0.1286 -0.3001 -0.5975
 3590TIP3    H132185   1.661   5.929   3.687 -1.0089  0.1128 -1.5486
 3590TIP3    H232186   1.715   5.788   3.669  0.3631  0.2951  0.7263
 3591TIP3   OH232187   2.876   5.262  16.853  0.3904  0.6524  0.0634
 3591TIP3    H132188   2.902   5.225  16.938  1.6935 -0.4574 -0.7876
 3591TIP3    H232189   2.874   5.187  16.793  0.0737  1.5129 -1.0335
 3592TIP3   OH232190   5.531   6.179  11.623 -0.5201  0.3963 -0.8301
 3592TIP3    H132191   5.534   6.238  11.548 -1.3937  0.8394 -0.5270
 3592TIP3    H232192   5.525   6.237  11.699  0.1144 -0.0543 -0.4289
 3593TIP3   OH232193   1.679   4.741  16.253 -0.3660 -0.4522 -0.4772
 3593TIP3    H132194   1.614   4.754  16.183 -0.9394 -0.0841  0.1157
 3593TIP3    H232195   1.753   4.699  16.209 -0.8925 -0.6173 -1.2256
 3594TIP3   OH232196   3.008   5.966  11.510 -0.2248 -0.3312  0.3770
 3594TIP3    H132197   2.999   5.963  11.415 -0.2432 -1.9695  0.3940
 3594TIP3    H232198   2.919   5.956  11.543 -0.3857  1.4791  0.6077
 3595TIP3   OH232199   2.802   2.716  10.936 -0.4158 -0.4953 -0.0956
 3595TIP3    H132200   2.716   2.755  10.919 -0.3939 -0.8028 -0.9555
 3595TIP3    H232201   2.857   2.745  10.863  0.4775  0.4600  0.9412
 3596TIP3   OH232202   3.724   2.800   3.272 -0.2463  0.1295  0.5207
 3596TIP3    H132203   3.760   2.866   3.213 -0.4418 -0.2961 -0.0934
 3596TIP3    H232204   3.787   2.728   3.268 -0.6616 -0.2257  0.1980
 3597TIP3   OH232205   6.562   2.627  13.665  0.1325 -0.2265  0.5325
 3597TIP3    H132206   6.503   2.641  13.739  2.0007 -1.7881  2.4330
 3597TIP3    H232207   6.617   2.706  13.663  0.6488 -0.5615  1.3798
 3598TIP3   OH232208   4.546   4.287  14.925 -0.7055 -0.0653  0.8056
 3598TIP3    H132209   4.554   4.353  14.994 -1.7371  0.0465  0.8370
 3598TIP3    H232210   4.530   4.205  14.972  1.0409 -0.4551  0.7887
 3599TIP3   OH232211   2.264   1.648  11.693  0.7775  0.4049  0.0662
 3599TIP3    H132212   2.223   1.731  11.718 -1.4724 -0.6768  0.2471
 3599TIP3    H232213   2.222   1.624  11.611  0.0257 -1.3979  0.9173
 3600TIP3   OH232214   2.853   6.498   2.205 -0.0374  0.7926 -0.0262
 3600TIP3    H132215   2.784   6.436   2.180 -0.8351  1.0484  1.4251
 3600TIP3    H232216   2.925   6.479   2.145 -0.5471 -1.0163 -0.1283
 3601TIP3   OH232217   3.706   6.204  11.951 -0.0767 -1.2474  0.0634
 3601TIP3    H132218   3.756   6.151  11.889  0.0054 -0.1429 -0.8418
 3601TIP3    H232219   3.771   6.262  11.991 -0.2286 -1.5501  0.7646
 3602TIP3   OH232220   1.999   0.284   3.903  1.1113  0.5930 -0.0746
 3602TIP3    H132221   1.956   0.322   3.979 -0.9079 -0.6916 -0.4788
 3602TIP3    H232222   2.051   0.212   3.938  0.8624  0.5353  0.1805
 3603TIP3   OH232223   3.257   4.169   2.585 -0.0587  0.0364 -0.9806
 3603TIP3    H132224   3.197   4.097   2.567  0.4711 -0.5198 -0.5789
 3603TIP3    H232225   3.200   4.245   2.595 -0.9860 -0.8955  1.8148
 3604TIP3   OH232226   5.768   3.780   3.454 -0.0991  0.0112 -0.9133
 3604TIP3    H132227   5.760   3.739   3.540  0.7514  1.6261 -0.0221
 3604TIP3    H232228   5.704   3.851   3.454 -0.2807 -0.1389 -1.7295
 3605TIP3   OH232229   5.506   1.470  11.283  0.4564 -0.2936  0.3611
 3605TIP3    H132230   5.582   1.428  11.324  0.6331 -0.6142 -0.2744
 3605TIP3    H232231   5.430   1.431  11.326  0.6477  1.2672  2.2120
 3606TIP3   OH232232   1.505   5.620   6.098  0.4560  0.0159  0.1714
 3606TIP3    H132233   1.416   5.654   6.088  1.1492  1.5194 -1.5810
 3606TIP3    H232234   1.542   5.671   6.171 -0.0774 -0.5476  0.8432
 3607TIP3   OH232235   5.053   6.451   5.592  0.3740  0.3666  0.8858
 3607TIP3    H132236   5.146   6.437   5.610  0.6379 -2.0671 -1.6742
 3607TIP3    H232237   5.011   6.367   5.613 -0.7420  0.4897 -0.6622
 3608TIP3   OH232238   1.351   2.078   0.072  0.5518  0.0997  0.1048
 3608TIP3    H132239   1.430   2.059   0.122 -0.0562 -0.8949  0.7177
 3608TIP3    H232240   1.280   2.076   0.136  0.0148  0.9602 -0.4390
 3609TIP3   OH232241   4.518   1.336   3.576 -0.7317  0.0584 -0.2132
 3609TIP3    H132242   4.474   1.419   3.562 -1.7694 -0.3397  0.5482
 3609TIP3    H232243   4.586   1.355   3.640  0.4203  0.7281 -1.5759
 3610TIP3   OH232244   6.631   6.132   2.232  0.2524 -0.3358  0.5440
 3610TIP3    H132245   6.709   6.097   2.189 -0.9019 -0.4679 -1.5994
 3610TIP3    H232246   6.664   6.177   2.310  2.3271 -1.3725  0.3341
 3611TIP3   OH232247   1.783   2.874   1.014  0.2377  0.6628  0.7660
 3611TIP3    H132248   1.758   2.927   0.938  1.6413  0.0601 -0.1502
 3611TIP3    H232249   1.719   2.898   1.082 -0.5993  1.7535 -0.3619
 3612TIP3   OH232250   6.244   1.360   0.214  0.3625 -0.5134 -0.1650
 3612TIP3    H132251   6.261   1.396   0.301 -0.9520 -1.0250  0.3259
 3612TIP3    H232252   6.296   1.280   0.211 -1.6584 -1.9964  1.2687
 3613TIP3   OH232253   6.681   4.057   5.568  0.4432  0.3476  0.5766
 3613TIP3    H132254   6.636   3.975   5.589  1.7806 -1.1995 -2.0126
 3613TIP3    H232255   6.770   4.044   5.601  1.1339 -0.0501 -1.2776
 3614TIP3   OH232256   1.488   4.208   4.087 -0.3284 -1.1370  0.5831
 3614TIP3    H132257   1.395   4.229   4.087  0.2761  2.3003 -0.8111
 3614TIP3    H232258   1.495   4.126   4.039 -2.3984  0.7965 -3.5641
 3615TIP3   OH232259   1.023   0.178   3.746 -0.1061  0.0763  0.8159
 3615TIP3    H132260   1.075   0.151   3.822 -0.1349 -2.4092  0.0623
 3615TIP3    H232261   1.080   0.162   3.671 -0.7604  0.5734  0.1982
 3616TIP3   OH232262   3.046   2.528  17.325  0.1835  0.1724 -0.0262
 3616TIP3    H132263   3.119   2.505  17.382  0.0536 -2.5902 -0.8259
 3616TIP3    H232264   3.054   2.469  17.250 -1.8644  0.9930 -0.9695
 3617TIP3   OH232265   0.587   3.705   0.197 -0.3337  0.0157 -0.3266
 3617TIP3    H132266   0.635   3.769   0.145  0.8175 -0.5491  0.0026
 3617TIP3    H232267   0.630   3.707   0.283 -0.7483 -0.6601 -0.0921
 3618TIP3   OH232268   1.956   2.094   0.125  0.0263  0.3166  0.0503
 3618TIP3    H132269   1.901   2.152   0.072 -0.4094 -1.6307 -1.8034
 3618TIP3    H232270   1.903   2.075   0.202 -1.3669 -0.4012 -1.0305
 3619TIP3   OH232271   6.047   0.196   3.873 -0.4633 -0.4213 -0.3727
 3619TIP3    H132272   6.085   0.109   3.860  1.2464  0.4912 -1.9789
 3619TIP3    H232273   6.104   0.255   3.823 -2.1904  1.4969 -0.2234
 3620TIP3   OH232274   5.327   2.447  12.672  0.4912  0.4924  0.4144
 3620TIP3    H132275   5.418   2.451  12.701  0.9017 -1.0787 -0.5152
 3620TIP3    H232276   5.300   2.356  12.687 -0.4783  0.5880 -0.5457
 3621TIP3   OH232277   2.267   3.165  17.127 -0.2050 -0.8202  0.0758
 3621TIP3    H132278   2.194   3.211  17.086  0.6901  0.7299  0.1189
 3621TIP3    H232279   2.234   3.135  17.211 -0.6161  0.4844  0.4060
 3622TIP3   OH232280   0.163   3.294  13.766  0.0981  0.0307 -0.2028
 3622TIP3    H132281   0.217   3.356  13.719 -0.3385  0.5274 -0.0578
 3622TIP3    H232282   0.194   3.297  13.856 -1.2120  1.5307  0.2398
 3623TIP3   OH232283   0.587   5.361   1.009 -0.1262 -0.0279 -0.2763
 3623TIP3    H132284   0.524   5.377   1.079  0.4567 -0.0011  0.2429
 3623TIP3    H232285   0.654   5.428   1.020 -0.1428  0.1241 -1.0032
 3624TIP3   OH232286   3.392   0.463  17.268 -0.4700 -0.0217  0.3036
 3624TIP3    H132287   3.389   0.536  17.205 -1.5569  0.0049  0.3626
 3624TIP3    H232288   3.319   0.407  17.243 -0.6406 -0.2412  1.2768
 3625TIP3   OH232289   5.254   6.535  17.364  0.2750 -0.0622  0.6635
 3625TIP3    H132290   5.287   6.585  17.289  0.3665  0.0038  0.7467
 3625TIP3    H232291   5.208   6.461  17.325 -2.5275  1.6559  0.4329
 3626TIP3   OH232292   4.572   3.409  14.499 -0.3509 -0.3502  0.4014
 3626TIP3    H132293   4.492   3.450  14.468  1.0259  0.8203 -1.9116
 3626TIP3    H232294   4.616   3.477  14.550  0.3862 -0.0276 -0.6273
 3627TIP3   OH232295   1.690   2.858  13.503  0.5089  0.0663  0.6215
 3627TIP3    H132296   1.735   2.887  13.582 -0.6500  1.4310  0.8267
 3627TIP3    H232297   1.693   2.933  13.445 -1.6417  0.3041  0.7378
 3628TIP3   OH232298   5.036   6.419   5.966 -0.3027 -0.4534  0.7653
 3628TIP3    H132299   4.956   6.385   5.926 -0.2486 -1.7094  1.6553
 3628TIP3    H232300   5.105   6.400   5.903 -0.4126 -1.2220  0.8669
 3629TIP3   OH232301   0.008   1.257   2.309  0.3231  0.2807 -0.7238
 3629TIP3    H132302   0.099   1.227   2.305  0.1692 -0.4190  0.6251
 3629TIP3    H232303  -0.020   1.238   2.398 -1.5885 -0.8120 -1.4885
 3630TIP3   OH232304   2.909   1.388  17.204 -0.0988  0.3209  0.2811
 3630TIP3    H132305   2.967   1.459  17.174 -0.5223  0.5971  0.1013
 3630TIP3    H232306   2.826   1.432  17.222 -0.1132  0.0073  1.0022
 3631TIP3   OH232307   1.477   3.476   5.125  0.7615  0.3852 -0.1548
 3631TIP3    H132308   1.420   3.506   5.053  2.2712  1.1922 -1.0628
 3631TIP3    H232309   1.525   3.402   5.088 -0.8536 -1.4024  1.1541
 3632TIP3   OH232310   6.457   4.990  14.626 -0.0577 -0.0217  0.5849
 3632TIP3    H132311   6.367   5.022  14.633  0.4719  2.1532 -1.4266
 3632TIP3    H232312   6.473   4.982  14.532  1.0097 -3.0994  0.9334
 3633TIP3   OH232313   6.571   0.216  16.460  0.2242  0.1509 -0.0279
 3633TIP3    H132314   6.504   0.218  16.528  0.9222  0.7750  0.6612
 3633TIP3    H232315   6.616   0.300  16.469 -0.8411  1.0683 -2.4830
 3634TIP3   OH232316   6.464   3.793  13.797 -0.1452 -0.6556  0.1486
 3634TIP3    H132317   6.495   3.702  13.796 -0.9899 -0.9874  1.6916
 3634TIP3    H232318   6.506   3.833  13.720  1.3205 -1.9786  0.2001
 3635TIP3   OH232319   5.224   6.168   4.425  0.2739 -0.3580  0.5549
 3635TIP3    H132320   5.165   6.226   4.377  1.3322  0.7809  0.5969
 3635TIP3    H232321   5.176   6.146   4.505 -1.0683 -1.4198 -0.4792
 3636TIP3   OH232322   4.945   4.644  17.380  0.3480 -0.2241 -0.1991
 3636TIP3    H132323   4.988   4.567  17.418  1.7433  1.5368  2.1236
 3636TIP3    H232324   5.018   4.705  17.363 -0.8964  1.6226  0.7403
 3637TIP3   OH232325   2.646   5.248   4.873  0.2534 -0.0983 -0.6148
 3637TIP3    H132326   2.689   5.319   4.825 -0.8256  0.7840 -0.3104
 3637TIP3    H232327   2.635   5.282   4.962 -1.2242 -0.2202 -0.7289
 3638TIP3   OH232328   1.524   2.638  12.527 -0.3666 -0.3886 -0.7055
 3638TIP3    H132329   1.433   2.636  12.557  0.4906 -1.1178  2.1486
 3638TIP3    H232330   1.541   2.549  12.497  0.0269 -0.8870  0.9365
 3639TIP3   OH232331   3.747   0.296  12.349  0.0272  0.1837  0.1566
 3639TIP3    H132332   3.765   0.387  12.327 -0.3293  0.3547  0.5634
 3639TIP3    H232333   3.717   0.257  12.267 -0.1555  0.5195  0.0626
 3640TIP3   OH232334   5.750   2.981   1.430  0.8269  0.4521  0.6065
 3640TIP3    H132335   5.813   2.957   1.362 -1.7104  2.5558 -2.8537
 3640TIP3    H232336   5.700   2.901   1.445  0.7061  0.2019 -0.9548
 3641TIP3   OH232337   1.998   6.669  13.188  0.3660 -0.1999 -0.0820
 3641TIP3    H132338   1.927   6.635  13.242  1.0900 -0.6661  0.6124
 3641TIP3    H232339   2.011   6.602  13.121 -0.6736  0.4781 -0.9754
 3642TIP3   OH232340   2.039   0.239  14.308 -0.0622  0.5245 -0.3690
 3642TIP3    H132341   2.111   0.272  14.254 -0.4261 -0.0845 -1.2362
 3642TIP3    H232342   1.982   0.193  14.247  0.0342 -1.0702  0.6848
 3643TIP3   OH232343   1.040   3.771   3.576  0.1737  0.1297 -0.2747
 3643TIP3    H132344   1.026   3.683   3.610 -1.0093  0.9076  1.3866
 3643TIP3    H232345   1.011   3.767   3.485  1.0519 -1.4050 -0.5182
 3644TIP3   OH232346   0.687   1.368  17.166  0.0699 -0.1296 -0.1823
 3644TIP3    H132347   0.768   1.393  17.212 -0.2537 -0.0475  0.3551
 3644TIP3    H232348   0.619   1.419  17.209 -0.1893  0.2864 -1.0579
 3645TIP3   OH232349   1.841   2.637   5.621 -1.0744  0.5206 -0.2595
 3645TIP3    H132350   1.809   2.722   5.592 -1.1513  0.0621 -1.5836
 3645TIP3    H232351   1.762   2.587   5.643 -1.2008  0.0459 -1.6708
 3646TIP3   OH232352   6.334   4.961   5.531 -0.0612  0.6069 -0.2408
 3646TIP3    H132353   6.419   4.981   5.493  0.7798  1.0286  1.7536
 3646TIP3    H232354   6.278   5.034   5.506 -0.7158 -0.9040 -3.8340
 3647TIP3   OH232355   2.606   4.777   4.049  0.6183  0.7650  0.6476
 3647TIP3    H132356   2.618   4.859   4.095 -1.4126  0.2535  2.1889
 3647TIP3    H232357   2.661   4.714   4.096  1.5809  1.0290 -0.0757
 3648TIP3   OH232358   6.046   1.141   0.611 -0.2415 -0.2989 -0.0591
 3648TIP3    H132359   5.986   1.084   0.658  0.8754 -1.8393 -0.4257
 3648TIP3    H232360   6.078   1.088   0.537  0.1088  1.1238 -0.9809
 3649TIP3   OH232361   5.055   4.225  12.297 -0.0156 -0.3285 -0.1416
 3649TIP3    H132362   5.126   4.258  12.241 -0.5652 -0.2048 -0.7810
 3649TIP3    H232363   5.070   4.131  12.301 -0.6145 -0.5160 -1.4722
 3650TIP3   OH232364   0.655   4.294   1.208  0.2863 -0.0473  0.0388
 3650TIP3    H132365   0.700   4.318   1.127 -0.9303  0.9762 -0.3536
 3650TIP3    H232366   0.648   4.376   1.257 -0.4287 -0.3441  0.4507
 3651TIP3   OH232367   2.083   2.573   0.437  0.6175 -0.1467 -0.2079
 3651TIP3    H132368   1.990   2.557   0.417  0.8528 -0.9118 -0.7420
 3651TIP3    H232369   2.130   2.521   0.372  1.4191 -0.1536  0.3737
 3652TIP3   OH232370   5.881   6.027   3.810 -0.4648 -0.1494  0.3652
 3652TIP3    H132371   5.830   6.059   3.735 -0.9476  1.3733  1.2808
 3652TIP3    H232372   5.820   5.973   3.859 -0.4573 -0.3257  0.1790
 3653TIP3   OH232373   2.017   4.469   0.116 -0.3554 -0.7309  0.5226
 3653TIP3    H132374   1.962   4.397   0.146 -0.0758 -0.6336  1.2891
 3653TIP3    H232375   2.029   4.524   0.193  0.3904 -0.4763  0.2348
 3654TIP3   OH232376   0.434   2.690   5.813  0.0246  0.2820  0.4394
 3654TIP3    H132377   0.460   2.761   5.872 -0.1852 -0.9208  2.0391
 3654TIP3    H232378   0.497   2.620   5.830  0.9317  0.4129 -1.9315
 3655TIP3   OH232379   6.351   1.468   0.755  0.1391  0.2856  0.1706
 3655TIP3    H132380   6.420   1.444   0.817  0.6186  2.0807  0.3739
 3655TIP3    H232381   6.303   1.539   0.798 -1.2628 -0.2904 -0.3756
 3656TIP3   OH232382   2.625   0.623  12.909  1.0228  0.8204  0.5751
 3656TIP3    H132383   2.708   0.640  12.864  0.5200 -0.4022 -0.8816
 3656TIP3    H232384   2.611   0.529  12.899 -0.6493  1.0346  0.6013
 3657TIP3   OH232385   0.528   0.194   6.321  0.0623  0.5995 -0.4082
 3657TIP3    H132386   0.451   0.166   6.369  2.3366  0.2513  3.4096
 3657TIP3    H232387   0.511   0.285   6.298 -1.0198  0.9126  1.4712
 3658TIP3   OH232388   4.143   0.652   5.906  0.2862  0.1704 -0.6217
 3658TIP3    H132389   4.214   0.703   5.945 -0.5493  1.0263 -0.1826
 3658TIP3    H232390   4.102   0.608   5.980  1.5546 -1.9312 -1.0822
 3659TIP3   OH232391   6.303   2.910  10.989  0.1974  0.0315 -0.5253
 3659TIP3    H132392   6.260   2.827  10.965  1.1400 -1.0399  1.2933
 3659TIP3    H232393   6.397   2.891  10.979  0.4567  0.5786  0.7891
 3660TIP3   OH232394   5.070   5.467  15.066 -0.2995 -0.2672  0.3498
 3660TIP3    H132395   5.136   5.405  15.032  1.1721  0.5667  1.5377
 3660TIP3    H232396   4.994   5.412  15.086  0.7197 -1.6179  0.7366
 3661TIP3   OH232397   0.388   1.967   1.051  0.0250 -0.1374 -0.4505
 3661TIP3    H132398   0.349   1.918   0.978  0.9186 -1.4202 -0.1061
 3661TIP3    H232399   0.330   1.948   1.125 -0.2799  0.2934 -0.5729
 3662TIP3   OH232400   3.473   6.067   0.710 -0.6155 -0.8038 -0.1200
 3662TIP3    H132401   3.549   6.116   0.740 -1.0650  1.3979 -2.2359
 3662TIP3    H232402   3.509   5.997   0.655 -0.0405 -1.8606  1.5371
 3663TIP3   OH232403   2.194   4.365   2.912 -0.3824  0.5463  0.6452
 3663TIP3    H132404   2.202   4.354   2.817 -1.6937  1.1478  0.4566
 3663TIP3    H232405   2.248   4.441   2.932 -0.5476  0.7529  0.3049
 3664TIP3   OH232406   0.178   2.200  16.070  0.1669  0.1466 -0.7325
 3664TIP3    H132407   0.187   2.197  16.165  2.0881  0.5524 -0.8711
 3664TIP3    H232408   0.232   2.128  16.037  0.1933  0.5281 -1.5604
 3665TIP3   OH232409   0.751   4.654  10.959  0.1507 -0.2131 -0.3519
 3665TIP3    H132410   0.756   4.688  10.869  0.9102 -1.6371 -0.8820
 3665TIP3    H232411   0.711   4.724  11.009  1.4631  1.3740 -1.4226
 3666TIP3   OH232412   3.281   0.871   0.877 -0.1350  0.0848 -0.6167
 3666TIP3    H132413   3.355   0.922   0.911 -0.5145  0.0490  0.3067
 3666TIP3    H232414   3.283   0.885   0.782  1.1816 -0.1059 -0.6244
 3667TIP3   OH232415   0.972   5.600  11.345 -0.6561 -0.0029  0.3264
 3667TIP3    H132416   1.014   5.540  11.407  0.7096  1.1881  0.6020
 3667TIP3    H232417   0.893   5.629  11.390 -0.1784  0.0960  1.1268
 3668TIP3   OH232418   1.745   5.809   5.551  0.2819  0.2572 -0.4074
 3668TIP3    H132419   1.834   5.780   5.570  0.7238  1.4614 -0.5094
 3668TIP3    H232420   1.750   5.843   5.462 -0.0911  1.0052 -0.1528
 3669TIP3   OH232421   1.550   0.222  17.165  0.0415 -0.5993 -0.3042
 3669TIP3    H132422   1.591   0.179  17.241  0.4433 -0.2092 -0.2977
 3669TIP3    H232423   1.467   0.175  17.153  0.0783 -0.8121  0.2378
 3670TIP3   OH232424   3.364   0.591   2.547 -0.0978 -1.1645  0.1870
 3670TIP3    H132425   3.448   0.546   2.557  0.4948  0.1305  1.2826
 3670TIP3    H232426   3.359   0.650   2.622 -0.6777  0.8675 -1.3512
 3671TIP3   OH232427   0.427   2.068  16.315 -0.0770 -0.2524  0.3783
 3671TIP3    H132428   0.334   2.051  16.330 -0.3472  0.7645 -0.0381
 3671TIP3    H232429   0.441   2.048  16.223  0.4608 -1.7767  0.7665
 3672TIP3   OH232430   0.908   3.551   3.715 -0.3151  0.1771  0.0320
 3672TIP3    H132431   0.828   3.528   3.668  0.9534 -1.0971 -1.6097
 3672TIP3    H232432   0.955   3.468   3.725  0.6381  0.8291  1.3231
 3673TIP3   OH232433   1.979   4.647   5.823 -0.3273 -0.2771  0.3599
 3673TIP3    H132434   1.962   4.553   5.828  2.2047 -0.8871 -0.9775
 3673TIP3    H232435   2.072   4.654   5.800 -0.5441  2.5567 -0.0377
 3674TIP3   OH232436   5.789   1.757  12.155 -0.2215  0.1933 -0.0410
 3674TIP3    H132437   5.791   1.730  12.063 -0.2085  1.0622 -0.3000
 3674TIP3    H232438   5.717   1.819  12.161 -0.9245 -0.6667  0.7795
 3675TIP3   OH232439   3.129   3.923   1.897  0.0046  0.5004  0.2077
 3675TIP3    H132440   3.200   3.931   1.961  0.6195  0.1676 -0.4152
 3675TIP3    H232441   3.065   3.866   1.939 -0.0079  0.9933  0.8707
 3676TIP3   OH232442   6.462   3.821  17.111  0.4959  0.0952  0.1702
 3676TIP3    H132443   6.418   3.771  17.042  0.0079  1.4678 -0.5562
 3676TIP3    H232444   6.537   3.767  17.136 -0.7214 -1.5851  0.3471
 3677TIP3   OH232445   6.137   0.152   3.372 -0.5788 -0.9298 -0.7268
 3677TIP3    H132446   6.080   0.180   3.301 -0.1721  2.8904  0.2182
 3677TIP3    H232447   6.225   0.174   3.342 -0.2986 -0.3618  0.4546
 3678TIP3   OH232448   1.120   5.899  15.815 -0.6211  0.3684  0.3211
 3678TIP3    H132449   1.099   5.918  15.907 -3.2947 -0.3373 -0.0724
 3678TIP3    H232450   1.054   5.947  15.765  0.6631  0.5701 -1.2714
 3679TIP3   OH232451   0.864   2.450  14.550 -0.0637  0.2178 -0.8420
 3679TIP3    H132452   0.798   2.384  14.530  2.1204 -2.4574  0.1826
 3679TIP3    H232453   0.884   2.438  14.643  2.3342  0.4008 -1.2557
 3680TIP3   OH232454   5.640   3.580   5.961  0.0490 -0.5528  0.1701
 3680TIP3    H132455   5.703   3.580   6.033 -1.2717 -1.3452  1.3670
 3680TIP3    H232456   5.577   3.649   5.983 -0.7077 -1.2069  0.0933
 3681TIP3   OH232457   3.422   6.100   2.031  0.4331 -1.0325  0.5869
 3681TIP3    H132458   3.501   6.120   2.082  0.6978 -1.7221  0.4628
 3681TIP3    H232459   3.396   6.013   2.061  1.5289 -2.1872 -1.5470
 3682TIP3   OH232460   1.361   1.490  14.650 -0.7662  0.2641 -0.1601
 3682TIP3    H132461   1.303   1.528  14.716 -0.8608 -0.2056  0.0345
 3682TIP3    H232462   1.302   1.452  14.585 -0.6811 -0.2687  0.0697
 3683TIP3   OH232463   5.326   4.998   1.518  0.4671  0.1771  0.2086
 3683TIP3    H132464   5.383   4.968   1.588  0.8023  2.2738  0.9205
 3683TIP3    H232465   5.241   4.961   1.538  0.3497  1.4051  2.2735
 3684TIP3   OH232466   3.923   3.978   4.669 -0.0011 -0.2640 -0.0599
 3684TIP3    H132467   3.830   3.977   4.693 -0.0989 -0.9835 -0.4499
 3684TIP3    H232468   3.945   3.886   4.656  0.2696  0.0212 -1.8791
 3685TIP3   OH232469   5.518   1.830  16.660 -0.0085  0.1371  0.3076
 3685TIP3    H132470   5.521   1.827  16.564 -0.7906 -0.1457  0.2854
 3685TIP3    H232471   5.428   1.804  16.682  0.0374  0.6158  1.1043
 3686TIP3   OH232472   6.341   6.405   3.631 -0.3103  0.2540  0.0650
 3686TIP3    H132473   6.372   6.407   3.721  1.3328  1.7189 -0.4748
 3686TIP3    H232474   6.247   6.391   3.638 -0.3695  1.2965  2.0475
 3687TIP3   OH232475   6.635   5.770  15.084 -0.0494 -0.4948  0.6764
 3687TIP3    H132476   6.661   5.702  15.146 -0.9009 -0.5758  0.9619
 3687TIP3    H232477   6.711   5.828  15.079 -0.6991  0.7622  3.5096
 3688TIP3   OH232478   0.880   1.414  15.099 -0.0636 -0.6899 -0.0022
 3688TIP3    H132479   0.895   1.319  15.097  0.4864 -0.6018 -0.4463
 3688TIP3    H232480   0.963   1.449  15.132  0.6163 -0.2067 -2.0864
 3689TIP3   OH232481   2.475   4.729   1.328 -0.1313 -0.0910  0.3426
 3689TIP3    H132482   2.491   4.824   1.335  0.5717 -0.0919 -0.8289
 3689TIP3    H232483   2.544   4.698   1.269 -0.4498 -1.3156  0.5891
 3690TIP3   OH232484   0.013   0.015  12.399  0.0246 -0.0980  0.2146
 3690TIP3    H132485   0.094  -0.019  12.361  0.3038 -0.7311  1.3555
 3690TIP3    H232486  -0.050   0.008  12.327  0.8121 -0.2140 -0.4902
 3691TIP3   OH232487   6.277   0.203   6.559  0.3159 -0.3478 -0.0784
 3691TIP3    H132488   6.190   0.235   6.579 -0.0836 -0.2453 -1.8742
 3691TIP3    H232489   6.267   0.108   6.554  0.8750 -0.5942  2.2048
 3692TIP3   OH232490   6.465   5.760  15.417 -0.1557  0.2946 -0.6550
 3692TIP3    H132491   6.523   5.836  15.421  1.1975 -0.7298 -0.1140
 3692TIP3    H232492   6.488   5.716  15.335  0.2601 -0.4465 -0.1468
 3693TIP3   OH232493   5.228   5.414   0.809  0.9200  0.1902  0.0429
 3693TIP3    H132494   5.169   5.483   0.779 -1.5577 -0.5077  2.8492
 3693TIP3    H232495   5.204   5.400   0.900  3.9932 -1.7494  0.7088
 3694TIP3   OH232496   2.520   2.625   5.169  0.0387  0.0843  0.1294
 3694TIP3    H132497   2.586   2.643   5.101  0.7153  1.1402  1.0248
 3694TIP3    H232498   2.448   2.685   5.149  0.1654  0.2735  0.2313
 3695TIP3   OH232499   1.513   2.398  17.299 -0.2981 -0.2618 -0.4764
 3695TIP3    H132500   1.419   2.382  17.305 -0.9496  2.5116 -1.8059
 3695TIP3    H232501   1.532   2.394  17.205  0.5536  0.9292 -0.3739
 3696TIP3   OH232502   6.721   3.770  10.658 -0.0275  0.0157 -0.2109
 3696TIP3    H132503   6.816   3.763  10.650  0.0224  0.3874  0.0285
 3696TIP3    H232504   6.693   3.682  10.681  0.3356  0.0614  0.4297
 3697TIP3   OH232505   6.730   1.149   2.579  0.0391 -0.2508 -0.2271
 3697TIP3    H132506   6.785   1.072   2.595 -1.7437 -1.7822 -1.0081
 3697TIP3    H232507   6.698   1.174   2.666  1.0168 -0.0771  0.0904
 3698TIP3   OH232508   0.063   0.851   3.176  0.1115  0.2907  0.0084
 3698TIP3    H132509   0.053   0.757   3.188  1.0930  0.0468 -0.9506
 3698TIP3    H232510   0.146   0.873   3.217  0.0458  0.6876 -0.0593
 3699TIP3   OH232511   3.547   3.372   3.920 -0.2414 -0.9901 -0.0269
 3699TIP3    H132512   3.625   3.361   3.976  0.9289  1.3708 -1.0663
 3699TIP3    H232513   3.501   3.447   3.957 -3.6376 -3.8146  2.1594
 3700TIP3   OH232514   2.922   6.689  13.092 -0.0064 -0.5607  0.2966
 3700TIP3    H132515   2.986   6.761  13.100  0.0590 -0.7035  1.1196
 3700TIP3    H232516   2.879   6.705  13.008  1.2334 -0.5581 -0.3670
 3701TIP3   OH232517   4.098   5.408  10.895 -0.2729 -0.2762 -0.0901
 3701TIP3    H132518   4.087   5.389  10.802 -0.3136 -1.4485  0.1379
 3701TIP3    H232519   4.074   5.501  10.903 -1.0771 -0.3690 -1.1055
 3702TIP3   OH232520   3.895   6.068  12.823  0.6907  0.8433 -0.0716
 3702TIP3    H132521   3.834   6.134  12.793  0.1895 -0.5854 -2.4428
 3702TIP3    H232522   3.868   5.988  12.778  3.9430  0.0088 -0.8228
 3703TIP3   OH232523   0.886   4.683  17.103 -0.6226  0.0118  0.5357
 3703TIP3    H132524   0.827   4.612  17.128  0.5652 -1.2269 -0.0274
 3703TIP3    H232525   0.964   4.669  17.157 -0.6432  1.3635  0.9550
 3704TIP3   OH232526   3.739   0.387   2.020  0.7889  0.3637 -0.1499
 3704TIP3    H132527   3.729   0.363   2.112  0.3624  1.1389  0.0130
 3704TIP3    H232528   3.682   0.463   2.009  0.4230 -0.0411 -1.1860
 3705TIP3   OH232529   4.945   5.821  17.285 -0.0779 -0.5368  0.2689
 3705TIP3    H132530   4.930   5.739  17.238 -0.3641  0.2700 -1.1162
 3705TIP3    H232531   4.952   5.795  17.377 -1.6847 -1.9337  0.0440
 3706TIP3   OH232532   1.273   1.258   4.107  0.9523  0.4191  0.0198
 3706TIP3    H132533   1.215   1.260   4.183  0.0181  0.0340 -0.6768
 3706TIP3    H232534   1.361   1.266   4.145  0.5110  0.1561  1.1501
 3707TIP3   OH232535   1.146   1.458   6.110  0.4203  0.1425  0.8737
 3707TIP3    H132536   1.229   1.425   6.076  1.1352  1.8214  0.8623
 3707TIP3    H232537   1.085   1.385   6.101  1.1931 -0.3061 -1.6971
 3708TIP3   OH232538   0.584   1.872   1.966 -0.2062  0.4291  0.5197
 3708TIP3    H132539   0.676   1.895   1.963  0.0292 -0.5745 -1.4214
 3708TIP3    H232540   0.555   1.901   2.052  1.8589  0.9317  1.1002
 3709TIP3   OH232541   0.689   4.405  15.152 -0.1205 -0.2902 -0.1334
 3709TIP3    H132542   0.756   4.473  15.159 -1.0843  1.1631 -3.3199
 3709TIP3    H232543   0.607   4.453  15.147 -0.9570 -1.7502 -1.0662
 3710TIP3   OH232544   2.690   0.151   0.302  0.0273 -0.1572  0.0319
 3710TIP3    H132545   2.678   0.239   0.337 -0.7724 -0.2648  0.0537
 3710TIP3    H232546   2.761   0.114   0.354  2.0243  1.2824 -1.5448
 3711TIP3   OH232547   2.745   2.033   3.761 -0.2284 -0.3168 -0.9870
 3711TIP3    H132548   2.688   2.102   3.727 -1.3078 -0.9593 -0.5511
 3711TIP3    H232549   2.695   1.995   3.833  0.4091 -1.4594 -1.1310
 3712TIP3   OH232550   4.391   2.726  12.212  0.1098  0.2624  0.0759
 3712TIP3    H132551   4.348   2.646  12.181  0.7039 -0.7507  1.7513
 3712TIP3    H232552   4.485   2.709  12.199  0.2864  0.3427  1.1832
 3713TIP3   OH232553   6.291   1.713   5.627 -0.4645 -0.1780  0.4842
 3713TIP3    H132554   6.250   1.635   5.664 -1.5844  0.4399  0.5880
 3713TIP3    H232555   6.230   1.784   5.646 -2.4230 -0.0856 -4.4734
 3714TIP3   OH232556   0.542   0.358  12.527 -0.0994 -0.3536 -0.5010
 3714TIP3    H132557   0.513   0.438  12.484 -2.1866 -0.8368 -0.0935
 3714TIP3    H232558   0.480   0.291  12.498  0.5996 -1.4632  0.4673
 3715TIP3   OH232559   2.547   2.835   1.003  0.1701 -0.1704 -0.2715
 3715TIP3    H132560   2.559   2.787   0.921 -1.3215  0.1601 -0.7001
 3715TIP3    H232561   2.564   2.926   0.980 -0.9129  0.0111 -0.3832
 3716TIP3   OH232562   5.599   4.647   1.450 -0.0247 -0.2414  0.2939
 3716TIP3    H132563   5.536   4.576   1.435  0.6869 -1.2106  1.6519
 3716TIP3    H232564   5.566   4.720   1.398 -1.8151 -0.9829  0.3223
 3717TIP3   OH232565   6.116   2.462  16.115  0.8007 -0.1908  0.1592
 3717TIP3    H132566   6.146   2.423  16.033  0.3249  0.6120 -0.4221
 3717TIP3    H232567   6.189   2.452  16.175  0.8892 -1.4605 -0.1291
 3718TIP3   OH232568   3.216   5.471  11.905  0.1938 -0.6997 -0.3975
 3718TIP3    H132569   3.256   5.397  11.951  1.0027 -0.7840 -1.2053
 3718TIP3    H232570   3.214   5.444  11.813 -1.6971 -0.6682 -0.4018
 3719TIP3   OH232571   0.609   4.439   5.835  0.0233  0.4448 -0.3375
 3719TIP3    H132572   0.671   4.495   5.788 -1.0962  1.6374 -0.4611
 3719TIP3    H232573   0.525   4.455   5.792 -0.4907 -0.6669  0.2147
 3720TIP3   OH232574   4.414   3.565   5.055  0.1986  0.0109  0.1227
 3720TIP3    H132575   4.413   3.478   5.093  0.3560 -0.3595 -0.7026
 3720TIP3    H232576   4.476   3.614   5.110  0.8838 -0.6832 -0.0062
 3721TIP3   OH232577   1.843   4.592  16.089 -0.0981 -0.6019 -0.1415
 3721TIP3    H132578   1.925   4.552  16.118  0.3560  0.2798 -0.1904
 3721TIP3    H232579   1.853   4.601  15.995  0.7842  1.7444  0.1217
 3722TIP3   OH232580   3.953   1.909   3.120  0.4557  0.4137 -0.1370
 3722TIP3    H132581   4.019   1.873   3.179  0.4310 -0.2765 -0.5234
 3722TIP3    H232582   3.940   1.842   3.053 -2.0478 -0.3178  0.9832
 3723TIP3   OH232583   2.233   3.370   2.116 -0.0750 -0.5157 -0.5737
 3723TIP3    H132584   2.268   3.355   2.204 -0.9205 -1.2144 -0.3449
 3723TIP3    H232585   2.275   3.302   2.062 -0.2071 -0.6217 -0.5409
 3724TIP3   OH232586   5.354   1.627  11.102 -0.5918  0.2199 -0.0058
 3724TIP3    H132587   5.420   1.573  11.146 -0.3556  1.4228  1.1785
 3724TIP3    H232588   5.303   1.565  11.050  0.9881 -0.8409 -0.3512
 3725TIP3   OH232589   2.129   3.410   3.747  0.2116 -0.3817 -0.6480
 3725TIP3    H132590   2.072   3.416   3.671 -2.6248  1.6139  1.4072
 3725TIP3    H232591   2.101   3.331   3.793 -0.5972  0.3143  0.0915
 3726TIP3   OH232592   5.292   0.502   4.597  0.4396  0.0032  0.3588
 3726TIP3    H132593   5.239   0.450   4.658 -0.3161  1.0597  0.6342
 3726TIP3    H232594   5.240   0.503   4.517  0.4811  0.2774  0.3359
 3727TIP3   OH232595   1.063   4.120   6.246 -0.3778  0.0799 -0.2979
 3727TIP3    H132596   0.990   4.127   6.308  1.5123 -0.0117  2.0958
 3727TIP3    H232597   1.056   4.199   6.192 -2.1151  0.1494 -0.0216
 3728TIP3   OH232598   4.232   0.579   3.727 -0.3861  0.0675  0.4316
 3728TIP3    H132599   4.242   0.619   3.641  0.2471  2.0745  1.3987
 3728TIP3    H232600   4.160   0.627   3.768 -2.7258 -2.7681  0.0544
 3729TIP3   OH232601   6.247   3.866  17.326  0.5201 -0.0245  0.4651
 3729TIP3    H132602   6.273   3.958  17.332  1.3774 -0.2092 -0.2876
 3729TIP3    H232603   6.311   3.826  17.267  0.8574 -1.3734  1.6773
 3730TIP3   OH232604   0.995   0.773  13.670  0.4743  0.0355 -0.3704
 3730TIP3    H132605   0.922   0.718  13.643  1.9773 -1.2934 -2.0073
 3730TIP3    H232606   1.072   0.717  13.662  1.9749  2.0400 -1.0596
 3731TIP3   OH232607   0.432   3.834  16.281  0.2357 -0.3709 -0.1873
 3731TIP3    H132608   0.496   3.784  16.231  1.0366  0.4479 -0.0133
 3731TIP3    H232609   0.473   3.848  16.367  0.5336  1.4855 -0.5730
 3732TIP3   OH232610   3.897   2.601   3.352 -0.1082 -0.2806  0.1743
 3732TIP3    H132611   3.988   2.590   3.380 -0.1102  0.0457  0.3253
 3732TIP3    H232612   3.863   2.512   3.344  0.9377 -0.5106 -2.3550
 3733TIP3   OH232613   2.878   4.624   4.860  0.0499 -0.1932 -0.3334
 3733TIP3    H132614   2.877   4.581   4.774 -0.8825 -1.5421  0.3165
 3733TIP3    H232615   2.851   4.556   4.921  0.3178  0.8515  0.9964
 3734TIP3   OH232616   5.437   4.579   3.140 -0.3068  0.1401 -0.1364
 3734TIP3    H132617   5.503   4.549   3.203 -0.9102  2.4790  1.7459
 3734TIP3    H232618   5.484   4.582   3.056  1.4442 -0.0609  0.7806
 3735TIP3   OH232619   1.847   3.578  11.127  0.4712 -0.2475  0.5116
 3735TIP3    H132620   1.879   3.667  11.117  0.0792 -0.0690  0.8000
 3735TIP3    H232621   1.902   3.526  11.069 -0.1290  0.3802 -0.6635
 3736TIP3   OH232622   0.253   5.218  11.972 -0.1113  0.8704  0.5566
 3736TIP3    H132623   0.230   5.140  12.022 -3.7278  1.3652 -0.0451
 3736TIP3    H232624   0.305   5.271  12.033  0.5778 -1.0281  1.7072
 3737TIP3   OH232625   3.033   3.138   5.154  0.8540  0.2919 -0.6795
 3737TIP3    H132626   3.076   3.167   5.074  2.4767 -0.6507 -0.1901
 3737TIP3    H232627   2.976   3.067   5.127 -1.2281  2.1490 -1.4851
 3738TIP3   OH232628   4.488   1.270  14.037 -0.3325 -0.9486  0.3291
 3738TIP3    H132629   4.523   1.290  14.123 -0.8610 -0.2316  0.3844
 3738TIP3    H232630   4.393   1.267  14.049 -0.5805  1.2541 -0.6176
 3739TIP3   OH232631   5.720   5.472   4.965 -0.4600  0.0238 -0.4885
 3739TIP3    H132632   5.708   5.441   4.876  0.1939 -1.1079 -0.1980
 3739TIP3    H232633   5.784   5.543   4.957 -1.5036  0.9325 -1.0798
 3740TIP3   OH232634   6.683   5.155  12.308 -0.2408  0.4470 -0.2091
 3740TIP3    H132635   6.692   5.108  12.225  3.0982 -0.3792  0.4833
 3740TIP3    H232636   6.714   5.244  12.288 -0.5418  0.5801 -0.0878
 3741TIP3   OH232637   4.500   5.737   1.745  0.2051  0.2250 -0.1539
 3741TIP3    H132638   4.569   5.791   1.784  0.4572  1.1453 -1.7621
 3741TIP3    H232639   4.487   5.666   1.807  2.1762  0.3656  0.5075
 3742TIP3   OH232640   1.433   2.452   6.021  0.0303  0.6079  0.4682
 3742TIP3    H132641   1.434   2.510   6.097 -0.3806 -1.4734  2.1722
 3742TIP3    H232642   1.495   2.382   6.043  0.5407  0.3872 -1.5043
 3743TIP3   OH232643   2.857   6.427   3.826  0.7174 -0.2103  0.0672
 3743TIP3    H132644   2.817   6.468   3.903  1.7148  2.6194 -0.8018
 3743TIP3    H232645   2.943   6.399   3.857  0.6235 -0.2547  0.2928
 3744TIP3   OH232646   1.212   0.756  10.509 -0.4947 -0.0024  0.3196
 3744TIP3    H132647   1.168   0.766  10.425 -0.4077  1.0279  0.3842
 3744TIP3    H232648   1.261   0.837  10.520 -0.1615 -0.3066  1.1723
 3745TIP3   OH232649   1.940   3.732  13.528 -0.1024 -0.4715  0.0355
 3745TIP3    H132650   1.887   3.790  13.474  0.6208 -0.7968 -1.0699
 3745TIP3    H232651   2.003   3.789  13.571 -1.8239  0.0420  2.0563
 3746TIP3   OH232652   3.817   4.971   4.638  0.7760  0.3687  0.1884
 3746TIP3    H132653   3.738   4.995   4.687  0.5932  1.2129 -0.5051
 3746TIP3    H232654   3.805   4.878   4.618 -0.9463  0.8906 -1.5176
 3747TIP3   OH232655   4.002   4.547   0.851  0.2641  0.0866 -0.4859
 3747TIP3    H132656   4.017   4.637   0.822 -0.1957 -0.1308 -1.4642
 3747TIP3    H232657   3.907   4.535   0.843  0.2782 -0.3637  0.0033
 3748TIP3   OH232658   5.528   2.619   0.782  0.2849 -0.5335 -0.1797
 3748TIP3    H132659   5.491   2.707   0.783  0.4776 -0.4525  0.1989
 3748TIP3    H232660   5.461   2.564   0.820  1.2029 -0.1045  2.2253
 3749TIP3   OH232661   4.468   2.153   2.507  0.3680  0.3660  0.3118
 3749TIP3    H132662   4.384   2.112   2.530 -0.8275  3.1748  1.3531
 3749TIP3    H232663   4.494   2.109   2.426 -2.0909 -0.6579 -0.0293
 3750TIP3   OH232664   4.493   0.724  12.169  0.6433  0.2892  0.0796
 3750TIP3    H132665   4.554   0.721  12.095  1.3637  1.5391  0.5854
 3750TIP3    H232666   4.414   0.763  12.133  0.9364  0.7501 -0.0807
 3751TIP3   OH232667   1.306   4.174   5.696  0.0000 -0.0174 -0.5278
 3751TIP3    H132668   1.383   4.195   5.644  0.4226  2.6252  1.0188
 3751TIP3    H232669   1.232   4.192   5.637  0.4852  2.3477 -0.5119
 3752TIP3   OH232670   6.267   4.759  11.271  0.1588 -0.3274  0.8996
 3752TIP3    H132671   6.360   4.749  11.249  0.1056 -0.2735  0.6424
 3752TIP3    H232672   6.241   4.841  11.228  0.2163  0.1349  1.7344
 3753TIP3   OH232673   6.044   5.864   3.511  0.6872  0.8300 -0.3511
 3753TIP3    H132674   6.094   5.803   3.565 -0.3304  0.0578 -0.2395
 3753TIP3    H232675   6.077   5.850   3.422  1.2653  0.9639 -0.1619
 3754TIP3   OH232676   4.085   2.307   5.723 -0.2645  0.0579 -0.1009
 3754TIP3    H132677   3.991   2.312   5.704 -0.4151  0.9627  0.7903
 3754TIP3    H232678   4.110   2.397   5.742  0.3569 -0.4498  1.6279
 3755TIP3   OH232679   0.102   4.261   0.208 -0.3303  0.0600 -0.0295
 3755TIP3    H132680   0.029   4.205   0.232 -0.1361  0.1279  0.7566
 3755TIP3    H232681   0.083   4.290   0.119 -0.6865 -0.8400 -0.2521
 3756TIP3   OH232682   2.336   5.958  12.802  0.5659  0.1346 -0.4076
 3756TIP3    H132683   2.351   5.885  12.742  1.8111  0.4915 -0.5689
 3756TIP3    H232684   2.256   5.935  12.849  0.4181 -0.8756 -1.1209
 3757TIP3   OH232685   2.194   2.099   3.945  0.6146 -0.2278 -0.0504
 3757TIP3    H132686   2.287   2.105   3.923  0.4338  2.3993 -0.4153
 3757TIP3    H232687   2.151   2.086   3.860  0.4713  2.1813 -0.4295
 3758TIP3   OH232688   3.096   2.084   2.478 -0.2273 -0.2770  0.1843
 3758TIP3    H132689   3.101   2.059   2.386 -0.3670 -2.5969  0.7355
 3758TIP3    H232690   3.002   2.085   2.497 -0.1774 -0.6566  0.4797
 3759TIP3   OH232691   2.917   4.854  14.957 -0.0113 -0.4584 -0.6117
 3759TIP3    H132692   2.855   4.891  14.895 -0.3474  0.6555  0.3378
 3759TIP3    H232693   2.958   4.781  14.911  1.0461  1.4077 -2.7882
 3760TIP3   OH232694   3.273   4.801   3.711  0.2420 -0.4868 -0.2188
 3760TIP3    H132695   3.365   4.796   3.736  0.1152 -2.0392  0.0173
 3760TIP3    H232696   3.265   4.742   3.636 -0.4435  0.1105 -0.6296
 3761TIP3   OH232697   0.992   6.240  16.709  0.1542 -1.2429  0.2155
 3761TIP3    H132698   1.084   6.215  16.717  1.1322  2.1942  1.8022
 3761TIP3    H232699   0.970   6.275  16.796 -1.7424  0.5951 -0.9193
 3762TIP3   OH232700   0.051   3.137  13.570 -0.0518  0.0640  0.2029
 3762TIP3    H132701   0.080   3.182  13.650  0.6193 -0.1851  0.1038
 3762TIP3    H232702  -0.018   3.194  13.535  0.5466  0.8547  0.2619
 3763TIP3   OH232703   5.049   4.211  11.279 -0.0119  0.1361 -0.1248
 3763TIP3    H132704   5.132   4.255  11.295  0.8347 -0.9300 -1.3108
 3763TIP3    H232705   5.074   4.121  11.257 -1.6865 -1.1560  2.7606
 3764TIP3   OH232706   2.139   3.202  13.146 -0.1990 -0.1566 -0.1798
 3764TIP3    H132707   2.234   3.193  13.149 -0.1785  0.1860  0.3942
 3764TIP3    H232708   2.113   3.213  13.238 -0.6406  1.1283 -0.4362
 3765TIP3   OH232709   2.705   4.135   4.494 -0.0349 -0.2392 -0.2768
 3765TIP3    H132710   2.755   4.110   4.572 -0.6416  0.4028  0.3190
 3765TIP3    H232711   2.768   4.125   4.422  0.4364 -1.1418  0.2390
 3766TIP3   OH232712   6.627   3.865  11.202  0.2877  0.3631 -0.6546
 3766TIP3    H132713   6.713   3.832  11.228 -0.3979 -1.1326 -0.1952
 3766TIP3    H232714   6.645   3.920  11.125  1.6381  0.0189 -0.6096
 3767TIP3   OH232715   1.401   3.253   6.207 -0.4557 -0.4981  0.2821
 3767TIP3    H132716   1.365   3.196   6.139  0.2945 -0.4078 -0.2116
 3767TIP3    H232717   1.435   3.193   6.273  0.6705 -0.6595 -0.4133
 3768TIP3   OH232718   1.855   3.323   4.709  0.2449 -0.8185 -0.2568
 3768TIP3    H132719   1.842   3.399   4.653  0.6856  0.2499  1.0533
 3768TIP3    H232720   1.870   3.251   4.648  0.1593  0.2007 -1.5180
 3769TIP3   OH232721   0.951   6.338   4.129 -0.2052 -0.2216 -1.0097
 3769TIP3    H132722   0.984   6.417   4.087 -0.0724 -0.7764 -1.9804
 3769TIP3    H232723   0.865   6.363   4.162  0.2324  0.5895 -0.4680
 3770TIP3   OH232724   3.459   2.466  14.229  0.4035 -0.4881 -0.2846
 3770TIP3    H132725   3.482   2.547  14.182  2.1689 -1.3599 -1.0255
 3770TIP3    H232726   3.535   2.409  14.215 -0.3464 -1.8812  1.1354
 3771TIP3   OH232727   5.758   6.254  12.175  0.3585  0.5785 -0.1149
 3771TIP3    H132728   5.848   6.269  12.204 -0.0648  2.8785  0.1626
 3771TIP3    H232729   5.705   6.271  12.253 -0.3274 -1.4478 -0.0775
 3772TIP3   OH232730   6.414   5.500   0.511  0.0015  0.2914 -0.1280
 3772TIP3    H132731   6.332   5.548   0.496 -0.0115  0.8343  1.5096
 3772TIP3    H232732   6.408   5.469   0.601  0.3139 -2.2728 -0.8988
 3773TIP3   OH232733   5.407   1.686  16.068  0.2733 -1.3411  0.3010
 3773TIP3    H132734   5.428   1.779  16.078 -1.4364 -1.0322  1.4568
 3773TIP3    H232735   5.433   1.665  15.978 -1.8566  0.9887 -0.9936
 3774TIP3   OH232736   3.325   5.449   3.994  0.3699 -0.5916 -0.5374
 3774TIP3    H132737   3.298   5.471   4.083  0.2008  1.3204 -1.0160
 3774TIP3    H232738   3.318   5.354   3.989  0.4112 -0.7362  1.4918
 3775TIP3   OH232739   0.324   3.241  15.220  0.2877 -0.0552  0.3091
 3775TIP3    H132740   0.341   3.308  15.286 -0.8331 -1.0988  1.7435
 3775TIP3    H232741   0.269   3.284  15.155  1.2768  0.9517  0.1011
 3776TIP3   OH232742   5.505   6.359  14.112 -0.0202  0.0777 -0.3616
 3776TIP3    H132743   5.594   6.325  14.121 -0.0536  0.3767  1.7479
 3776TIP3    H232744   5.477   6.332  14.025  1.9274 -0.5019 -0.8531
 3777TIP3   OH232745   0.265   5.002   4.913  0.4239  0.2660  0.0580
 3777TIP3    H132746   0.291   4.910   4.913 -0.9031 -0.1453 -0.6771
 3777TIP3    H232747   0.322   5.044   4.849  1.6340  0.1600  1.0349
 3778TIP3   OH232748   1.913   5.458   4.154  0.0462  0.3201  0.0088
 3778TIP3    H132749   1.938   5.492   4.240 -1.0800 -0.3594  0.6361
 3778TIP3    H232750   1.975   5.386   4.137 -0.4201 -0.2863  0.7917
 3779TIP3   OH232751   1.104   4.830  13.344 -0.2953 -0.4180 -0.0362
 3779TIP3    H132752   1.083   4.762  13.280 -1.0809  0.1746 -0.4389
 3779TIP3    H232753   1.198   4.843  13.335 -0.3818 -0.3800 -1.0591
 3780TIP3   OH232754   4.173   2.325  13.582 -0.8377  0.1626  0.1182
 3780TIP3    H132755   4.086   2.302  13.615 -1.0267 -0.2863 -0.6670
 3780TIP3    H232756   4.211   2.242  13.554 -0.6830  0.5301 -0.7910
 3781TIP3   OH232757   0.464   3.805  15.071 -0.0467 -0.8706  0.2026
 3781TIP3    H132758   0.538   3.755  15.036 -0.5963  0.5270 -3.3562
 3781TIP3    H232759   0.386   3.762  15.035 -0.6941  0.4767 -0.0847
 3782TIP3   OH232760   3.731   6.028  16.178  0.6925 -0.0938 -0.2640
 3782TIP3    H132761   3.708   6.121  16.171 -0.6697 -0.4073 -0.2144
 3782TIP3    H232762   3.658   5.990  16.228  1.5125 -1.0901  0.1954
 3783TIP3   OH232763   0.713   0.810   1.476 -0.3019  0.3494  0.0127
 3783TIP3    H132764   0.677   0.821   1.388  2.0780  1.5934 -0.8981
 3783TIP3    H232765   0.722   0.715   1.486 -1.6140  0.1337 -0.6160
 3784TIP3   OH232766   0.405   6.046   6.085 -0.0920 -0.3417 -0.4480
 3784TIP3    H132767   0.436   6.096   6.160 -0.4040  0.2962 -0.7396
 3784TIP3    H232768   0.320   6.084   6.064 -0.1154 -0.6719 -0.9760
 3785TIP3   OH232769   0.674   0.792   3.839  0.1955  0.4895 -0.0424
 3785TIP3    H132770   0.697   0.770   3.749 -1.2429  0.5436 -0.4449
 3785TIP3    H232771   0.683   0.710   3.887  0.5987  0.3744 -0.3118
 3786TIP3   OH232772   1.645   0.713   0.037  0.2305 -0.6465 -0.0766
 3786TIP3    H132773   1.679   0.759   0.113 -0.9433 -1.3055  0.8776
 3786TIP3    H232774   1.691   0.629   0.037  0.5330 -0.4826 -0.3435
 3787TIP3   OH232775   5.339   6.423  17.038 -0.3118  0.1784 -0.0617
 3787TIP3    H132776   5.253   6.388  17.016 -0.4216  1.7709 -2.4507
 3787TIP3    H232777   5.391   6.410  16.959  1.8817 -1.2404  1.4925
 3788TIP3   OH232778   1.178   2.885  16.321  0.2365  0.1876 -0.1564
 3788TIP3    H132779   1.102   2.881  16.378  1.1545  0.6942  1.1342
 3788TIP3    H232780   1.141   2.884  16.232 -1.1761 -1.4713  0.3951
 3789TIP3   OH232781   5.260   1.911   3.899 -0.0090 -0.0244 -0.1306
 3789TIP3    H132782   5.204   1.871   3.966 -1.9308  1.4942 -0.7407
 3789TIP3    H232783   5.259   2.005   3.920  0.8629  0.2502 -1.2289
 3790TIP3   OH232784   4.793   0.099  12.398  0.2277  0.0328  0.0524
 3790TIP3    H132785   4.802   0.151  12.318  0.5908 -1.2653 -0.7801
 3790TIP3    H232786   4.714   0.133  12.440  0.5188  1.3244 -0.4022
 3791TIP3   OH232787   3.345   4.616  14.755  0.1534  0.4647  1.1653
 3791TIP3    H132788   3.372   4.583  14.670  0.5740  2.0973  0.6292
 3791TIP3    H232789   3.250   4.623  14.749  0.1982  0.7599  0.7427
 3792TIP3   OH232790   5.869   3.092  17.191 -0.1665  0.2680  0.3003
 3792TIP3    H132791   5.962   3.066  17.190 -0.7840 -2.1877  0.3083
 3792TIP3    H232792   5.830   3.041  17.121 -1.9461 -0.5078  1.8032
 3793TIP3   OH232793   6.641   2.911  13.503  0.7725 -0.1690  0.3531
 3793TIP3    H132794   6.707   2.966  13.545  0.3142  0.0847  0.7526
 3793TIP3    H232795   6.691   2.840  13.462  1.5144  1.2860 -1.3753
 3794TIP3   OH232796   3.379   1.185   2.555 -0.0966  0.3647  0.7671
 3794TIP3    H132797   3.445   1.228   2.501  0.1398 -0.1564  0.6329
 3794TIP3    H232798   3.303   1.242   2.549 -0.6003 -0.4380 -1.3799
 3795TIP3   OH232799   6.557   4.594   5.020 -0.0389  0.1883  0.5827
 3795TIP3    H132800   6.605   4.667   4.980  0.6839 -0.3183  0.5027
 3795TIP3    H232801   6.556   4.615   5.113  1.0605 -0.1930  0.6907
 3796TIP3   OH232802   0.944   2.897   0.669 -0.2900 -0.3180  0.0586
 3796TIP3    H132803   0.876   2.857   0.725  0.3546 -1.2222  0.2311
 3796TIP3    H232804   0.911   2.887   0.580 -1.0865  0.6552  0.2342
 3797TIP3   OH232805   4.076   2.458  15.282 -0.3544 -0.3045 -0.3455
 3797TIP3    H132806   4.099   2.526  15.346 -0.5257  0.7331 -1.3347
 3797TIP3    H232807   4.126   2.381  15.309  1.4620  0.8195 -0.3429
 3798TIP3   OH232808   4.496   2.189  16.831 -0.8027 -0.0832 -0.3961
 3798TIP3    H132809   4.567   2.196  16.895 -2.3166  1.0295  1.2644
 3798TIP3    H232810   4.425   2.146  16.878 -1.8974  0.5644 -1.4004
 3799TIP3   OH232811   5.233   2.936  12.472 -0.2343  0.1093 -0.0649
 3799TIP3    H132812   5.164   2.926  12.407 -1.0730 -0.8415  0.9347
 3799TIP3    H232813   5.269   2.849  12.484  1.3147  0.6254 -0.7152
 3800TIP3   OH232814   3.132   3.093  15.498  0.0144 -0.0001  0.0753
 3800TIP3    H132815   3.068   3.090  15.569  0.5639 -0.6930  0.5560
 3800TIP3    H232816   3.212   3.056  15.536  1.1292  2.0979 -0.1017
 3801TIP3   OH232817   3.279   5.922  12.950 -0.3160 -0.4835 -0.3869
 3801TIP3    H132818   3.368   5.897  12.977  0.2728  1.1611 -0.6709
 3801TIP3    H232819   3.270   5.888  12.861  0.0347 -0.6561 -0.3590
 3802TIP3   OH232820   2.256   1.383   5.747  0.4080 -0.5644 -0.6707
 3802TIP3    H132821   2.319   1.333   5.798  0.7373 -1.2753 -1.7332
 3802TIP3    H232822   2.210   1.318   5.694 -2.0813 -0.2259  0.9237
 3803TIP3   OH232823   5.363   2.783   0.267 -0.8429  0.0770 -0.9870
 3803TIP3    H132824   5.445   2.832   0.258 -0.2121 -1.2445 -3.2464
 3803TIP3    H232825   5.310   2.811   0.192 -2.5131  0.8807  0.4122
 3804TIP3   OH232826   4.431   0.042  11.020 -0.0993 -0.0275 -0.2564
 3804TIP3    H132827   4.453   0.134  11.038  1.2138 -0.8907  3.3950
 3804TIP3    H232828   4.339   0.035  11.045 -0.5047  0.4332 -1.5107
 3805TIP3   OH232829   6.123   0.970  13.034  0.1671  0.3610 -0.1805
 3805TIP3    H132830   6.213   0.940  13.048  0.0761  0.1672 -0.0076
 3805TIP3    H232831   6.084   0.902  12.979 -0.5481 -0.7451  1.6007
 3806TIP3   OH232832   0.172   2.597   5.821  0.1919  0.0653 -0.2647
 3806TIP3    H132833   0.133   2.609   5.908  0.1203  1.0735 -0.4295
 3806TIP3    H232834   0.263   2.622   5.832  0.0324  0.8106 -0.6243
 3807TIP3   OH232835   5.087   4.509   2.866 -0.1667 -0.0383  0.2874
 3807TIP3    H132836   5.039   4.548   2.792 -0.8273 -2.3931 -0.6129
 3807TIP3    H232837   5.058   4.418   2.868  4.1026 -1.6244 -0.1989
 3808TIP3   OH232838   2.672   3.990   3.358 -0.7310 -0.0316  0.6745
 3808TIP3    H132839   2.739   3.977   3.424 -1.6756 -0.1001  1.6506
 3808TIP3    H232840   2.685   3.918   3.296 -0.2404 -0.3429  1.1318
 3809TIP3   OH232841   6.025   1.826   3.187 -0.2017  0.8995 -0.1286
 3809TIP3    H132842   5.949   1.774   3.213  0.3645  0.3292  0.4005
 3809TIP3    H232843   6.061   1.859   3.269  1.2639 -0.4412 -0.1920
 3810TIP3   OH232844   2.133   6.688  16.587  0.2197  0.3465  0.5517
 3810TIP3    H132845   2.069   6.664  16.654  0.1871 -1.5294 -0.0912
 3810TIP3    H232846   2.132   6.784  16.586 -0.5360  0.4024  2.4835
 3811TIP3   OH232847   4.778   1.777  11.475 -0.4841 -0.6856 -0.4168
 3811TIP3    H132848   4.853   1.821  11.513 -0.1581 -1.5088 -0.0986
 3811TIP3    H232849   4.706   1.795  11.535 -1.0836  1.8069 -1.7254
 3812TIP3   OH232850   0.227   1.747   4.574 -0.2232  0.1248  0.4039
 3812TIP3    H132851   0.306   1.709   4.535  0.1224  0.8001  0.4351
 3812TIP3    H232852   0.259   1.822   4.625 -0.8267  0.0839  0.8497
 3813TIP3   OH232853   1.625   5.894  13.087  0.0906  0.1187 -0.8719
 3813TIP3    H132854   1.537   5.915  13.056 -0.1276  0.4058 -0.0804
 3813TIP3    H232855   1.611   5.852  13.172  0.5594 -2.4223 -1.9750
 3814TIP3   OH232856   0.918   4.533  14.092 -0.8550 -0.5111  0.0025
 3814TIP3    H132857   0.934   4.582  14.173 -1.7452 -0.5692  0.2216
 3814TIP3    H232858   0.832   4.495  14.104 -1.1865 -0.1622 -1.1521
 3815TIP3   OH232859   5.414   3.429   5.655 -0.1376  0.3000  0.4037
 3815TIP3    H132860   5.386   3.360   5.715  0.3304 -0.0331  0.2450
 3815TIP3    H232861   5.510   3.430   5.661 -0.0326 -0.2103 -0.8503
 3816TIP3   OH232862   2.710   4.930   5.315  0.6603  0.0834 -0.5094
 3816TIP3    H132863   2.755   4.944   5.232 -0.8711  0.7610 -1.2723
 3816TIP3    H232864   2.698   4.835   5.320  0.7319  0.0385 -1.0882
 3817TIP3   OH232865   2.983   4.811  12.857  0.2545  0.4347 -0.0964
 3817TIP3    H132866   2.908   4.850  12.814 -0.9087 -1.4719  0.0951
 3817TIP3    H232867   3.020   4.750  12.793  0.0898 -0.4960  0.6681
 3818TIP3   OH232868   5.555   5.288  12.188  0.0539  0.6003 -0.3896
 3818TIP3    H132869   5.633   5.238  12.164 -0.2381 -0.4218  0.6689
 3818TIP3    H232870   5.574   5.322  12.275 -0.2563  1.2901 -0.5802
 3819TIP3   OH232871   5.599   5.349   5.484  0.1374 -0.2012 -0.4287
 3819TIP3    H132872   5.527   5.402   5.449 -0.1881 -1.6114 -2.0117
 3819TIP3    H232873   5.588   5.354   5.579 -0.9085  1.1350 -0.5887
 3820TIP3   OH232874   0.680   0.818   4.598 -0.0315  0.0747 -0.9695
 3820TIP3    H132875   0.749   0.777   4.650 -1.3456  0.0549  0.8567
 3820TIP3    H232876   0.623   0.746   4.572 -0.1114  0.2523 -1.2892
 3821TIP3   OH232877   5.164   0.551   4.348  0.0103  0.1526  0.3934
 3821TIP3    H132878   5.095   0.608   4.314  1.9632  1.0948 -2.2771
 3821TIP3    H232879   5.131   0.462   4.332 -0.5942  0.5817 -0.8522
 3822TIP3   OH232880   6.576   5.034   2.009 -0.1390  0.0990  0.1027
 3822TIP3    H132881   6.660   4.995   1.984  0.1787 -0.0505  1.3663
 3822TIP3    H232882   6.598   5.124   2.034 -0.1342 -0.2963  1.6165
 3823TIP3   OH232883   4.035   3.036  13.216  0.5708  0.1491 -0.4660
 3823TIP3    H132884   4.101   3.081  13.269 -0.8971  1.5201  0.3108
 3823TIP3    H232885   3.957   3.032  13.272 -0.8350  1.0314 -2.2267
 3824TIP3   OH232886   2.233   4.278  15.390  0.0536  0.2837 -0.5785
 3824TIP3    H132887   2.197   4.349  15.337  0.3998  0.7779 -0.1543
 3824TIP3    H232888   2.327   4.294  15.392  0.4574 -1.4509 -2.3424
 3825TIP3   OH232889   6.757   1.504   2.207  0.5003  0.5574  0.3892
 3825TIP3    H132890   6.669   1.526   2.174  0.9299  0.3722 -0.9657
 3825TIP3    H232891   6.751   1.410   2.228  0.7713  0.1256 -1.2511
 3826TIP3   OH232892   5.434   1.504  13.353  0.6108  0.0946 -0.3388
 3826TIP3    H132893   5.518   1.530  13.392  0.3111 -0.3279  0.6231
 3826TIP3    H232894   5.369   1.555  13.400  0.1252 -1.4061  0.7017
 3827TIP3   OH232895   6.073   5.865   0.466  0.1032  0.0182  0.0939
 3827TIP3    H132896   6.038   5.882   0.378  0.0649 -0.2789  0.0513
 3827TIP3    H232897   6.014   5.800   0.503 -0.7411  1.2024  0.8941
 3828TIP3   OH232898   4.305   2.074  13.428 -0.0796  0.3237 -0.3688
 3828TIP3    H132899   4.399   2.066  13.446  0.4045  2.3629 -1.6778
 3828TIP3    H232900   4.265   2.004  13.480  2.0768 -0.1573  0.7813
 3829TIP3   OH232901   1.919   6.715   5.139 -0.6874 -0.3575  0.1833
 3829TIP3    H132902   1.965   6.794   5.168  2.2625 -1.2529 -1.6465
 3829TIP3    H232903   1.887   6.674   5.220  0.9971  0.7996  1.4966
 3830TIP3   OH232904   1.744   2.474  11.363  0.0851  0.7533  0.1491
 3830TIP3    H132905   1.651   2.495  11.366 -0.3724 -1.1194  2.1178
 3830TIP3    H232906   1.768   2.478  11.271 -2.4502 -0.6038 -0.6378
 3831TIP3   OH232907   5.179   6.693  15.595  0.6935 -0.0212  0.1115
 3831TIP3    H132908   5.163   6.787  15.595 -1.1695 -0.2678 -1.3212
 3831TIP3    H232909   5.136   6.661  15.515 -1.9883 -2.5200  2.2766
 3832TIP3   OH232910   5.350   0.083   2.529 -0.4026  0.1810  0.0308
 3832TIP3    H132911   5.310   0.170   2.533  0.0414  0.4401 -0.7898
 3832TIP3    H232912   5.305   0.032   2.597 -2.3310  0.3762 -1.0181
 3833TIP3   OH232913   6.549   6.290   5.927 -0.1455  0.4490  0.1982
 3833TIP3    H132914   6.491   6.237   5.981 -0.0364 -0.7717 -0.8527
 3833TIP3    H232915   6.625   6.307   5.983  0.1532 -1.1446  0.3002
 3834TIP3   OH232916   5.047   3.773   0.591 -0.4591  0.1342 -0.1943
 3834TIP3    H132917   5.143   3.777   0.590 -0.4613  0.1348 -1.1258
 3834TIP3    H232918   5.026   3.738   0.677  0.4525 -1.3271 -0.5250
 3835TIP3   OH232919   2.524   3.907   6.315  0.4319  0.5171  0.6256
 3835TIP3    H132920   2.514   3.823   6.359 -0.3977  1.2252  1.8339
 3835TIP3    H232921   2.605   3.943   6.351  0.5460  0.4445  0.4451
 3836TIP3   OH232922   2.284   3.619   3.833 -0.2263  0.0428 -0.7203
 3836TIP3    H132923   2.339   3.640   3.758  1.6777  0.4142  0.7041
 3836TIP3    H232924   2.238   3.538   3.807 -0.2849  0.6237 -2.5664
 3837TIP3   OH232925   0.018   5.770   2.143 -0.1786 -0.0566  0.0116
 3837TIP3    H132926   0.034   5.737   2.232  0.8076  1.8995  0.6244
 3837TIP3    H232927   0.064   5.709   2.086 -1.1220 -1.5457  0.7846
 3838TIP3   OH232928   2.396   6.559   1.181 -0.0796 -0.0285  0.1110
 3838TIP3    H132929   2.344   6.574   1.260  0.8599  1.8222  0.4242
 3838TIP3    H232930   2.361   6.620   1.117  0.8607  0.3361 -0.0715
 3839TIP3   OH232931   1.256   5.759  14.073  0.0311 -0.1421  0.6703
 3839TIP3    H132932   1.209   5.740  14.154 -0.6674 -0.2423  0.2450
 3839TIP3    H232933   1.206   5.829  14.032  1.2024  0.9341  1.0253
 3840TIP3   OH232934   5.608   0.016   2.416  0.3299 -0.0809 -0.1432
 3840TIP3    H132935   5.535   0.028   2.477 -0.7424  0.3961 -1.4770
 3840TIP3    H232936   5.576  -0.046   2.351  0.7484  0.8857 -1.3072
 3841TIP3   OH232937   3.931   3.773   1.482  0.0464 -0.8253 -0.1454
 3841TIP3    H132938   4.013   3.806   1.519 -1.2773  3.2960 -0.3706
 3841TIP3    H232939   3.871   3.768   1.557 -0.4478 -0.3020 -0.5002
 3842TIP3   OH232940   2.865   4.650  14.456 -0.1539 -0.0930  0.3744
 3842TIP3    H132941   2.861   4.639  14.361  1.2040 -1.4085  0.4304
 3842TIP3    H232942   2.952   4.687  14.472  0.4730 -1.8205  1.2183
 3843TIP3   OH232943   2.704   1.082   1.083 -0.2302 -0.0211 -0.1392
 3843TIP3    H132944   2.757   1.161   1.095 -3.2234  1.8226  2.9017
 3843TIP3    H232945   2.637   1.108   1.020 -0.1193 -0.8564 -0.6169
 3844TIP3   OH232946   5.622   5.007   5.991  0.2526 -0.1089 -0.4270
 3844TIP3    H132947   5.695   5.023   5.932 -0.2401  2.9632 -0.3602
 3844TIP3    H232948   5.557   4.961   5.937  0.8652  0.2376 -1.4748
 3845TIP3   OH232949   5.903   3.991   5.652  0.1143 -0.1577  0.0872
 3845TIP3    H132950   5.959   4.032   5.587  1.5901  0.9198  1.9352
 3845TIP3    H232951   5.963   3.951   5.714 -1.2375 -1.1919  0.7759
 3846TIP3   OH232952   1.437   2.132   2.329 -0.3022  0.4143 -0.6881
 3846TIP3    H132953   1.452   2.162   2.419 -1.3939  0.7038 -0.5762
 3846TIP3    H232954   1.521   2.143   2.285  0.4818 -0.5692  0.5191
 3847TIP3   OH232955   0.408   2.394  17.246  0.2288  0.1869 -0.5827
 3847TIP3    H132956   0.393   2.392  17.341 -1.2461 -0.1480 -0.7972
 3847TIP3    H232957   0.491   2.349  17.234  1.5912  2.1605  0.7168
 3848TIP3   OH232958   4.116   2.195  13.953  0.1095  0.2647 -0.3505
 3848TIP3    H132959   4.038   2.155  13.993 -0.3131  0.4660 -0.9462
 3848TIP3    H232960   4.119   2.283  13.989 -0.0978  0.3445 -0.5216
 3849TIP3   OH232961   0.099   2.208   1.083 -0.2350  0.4058  0.2090
 3849TIP3    H132962   0.006   2.225   1.096  0.2412  2.9113  1.0908
 3849TIP3    H232963   0.104   2.118   1.051 -3.0808  0.7949 -1.7114
 3850TIP3   OH232964   2.744   5.300  14.309 -0.4110 -1.0900  0.2494
 3850TIP3    H132965   2.667   5.341  14.349 -0.4677 -0.1538 -0.7719
 3850TIP3    H232966   2.805   5.287  14.382  0.1196  1.9806  0.4695
 3851TIP3   OH232967   6.232   3.154   3.246  0.5570 -0.1205 -0.1115
 3851TIP3    H132968   6.192   3.075   3.209  1.6286  0.0946 -1.8303
 3851TIP3    H232969   6.324   3.132   3.256  0.8137  0.8104 -0.3363
 3852TIP3   OH232970   0.865   3.112  15.881  0.3883 -0.0920 -0.2377
 3852TIP3    H132971   0.907   3.026  15.890 -0.6121 -0.3790  2.3975
 3852TIP3    H232972   0.773   3.092  15.866 -0.2731  0.4158  2.6469
 3853TIP3   OH232973   2.975   0.243   0.643  0.0814  0.1804  0.1607
 3853TIP3    H132974   2.881   0.227   0.648 -0.1820  1.4773 -0.2422
 3853TIP3    H232975   3.005   0.244   0.734 -0.2456 -0.4039  0.2827
 3854TIP3   OH232976   2.085   6.530   0.975 -0.0171 -0.8678 -0.2229
 3854TIP3    H132977   2.111   6.608   1.024  1.6537 -1.5998  0.1246
 3854TIP3    H232978   2.150   6.524   0.905 -1.1442 -1.0140 -1.2831
 3855TIP3   OH232979   2.979   1.542  16.389 -0.3163 -0.0338  0.3908
 3855TIP3    H132980   3.066   1.582  16.398 -0.5756  0.6025  0.0855
 3855TIP3    H232981   2.998   1.450  16.370  0.2870 -0.0483  1.0183
 3856TIP3   OH232982   2.051   6.033   3.292 -0.3858  0.0348 -0.2830
 3856TIP3    H132983   2.112   6.071   3.229  0.1039 -1.8522 -0.9849
 3856TIP3    H232984   2.049   5.940   3.273 -0.0164 -0.6925  2.6661
 3857TIP3   OH232985   4.070   3.759  12.701  0.0190  0.4805 -0.3708
 3857TIP3    H132986   4.009   3.734  12.771  0.7596 -0.7535 -0.1405
 3857TIP3    H232987   4.110   3.840  12.732 -0.1079  0.2734  0.3551
 3858TIP3   OH232988   0.951   3.553   3.358 -0.3796  0.2244  0.5423
 3858TIP3    H132989   1.016   3.518   3.298 -1.8958 -0.9892 -0.4590
 3858TIP3    H232990   0.925   3.637   3.319  0.4224  0.6318  0.8560
 3859TIP3   OH232991   3.280   4.581  12.313 -0.3746  0.1813  0.0913
 3859TIP3    H132992   3.300   4.600  12.221 -1.1505  1.4751  0.1611
 3859TIP3    H232993   3.185   4.584  12.318 -0.3194  0.6913  1.0362
 3860TIP3   OH232994   5.580   4.831  16.447 -0.2178  0.2353  0.1421
 3860TIP3    H132995   5.634   4.889  16.393 -0.2461  0.4989  0.3948
 3860TIP3    H232996   5.519   4.890  16.493 -0.5879 -0.0394  0.0133
 3861TIP3   OH232997   1.381   4.671  12.797  0.2965  0.1662  0.0351
 3861TIP3    H132998   1.303   4.617  12.782  1.1640 -1.0482 -0.2994
 3861TIP3    H232999   1.416   4.688  12.710  0.9654 -0.1903  0.2233
 3862TIP3   OH233000   3.393   2.404  12.573 -0.0995  0.1857  0.1836
 3862TIP3    H133001   3.323   2.376  12.515 -0.2199 -0.0070  0.4192
 3862TIP3    H233002   3.366   2.491  12.604  0.5777  0.8615 -1.0462
 3863TIP3   OH233003   3.603   2.947  14.990 -0.7218 -0.2292 -0.3535
 3863TIP3    H133004   3.665   3.018  14.977  0.5885 -1.6330 -2.5509
 3863TIP3    H233005   3.657   2.868  14.990 -2.1197 -1.2834  1.9843
 3864TIP3   OH233006   2.683   4.855  12.569  0.3863 -0.4581 -0.4938
 3864TIP3    H133007   2.658   4.892  12.654 -0.1582  0.4153 -1.0110
 3864TIP3    H233008   2.666   4.761  12.578  0.5119 -0.4079  0.4209
 3865TIP3   OH233009   3.310   5.597   5.595 -0.0862 -0.1983  0.4709
 3865TIP3    H133010   3.366   5.657   5.644  0.4537 -1.3878  1.3374
 3865TIP3    H233011   3.249   5.562   5.659 -2.7028  1.9616 -0.6549
 3866TIP3   OH233012   1.665   5.561   4.598  0.5780  0.2742 -0.2034
 3866TIP3    H133013   1.588   5.582   4.650 -0.7562 -1.5394 -1.3383
 3866TIP3    H233014   1.738   5.564   4.661 -0.4983  1.2620  1.0518
 3867TIP3   OH233015   5.588   0.889  15.009 -0.2952  0.1736 -0.0667
 3867TIP3    H133016   5.642   0.968  15.005 -0.2859  0.1829  0.2450
 3867TIP3    H233017   5.589   0.864  15.101 -1.8527  0.8909  0.1692
 3868TIP3   OH233018   0.781   3.180  16.637 -0.1652  0.0537 -0.4911
 3868TIP3    H133019   0.810   3.251  16.580 -2.5698  2.1365  0.6633
 3868TIP3    H233020   0.740   3.117  16.578  0.0527  0.6716 -1.3246
 3869TIP3   OH233021   0.428   3.630   3.969 -0.4635  0.0140 -0.1900
 3869TIP3    H133022   0.513   3.602   4.003 -0.9560 -0.0468  1.0243
 3869TIP3    H233023   0.446   3.657   3.879  0.8458  0.0564  0.0704
 3870TIP3   OH233024   6.124   1.856  12.775  0.5732  0.0454  0.1498
 3870TIP3    H133025   6.191   1.847  12.843  0.0784  1.6342  0.9116
 3870TIP3    H233026   6.041   1.842  12.821  0.2904 -0.0941 -0.3931
 3871TIP3   OH233027   2.769   4.920   3.165 -0.0150 -0.4092  0.1059
 3871TIP3    H133028   2.821   5.001   3.168 -1.4981  0.6024 -0.3453
 3871TIP3    H233029   2.822   4.857   3.214  1.7688  0.4681 -0.5735
 3872TIP3   OH233030   4.945   0.802   5.621 -0.2183 -0.2888 -0.0227
 3872TIP3    H133031   4.948   0.787   5.715  0.0904 -1.8794 -0.2571
 3872TIP3    H233032   4.853   0.791   5.597 -0.1854 -0.5938 -0.0100
 3873TIP3   OH233033   4.578   4.434  15.642 -0.8078  0.5126 -0.3434
 3873TIP3    H133034   4.549   4.362  15.699  0.2420  1.2457  1.2012
 3873TIP3    H233035   4.514   4.436  15.571 -1.8061 -0.8678  0.4688
 3874TIP3   OH233036   4.314   4.087   0.028 -0.5363 -0.1051 -0.2502
 3874TIP3    H133037   4.345   4.011   0.078  1.4490  0.9573  0.2273
 3874TIP3    H233038   4.230   4.108   0.068  0.9493  0.6814  2.7701
 3875TIP3   OH233039   6.170   0.917   1.287  0.0722 -0.0086 -0.2032
 3875TIP3    H133040   6.260   0.949   1.288  0.0672  0.1582 -1.7347
 3875TIP3    H233041   6.141   0.932   1.197 -1.5882  0.2168  0.3431
 3876TIP3   OH233042   1.007   1.895   3.235 -0.3589  0.0326 -0.5336
 3876TIP3    H133043   0.939   1.961   3.227  0.4515  1.2058  1.5581
 3876TIP3    H233044   1.079   1.939   3.280  1.7108 -1.2392 -2.3806
 3877TIP3   OH233045   2.074   4.287   1.759  0.1688  0.0861 -0.4296
 3877TIP3    H133046   2.059   4.238   1.678  1.7444 -0.8592 -0.1952
 3877TIP3    H233047   2.012   4.250   1.821 -0.1874 -0.0542 -0.8605
 3878TIP3   OH233048   3.603   3.866  15.859 -0.0304 -0.6507 -0.2032
 3878TIP3    H133049   3.644   3.943  15.898  0.6909 -0.7088 -0.8212
 3878TIP3    H233050   3.652   3.850  15.779 -0.0740 -1.8331 -0.0238
 3879TIP3   OH233051   5.584   2.632   6.121  0.3046  0.1908  0.4138
 3879TIP3    H133052   5.570   2.684   6.042  0.1971 -1.5201 -0.7472
 3879TIP3    H233053   5.535   2.678   6.190 -1.4712  0.5017 -1.0035
 3880TIP3   OH233054   1.285   1.285   3.476 -0.2039  0.1837  0.0604
 3880TIP3    H133055   1.282   1.379   3.461 -1.5332  0.6344  2.5594
 3880TIP3    H233056   1.276   1.246   3.389 -1.7840  2.3464 -0.8265
 3881TIP3   OH233057   0.759   3.500   5.917 -0.7097  0.0822 -0.2642
 3881TIP3    H133058   0.723   3.566   5.976 -1.7531 -0.9028  0.2338
 3881TIP3    H233059   0.847   3.533   5.896 -1.3751  1.8725 -0.4458
 3882TIP3   OH233060   4.181   1.827   2.685 -0.7514 -0.4078 -0.1861
 3882TIP3    H133061   4.199   1.903   2.630 -0.8497 -1.0107 -1.0654
 3882TIP3    H233062   4.095   1.846   2.724  0.7333  1.5659  2.4641
 3883TIP3   OH233063   5.875   3.258   1.758 -0.3471  0.5135  0.5864
 3883TIP3    H133064   5.932   3.200   1.809 -1.5933 -0.7220  0.6264
 3883TIP3    H233065   5.826   3.199   1.701 -1.6504  1.5234  0.6235
 3884TIP3   OH233066   0.867   3.780  14.408  0.2191 -0.1767 -0.2398
 3884TIP3    H133067   0.911   3.835  14.343 -0.5074  0.5750 -0.1190
 3884TIP3    H233068   0.913   3.797  14.490  0.0555  0.1855 -0.2224
 3885TIP3   OH233069   1.938   1.590  16.459 -0.4225  0.2484 -0.1055
 3885TIP3    H133070   1.920   1.535  16.383  1.8381 -0.4749 -0.1714
 3885TIP3    H233071   2.030   1.614  16.451 -0.4344  1.1172  1.8009
 3886TIP3   OH233072   6.711   2.524   4.296  0.4985 -0.7517  0.5289
 3886TIP3    H133073   6.771   2.452   4.311  0.6153 -0.7435  0.1229
 3886TIP3    H233074   6.670   2.503   4.212  2.0074  0.6556 -0.6139
 3887TIP3   OH233075   2.534   4.056  11.868  0.5371 -0.7217 -0.1042
 3887TIP3    H133076   2.566   3.997  11.799  1.7966 -0.2716  0.0689
 3887TIP3    H233077   2.462   4.008  11.909 -0.7180 -0.6997 -2.1744
 3888TIP3   OH233078   5.066   2.788  13.065 -0.0193 -0.5253  0.5935
 3888TIP3    H133079   4.991   2.848  13.056 -0.1455 -0.6826  0.5897
 3888TIP3    H233080   5.143   2.845  13.056 -0.0965 -0.6642 -1.7001
 3889TIP3   OH233081   5.173   0.142   1.025 -0.2304 -0.0531 -0.0890
 3889TIP3    H133082   5.145   0.163   0.936  1.7056 -0.7086 -0.9124
 3889TIP3    H233083   5.236   0.070   1.014 -0.4347 -0.6067  1.8790
 3890TIP3   OH233084   3.813   0.262  16.222 -0.7316  0.1518  0.0958
 3890TIP3    H133085   3.886   0.323  16.231  1.1407 -1.9073 -0.1247
 3890TIP3    H233086   3.737   0.311  16.251  0.7629  2.3515  0.5608
 3891TIP3   OH233087   4.834   5.006  11.272  0.2644  0.6382 -0.4618
 3891TIP3    H133088   4.891   5.048  11.207  0.8573  2.7006  1.2657
 3891TIP3    H233089   4.760   5.067  11.281 -0.5625 -0.3607 -0.2666
 3892TIP3   OH233090   1.911   5.392  16.116 -0.9615  0.1543  0.1609
 3892TIP3    H133091   2.006   5.401  16.124 -0.7602 -1.4296 -0.0320
 3892TIP3    H233092   1.877   5.481  16.126  0.3895  0.5165  2.1397
 3893TIP3   OH233093   4.664   3.204  10.322 -0.1082 -0.2129 -0.1229
 3893TIP3    H133094   4.657   3.114  10.352  0.6368 -0.5990 -1.0512
 3893TIP3    H233095   4.608   3.254  10.381 -1.4868 -1.4517 -0.3480
 3894TIP3   OH233096   1.960   0.397  15.322 -0.1729  0.0780  0.2906
 3894TIP3    H133097   1.923   0.460  15.260 -0.2917 -0.1238  0.1557
 3894TIP3    H233098   1.923   0.313  15.296  1.0140 -0.2726 -0.3577
 3895TIP3   OH233099   2.789   2.109  16.904 -0.1316 -0.5391  0.2698
 3895TIP3    H133100   2.865   2.069  16.946  0.9674  0.0156 -1.1333
 3895TIP3    H233101   2.814   2.200  16.889 -1.6072  0.0351  1.0230
 3896TIP3   OH233102   6.030   3.642  16.275 -0.2685 -0.1571  0.0182
 3896TIP3    H133103   6.003   3.574  16.213  0.0318  0.2351 -0.5521
 3896TIP3    H233104   6.102   3.687  16.231 -0.8854  0.9522  0.1094
 3897TIP3   OH233105   4.334   6.325   0.651  0.5479  0.3613  0.4379
 3897TIP3    H133106   4.354   6.238   0.686 -2.7329 -0.8702 -0.3784
 3897TIP3    H233107   4.313   6.378   0.729 -0.2069 -0.4117  0.7699
 3898TIP3   OH233108   2.573   2.400   5.497  0.1772 -0.2026 -0.4614
 3898TIP3    H133109   2.550   2.309   5.514 -0.0149  0.1422  1.2407
 3898TIP3    H233110   2.495   2.439   5.458 -0.4686 -0.2499  0.7690
 3899TIP3   OH233111   3.644   0.621   6.001 -0.5472  0.2113 -0.3184
 3899TIP3    H133112   3.587   0.681   5.953 -0.7290  1.2723  1.1622
 3899TIP3    H233113   3.698   0.677   6.057 -0.8310 -0.9643  1.2347
 3900TIP3   OH233114   2.997   6.615  12.799 -0.2217 -0.0684 -0.0881
 3900TIP3    H133115   3.082   6.587  12.833  0.2134  1.7421  0.4008
 3900TIP3    H233116   2.933   6.574  12.857  0.1528 -2.8698 -1.4623
 3901TIP3   OH233117   6.689   5.065  14.886 -0.1969 -0.1958 -0.4237
 3901TIP3    H133118   6.612   5.016  14.856  0.2600 -1.4941  0.4389
 3901TIP3    H233119   6.723   5.014  14.960  0.5184  1.2500  0.2903
 3902TIP3   OH233120   0.541   6.124   1.697  0.1991 -0.0240  0.5423
 3902TIP3    H133121   0.474   6.102   1.633  0.4461 -0.0363  0.2852
 3902TIP3    H233122   0.622   6.087   1.661  0.1802 -0.8601  1.3257
 3903TIP3   OH233123   4.427   4.704   5.661 -0.0051 -0.0172 -0.5722
 3903TIP3    H133124   4.405   4.672   5.748 -0.2772  1.7970  0.0754
 3903TIP3    H233125   4.491   4.641   5.627  2.1622  0.6413  2.0100
 3904TIP3   OH233126   1.884   1.702  14.714 -0.6401 -0.5524  0.0780
 3904TIP3    H133127   1.896   1.607  14.723 -1.0064 -0.6658 -0.5756
 3904TIP3    H233128   1.813   1.711  14.650  0.9496  0.1835 -1.6657
 3905TIP3   OH233129   4.263   0.829   3.589  0.4291  0.2434 -0.3558
 3905TIP3    H133130   4.181   0.860   3.630  0.1214 -0.4458 -0.4470
 3905TIP3    H233131   4.300   0.908   3.549 -0.0638  0.6140 -0.1010
 3906TIP3   OH233132   1.266   1.315  15.392  0.1639 -0.2145 -0.1332
 3906TIP3    H133133   1.342   1.319  15.450  0.5061 -2.0040 -0.3931
 3906TIP3    H233134   1.284   1.381  15.325  1.7894 -0.9743 -0.5037
 3907TIP3   OH233135   4.560   1.187   3.948  0.0002  0.6321  0.3441
 3907TIP3    H133136   4.588   1.253   3.886 -0.0266 -0.4361 -0.8512
 3907TIP3    H233137   4.470   1.210   3.969  0.2271  1.3841  0.5219
 3908TIP3   OH233138   1.349   5.299   5.021 -0.8752  0.2843 -0.1378
 3908TIP3    H133139   1.421   5.326   5.077 -1.4915 -0.7233  1.1902
 3908TIP3    H233140   1.272   5.340   5.060 -1.4747 -1.3566  0.4986
 3909TIP3   OH233141   6.046   6.657   3.816 -0.0765  0.4522 -0.6971
 3909TIP3    H133142   5.967   6.605   3.802  0.2171 -0.4337  0.7634
 3909TIP3    H233143   6.103   6.601   3.869  1.2592  1.3396 -1.1416
 3910TIP3   OH233144   3.448   2.900   5.769  0.0432 -0.0739  0.5021
 3910TIP3    H133145   3.520   2.938   5.717  1.0959 -1.9521  0.5148
 3910TIP3    H233146   3.401   2.976   5.802  1.8224  1.2292  0.2160
 3911TIP3   OH233147   0.882   3.219   1.058 -0.1240  0.0750 -0.3303
 3911TIP3    H133148   0.916   3.227   1.147  1.2133 -2.0387 -0.5776
 3911TIP3    H233149   0.788   3.239   1.066 -0.1817 -0.7903  1.6967
 3912TIP3   OH233150   0.707   6.048   3.385  0.1043  0.0020  0.0720
 3912TIP3    H133151   0.760   6.121   3.354  0.3615  0.1712  0.8887
 3912TIP3    H233152   0.756   5.970   3.358  1.3514  0.1584  1.7234
 3913TIP3   OH233153   5.247   1.242  12.395 -0.8126 -0.5594  0.0243
 3913TIP3    H133154   5.322   1.193  12.359 -0.9685 -1.2130  0.5566
 3913TIP3    H233155   5.179   1.234  12.328 -0.5426 -0.3040 -0.2857
 3914TIP3   OH233156   0.174   0.166  17.260 -0.5250 -0.3171 -0.2526
 3914TIP3    H133157   0.208   0.131  17.178 -2.8207 -0.1418 -1.3580
 3914TIP3    H233158   0.094   0.115  17.276 -0.4148  0.0322  1.5973
 3915TIP3   OH233159   0.390   6.749   3.920  0.5324 -0.1133  0.1883
 3915TIP3    H133160   0.439   6.757   4.001  1.2680  3.5829 -0.4662
 3915TIP3    H233161   0.441   6.687   3.867  1.7085 -0.2089  1.3838
 3916TIP3   OH233162   5.661   1.192   2.693 -0.3369  0.4901 -0.2668
 3916TIP3    H133163   5.753   1.186   2.666  0.0649  1.5078  0.8124
 3916TIP3    H233164   5.657   1.143   2.775 -0.2432  2.2690  0.8470
 3917TIP3   OH233165   2.623   3.988  16.812 -0.3400 -0.3066 -0.4704
 3917TIP3    H133166   2.559   4.056  16.834 -2.8605 -2.7200  0.3616
 3917TIP3    H233167   2.672   3.975  16.893  0.2614  0.6051 -0.6822
 3918TIP3   OH233168   2.036   4.405  12.216  0.0649 -0.0296  0.3204
 3918TIP3    H133169   2.007   4.494  12.198 -0.8272 -0.1257  1.2099
 3918TIP3    H233170   1.977   4.350  12.163 -0.7250 -0.1739  1.3228
 3919TIP3   OH233171   2.955   3.362  10.955  0.1351  0.0573 -0.5276
 3919TIP3    H133172   3.007   3.306  10.897  0.1251  0.1026 -0.5814
 3919TIP3    H233173   2.962   3.449  10.915  0.9698  0.2932  0.0874
 3920TIP3   OH233174   2.487   5.000  13.956  0.3709 -0.4404  0.3064
 3920TIP3    H133175   2.426   5.068  13.986  0.3279 -0.1433 -0.4245
 3920TIP3    H233176   2.430   4.927  13.932 -0.0254  0.7448 -2.8973
 3921TIP3   OH233177   3.546   4.153   2.223 -0.6206  0.5849  0.0990
 3921TIP3    H133178   3.597   4.226   2.257 -1.3358  1.4971 -0.7449
 3921TIP3    H233179   3.595   4.075   2.249  0.8553  1.4131 -0.1125
 3922TIP3   OH233180   1.732   4.208  16.819 -0.3480 -0.1104  0.0048
 3922TIP3    H133181   1.822   4.183  16.798 -0.8970 -1.7525 -0.5185
 3922TIP3    H233182   1.706   4.266  16.748  0.0274 -0.2844 -0.2763
 3923TIP3   OH233183   1.674   5.715   4.349 -0.4749 -0.3088  0.3357
 3923TIP3    H133184   1.685   5.661   4.428 -0.0164  0.9293  1.1525
 3923TIP3    H233185   1.620   5.661   4.291  2.1372 -2.7381 -0.0112
 3924TIP3   OH233186   2.838   1.888   1.000 -0.2969 -0.2531 -0.0286
 3924TIP3    H133187   2.852   1.970   0.954 -1.4761 -0.1714 -0.2830
 3924TIP3    H233188   2.840   1.911   1.093 -0.2439 -0.0012 -0.0925
 3925TIP3   OH233189   5.356   4.131  10.654  0.1164 -0.5165  0.8613
 3925TIP3    H133190   5.285   4.099  10.710  0.3531  0.9241  2.0447
 3925TIP3    H233191   5.348   4.226  10.657 -0.2483 -0.3729 -2.1105
 3926TIP3   OH233192   3.470   6.367   5.157  0.5206  0.0741 -0.2062
 3926TIP3    H133193   3.528   6.377   5.233 -0.7063 -1.8132  1.0623
 3926TIP3    H233194   3.397   6.426   5.175 -0.5035 -1.4622  0.8956
 3927TIP3   OH233195   0.683   5.772   4.505  0.5165 -0.1860  0.1087
 3927TIP3    H133196   0.768   5.813   4.521 -0.2767  0.8606  1.9993
 3927TIP3    H233197   0.633   5.839   4.459  0.4526 -0.5001 -0.2827
 3928TIP3   OH233198   5.732   6.086  15.218  0.3580  0.6434 -0.2493
 3928TIP3    H133199   5.808   6.036  15.250 -0.1978  1.1582  2.0746
 3928TIP3    H233200   5.664   6.020  15.204  0.4723  0.4421  0.1250
 3929TIP3   OH233201   1.898   5.332  13.161 -0.1458 -0.3987  0.0039
 3929TIP3    H133202   1.986   5.367  13.151  0.3790 -0.7225  2.7007
 3929TIP3    H233203   1.894   5.258  13.100  1.8160 -0.9938  0.5472
 3930TIP3   OH233204   4.010   6.313  14.826 -0.1958  0.2682  0.2643
 3930TIP3    H133205   3.974   6.276  14.746 -0.1207  0.6801  0.0317
 3930TIP3    H233206   4.104   6.324  14.807 -0.0001 -0.4966  0.7468
 3931TIP3   OH233207   4.089   3.075  13.747 -0.4539 -0.1023  0.5189
 3931TIP3    H133208   4.040   2.994  13.732 -1.2245  0.6761 -1.6935
 3931TIP3    H233209   4.106   3.077  13.841  0.2494 -3.1726  0.5397
 3932TIP3   OH233210   0.890   2.360  15.481  0.2293  0.2376  0.1654
 3932TIP3    H133211   0.867   2.348  15.389  1.7076 -0.6485 -0.1245
 3932TIP3    H233212   0.856   2.282  15.524 -0.6638  0.7603  0.4287
 3933TIP3   OH233213   3.139   1.920   0.007  0.4991  0.1014 -0.7080
 3933TIP3    H133214   3.095   1.949   0.087  0.0575  0.9294 -1.2438
 3933TIP3    H233215   3.142   1.824   0.015 -0.0571  0.1358  0.0339
 3934TIP3   OH233216   0.258   3.220   4.107  0.0848 -0.2382  0.6442
 3934TIP3    H133217   0.217   3.245   4.024  0.8016 -0.0302  0.3351
 3934TIP3    H233218   0.327   3.159   4.081  0.9518  0.5779  0.9758
 3935TIP3   OH233219   5.684   2.214  16.269  0.6462  0.2722  0.3516
 3935TIP3    H133220   5.729   2.150  16.324  0.9988  0.6683  0.5300
 3935TIP3    H233221   5.749   2.283  16.255 -0.2476  1.3999  1.5349
 3936TIP3   OH233222   4.490   1.052   0.259 -0.1706  0.3169  0.2526
 3936TIP3    H133223   4.407   1.080   0.297  0.4010  0.2094  1.6055
 3936TIP3    H233224   4.471   1.042   0.165 -1.0297  2.8210  0.0824
 3937TIP3   OH233225   2.187   2.264   0.055  0.0554  0.2273  0.3603
 3937TIP3    H133226   2.157   2.330  -0.008 -0.5617  0.1999  0.6195
 3937TIP3    H233227   2.128   2.189   0.041 -0.6322  0.5216  1.5269
 3938TIP3   OH233228   3.968   0.109   2.190 -0.2200  0.1173  0.2394
 3938TIP3    H133229   3.987   0.076   2.277 -0.2856  0.4858  0.3942
 3938TIP3    H233230   3.912   0.042   2.150 -3.0340  1.4403  1.6717
 3939TIP3   OH233231   1.404   4.539   2.011 -0.3467 -0.3841 -0.5949
 3939TIP3    H133232   1.325   4.550   2.064  0.9973  1.7600  1.1166
 3939TIP3    H233233   1.411   4.444   1.999 -1.9569 -0.7816  1.1277
 3940TIP3   OH233234   5.123   0.944  16.530  0.6352  0.0237  0.2629
 3940TIP3    H133235   5.055   0.985  16.583  0.9978 -0.3173  1.0109
 3940TIP3    H233236   5.201   0.945  16.586  1.0186 -0.3558 -0.2560
 3941TIP3   OH233237   0.953   2.037   0.511  0.6090 -0.4494  0.1153
 3941TIP3    H133238   0.896   2.057   0.585  0.2245 -0.1370 -0.2628
 3941TIP3    H233239   1.006   1.963   0.541 -1.3849 -2.1040 -0.2023
 3942TIP3   OH233240   5.712   1.647   5.705  0.1135  0.0621  0.0523
 3942TIP3    H133241   5.754   1.577   5.656 -2.9622 -1.2107 -0.9753
 3942TIP3    H233242   5.620   1.644   5.679 -0.2779  4.3446  0.1726
 3943TIP3   OH233243   3.215   4.449  12.641 -0.7416  0.0472 -0.0893
 3943TIP3    H133244   3.308   4.465  12.625 -1.2732  1.4897 -2.2445
 3943TIP3    H233245   3.200   4.359  12.610 -0.7155  1.0822 -3.4680
 3944TIP3   OH233246   4.293   5.065  13.982  0.0904  0.2144  0.7605
 3944TIP3    H133247   4.219   5.004  13.983  0.0161  0.2839  0.0992
 3944TIP3    H233248   4.294   5.099  13.893 -0.9302  2.5019  1.5477
 3945TIP3   OH233249   4.194   1.223  13.617 -0.0081  0.3255 -0.3398
 3945TIP3    H133250   4.192   1.230  13.521  1.4261  0.7883 -0.3648
 3945TIP3    H233251   4.281   1.256  13.641 -0.1122 -0.3739  1.0771
 3946TIP3   OH233252   6.525   4.541   4.161  0.0814 -0.4083  0.4457
 3946TIP3    H133253   6.440   4.585   4.155  0.9227  1.2642 -0.0920
 3946TIP3    H233254   6.559   4.544   4.071  1.2615  0.1789  0.8844
 3947TIP3   OH233255   3.795   5.817  13.857  0.0464 -0.3465 -0.2274
 3947TIP3    H133256   3.886   5.841  13.879 -0.3050  0.3445  0.5227
 3947TIP3    H233257   3.742   5.864  13.921 -0.8452 -0.8044 -0.6179
 3948TIP3   OH233258   3.624   5.710   0.919 -0.7816 -0.1390  0.5489
 3948TIP3    H133259   3.674   5.766   0.859 -1.2543  0.9597  1.1470
 3948TIP3    H233260   3.533   5.718   0.889 -0.6762 -1.9849 -0.4232
 3949TIP3   OH233261   1.562   5.824  13.363  0.2267  0.4871  0.3281
 3949TIP3    H133262   1.466   5.828  13.368  0.1664 -0.7481  0.5485
 3949TIP3    H233263   1.585   5.746  13.413  1.1550 -0.6374 -1.7149
 3950TIP3   OH233264   2.846   6.426  15.092  0.1144  0.2086  0.1097
 3950TIP3    H133265   2.751   6.423  15.095  0.1293 -0.4128  0.1061
 3950TIP3    H233266   2.867   6.431  14.998  0.0881  0.0189  0.0926
 3951TIP3   OH233267   5.443   6.358  13.278 -0.4804  0.0536  0.1302
 3951TIP3    H133268   5.536   6.341  13.266 -0.2151 -0.3666  2.3579
 3951TIP3    H233269   5.405   6.273  13.298 -0.9480  0.4824  1.1982
 3952TIP3   OH233270   5.337   0.936  16.293  0.1734 -0.2636 -0.2877
 3952TIP3    H133271   5.355   0.932  16.199 -0.5436 -2.1269 -0.3810
 3952TIP3    H233272   5.257   0.989  16.300  0.3126  0.0089 -0.6934
 3953TIP3   OH233273   2.284   3.031   4.962 -0.6886  0.3805 -0.2739
 3953TIP3    H133274   2.270   2.994   4.875 -1.4899 -0.8435  0.3529
 3953TIP3    H233275   2.379   3.025   4.975 -0.5844  0.3970 -0.9744
 3954TIP3   OH233276   4.605   4.057  11.667  0.6534  0.0929  0.5297
 3954TIP3    H133277   4.582   3.970  11.636  0.6809 -0.3318  1.6390
 3954TIP3    H233278   4.700   4.055  11.674  0.9259  1.1200 -1.9623
 3955TIP3   OH233279   1.647   6.182  11.219  0.3435  0.4288 -0.0999
 3955TIP3    H133280   1.677   6.226  11.140  0.8649  1.3119  0.5803
 3955TIP3    H233281   1.672   6.090  11.206  0.2819  0.5319 -1.0124
 3956TIP3   OH233282   4.735   4.089  16.356  0.7891 -0.1272 -0.4417
 3956TIP3    H133283   4.761   4.053  16.271 -1.0671 -1.5715 -0.4573
 3956TIP3    H233284   4.733   4.013  16.415 -2.1019  0.0528 -0.1882
 3957TIP3   OH233285   4.614   4.955   5.104 -0.4707 -0.0494 -0.6122
 3957TIP3    H133286   4.551   4.995   5.044  0.6104 -0.5472 -2.1294
 3957TIP3    H233287   4.660   4.891   5.051  1.0807  0.0527  0.5549
 3958TIP3   OH233288   0.948   4.659   4.858 -0.2699 -0.7317 -0.0005
 3958TIP3    H133289   0.857   4.649   4.886 -0.3202 -0.3200 -0.0094
 3958TIP3    H233290   0.998   4.666   4.940 -0.4989  1.2008  0.0265
 3959TIP3   OH233291   3.491   3.974  16.985 -0.5291  0.2311  0.1264
 3959TIP3    H133292   3.583   3.975  17.012 -0.1229  0.8817 -1.1928
 3959TIP3    H233293   3.482   3.892  16.937 -0.7667 -0.0439  0.6294
 3960TIP3   OH233294   0.332   6.509  15.324  0.0498 -0.5723 -0.2184
 3960TIP3    H133295   0.364   6.595  15.295 -1.0471  0.1439  0.6112
 3960TIP3    H233296   0.375   6.446  15.265 -0.8067  0.6739 -2.2789
 3961TIP3   OH233297   5.518   6.309   5.661 -0.4984  0.1562  0.5611
 3961TIP3    H133298   5.502   6.300   5.754 -0.1735  0.2322  0.6259
 3961TIP3    H233299   5.547   6.222   5.633  0.3553  0.3797  0.7264
 3962TIP3   OH233300   1.134   5.663   1.939  0.2167 -0.5621 -0.3924
 3962TIP3    H133301   1.173   5.660   2.026  1.0128 -1.2031 -0.7537
 3962TIP3    H233302   1.045   5.630   1.951 -0.3801  1.2722  0.5103
 3963TIP3   OH233303   3.882   1.655   2.349  0.4673 -0.6800  0.0128
 3963TIP3    H133304   3.837   1.598   2.412  0.9579 -2.2152 -0.9780
 3963TIP3    H233305   3.969   1.617   2.341  1.4492  1.3057  0.6778
 3964TIP3   OH233306   3.620   0.895  16.882  0.5346 -0.0048 -0.5339
 3964TIP3    H133307   3.549   0.901  16.819  1.4574  3.7027 -1.4794
 3964TIP3    H233308   3.699   0.914  16.831  1.4693  1.7852  1.4085
 3965TIP3   OH233309   0.949   6.631  12.560 -0.0271 -0.0641  0.1270
 3965TIP3    H133310   0.870   6.653  12.610  0.2342  1.1750  0.0079
 3965TIP3    H233311   0.947   6.689  12.485  1.7734  1.0744  0.8892
 3966TIP3   OH233312   0.632   0.696  16.840 -0.2808 -0.5263  0.0520
 3966TIP3    H133313   0.636   0.600  16.840  0.1932 -0.5132 -0.7064
 3966TIP3    H233314   0.649   0.720  16.931  1.2775 -1.1065 -0.0466
 3967TIP3   OH233315   0.713   4.575   2.607  0.4987 -0.1861  0.6203
 3967TIP3    H133316   0.763   4.493   2.604  1.0650  0.1910 -0.8000
 3967TIP3    H233317   0.773   4.638   2.646  1.0785  0.2144 -0.8842
 3968TIP3   OH233318   5.316   1.815  11.512 -1.1522 -0.0415  0.5489
 3968TIP3    H133319   5.276   1.767  11.439  0.7968 -1.6883  0.4540
 3968TIP3    H233320   5.316   1.752  11.584  0.9728 -0.0663  0.5979
 3969TIP3   OH233321   0.778   0.070   0.791 -0.5025 -0.2528  0.0184
 3969TIP3    H133322   0.869   0.089   0.814 -0.6910  0.3606  0.2532
 3969TIP3    H233323   0.753   0.140   0.730 -0.8407 -0.3783  0.0091
 3970TIP3   OH233324   0.277   5.121  11.728  0.6472 -0.2937  0.0019
 3970TIP3    H133325   0.256   5.168  11.808  1.8068 -0.1010  0.2189
 3970TIP3    H233326   0.258   5.183  11.657 -3.3505 -1.4768 -0.1772
 3971TIP3   OH233327   5.082   5.161   4.550  0.4993 -0.2270 -0.3893
 3971TIP3    H133328   5.097   5.103   4.476  0.4923 -0.7226 -0.0066
 3971TIP3    H233329   4.987   5.164   4.559  0.5149 -0.4868 -0.1472
 3972TIP3   OH233330   4.996   5.472  10.565 -0.1557 -0.1977 -0.3553
 3972TIP3    H133331   5.056   5.411  10.523  1.4047 -0.3153  1.8999
 3972TIP3    H233332   5.017   5.557  10.526 -0.8390 -0.7012 -1.9177
 3973TIP3   OH233333   2.960   3.416   4.157 -0.0046 -0.1549  0.3487
 3973TIP3    H133334   2.874   3.418   4.115 -0.6983 -1.3159  1.6337
 3973TIP3    H233335   2.955   3.343   4.219  2.3596 -1.1127 -0.4751
 3974TIP3   OH233336   6.477   3.553   1.763  0.3505 -0.0271 -0.0319
 3974TIP3    H133337   6.424   3.536   1.841  0.6739  0.3886  0.2838
 3974TIP3    H233338   6.563   3.514   1.783  0.0937 -0.9416 -0.6497
 3975TIP3   OH233339   3.718   3.061   2.019  0.5363 -0.0983  0.3046
 3975TIP3    H133340   3.639   3.045   1.968 -0.4804 -0.3295  1.8803
 3975TIP3    H233341   3.777   2.989   1.996  0.8212  0.7719 -1.8362
 3976TIP3   OH233342   3.567   1.761  12.187 -0.3094 -0.4486  0.1518
 3976TIP3    H133343   3.504   1.706  12.140 -0.3421  0.3479 -0.7933
 3976TIP3    H233344   3.513   1.813  12.247 -0.4190 -0.6059  0.1895
 3977TIP3   OH233345   6.118   0.228   2.560  0.3705  0.1436 -0.0655
 3977TIP3    H133346   6.066   0.168   2.613 -0.0074  0.7095  0.2046
 3977TIP3    H233347   6.153   0.173   2.490  0.8989 -0.6180  0.7722
 3978TIP3   OH233348   5.021   2.527   4.969  0.4451 -0.8810 -0.0850
 3978TIP3    H133349   5.004   2.434   4.983 -1.2211 -0.7269 -0.9019
 3978TIP3    H233350   4.995   2.568   5.052 -2.7438 -0.7475 -1.0229
 3979TIP3   OH233351   4.810   0.843  13.964 -0.4573 -0.3611 -0.0262
 3979TIP3    H133352   4.814   0.934  13.994 -2.3162 -0.4785  0.7477
 3979TIP3    H233353   4.804   0.849  13.869  0.5123  0.2647 -0.0589
 3980TIP3   OH233354   5.409   2.378  11.357 -0.4745 -0.3415  0.0606
 3980TIP3    H133355   5.503   2.366  11.374 -0.2326  0.3554 -0.6906
 3980TIP3    H233356   5.403   2.379  11.262 -1.2655 -0.4554  0.1075
 3981TIP3   OH233357   0.582   3.352  14.874 -0.2780 -0.4818  0.1035
 3981TIP3    H133358   0.549   3.294  14.942 -1.6303 -0.2214 -0.3148
 3981TIP3    H233359   0.606   3.294  14.802  1.1118 -0.7550  0.7429
 3982TIP3   OH233360   0.014   2.907   3.503 -0.1415 -0.0178  0.0739
 3982TIP3    H133361  -0.028   2.821   3.498 -1.2548  0.5660 -0.9331
 3982TIP3    H233362   0.031   2.931   3.412  2.4504 -0.2278  0.4112
 3983TIP3   OH233363   4.038   1.137  10.654 -0.2359 -0.1119  0.3613
 3983TIP3    H133364   4.090   1.202  10.606  0.8094 -0.6554  0.7297
 3983TIP3    H233365   3.949   1.172  10.654  0.2227  1.0800  0.1308
 3984TIP3   OH233366   2.593   5.570  12.648  0.5284 -0.4170 -1.3023
 3984TIP3    H133367   2.570   5.658  12.617 -1.3760 -0.0205  0.9360
 3984TIP3    H233368   2.551   5.510  12.587  0.0046  0.2660 -1.6165
 3985TIP3   OH233369   4.279   3.935  12.427  0.2955  0.0192 -0.1031
 3985TIP3    H133370   4.365   3.968  12.402  0.1495 -0.8680 -1.9617
 3985TIP3    H233371   4.217   4.000  12.394  0.1625 -0.6082 -1.1753
 3986TIP3   OH233372   3.632   3.067   4.818 -0.3257 -0.7924 -0.0853
 3986TIP3    H133373   3.553   3.015   4.807  0.1255 -1.7738  1.1587
 3986TIP3    H233374   3.695   3.029   4.757 -1.2785  1.1234 -2.4327
 3987TIP3   OH233375   2.798   1.839   6.807 -0.1673  0.4477 -0.3292
 3987TIP3    H133376   2.871   1.894   6.779 -0.4540  0.6491 -0.6916
 3987TIP3    H233377   2.840   1.766   6.852  0.4801 -0.8348 -2.7843
 3988TIP3   OH233378   5.130   1.977  13.435  0.2468  0.0268  0.2513
 3988TIP3    H133379   5.091   1.895  13.404 -0.7280  0.8237 -0.6917
 3988TIP3    H233380   5.105   2.042  13.370  0.8878  1.1128  1.0572
 3989TIP3   OH233381   4.165   2.489   4.020 -0.0250  0.3723  0.1531
 3989TIP3    H133382   4.144   2.560   3.959 -2.3250  0.1942  0.6757
 3989TIP3    H233383   4.115   2.510   4.099  1.2442 -0.5300  1.2406
 3990TIP3   OH233384   0.357   0.277  12.850 -0.3470 -0.0282  0.6687
 3990TIP3    H133385   0.357   0.359  12.898  0.8091 -1.1100  2.6532
 3990TIP3    H233386   0.441   0.276  12.803 -0.2177 -0.1882  0.8980
 3991TIP3   OH233387   0.875   2.660  16.675 -0.3187 -0.2905 -0.1100
 3991TIP3    H133388   0.969   2.662  16.691 -0.3957 -0.6354  0.4030
 3991TIP3    H233389   0.846   2.749  16.698 -0.2615 -0.4645  0.6836
 3992TIP3   OH233390   1.366   6.211   2.732  0.7450  0.2253  0.2372
 3992TIP3    H133391   1.403   6.298   2.714  2.7086 -0.8130 -1.1095
 3992TIP3    H233392   1.323   6.186   2.651 -0.2394  0.1128  0.7833
 3993TIP3   OH233393   6.651   3.651   4.030  0.1001 -0.2309  0.1255
 3993TIP3    H133394   6.674   3.652   4.123 -0.4284  0.2306  0.2543
 3993TIP3    H233395   6.676   3.737   3.998 -0.3966 -0.1340  0.0046
 3994TIP3   OH233396   0.323   4.678   3.552 -0.1236  0.8627 -0.1947
 3994TIP3    H133397   0.353   4.768   3.551 -0.2832  0.9141 -1.1065
 3994TIP3    H233398   0.339   4.648   3.642  1.6145  1.2151 -0.3586
 3995TIP3   OH233399   5.817   2.464   3.387 -0.1676  0.2899  0.3407
 3995TIP3    H133400   5.869   2.395   3.429 -0.3175  0.2029  0.3828
 3995TIP3    H233401   5.852   2.545   3.424  0.6173  0.2889 -0.3809
 3996TIP3   OH233402   5.354   4.811   0.220 -0.1482 -0.0357 -0.3769
 3996TIP3    H133403   5.333   4.728   0.264  0.3073 -0.5864 -1.1603
 3996TIP3    H233404   5.275   4.831   0.169 -0.0622 -0.2920 -0.6189
 3997TIP3   OH233405   5.974   3.542   3.672  0.0818 -0.3410 -0.2929
 3997TIP3    H133406   5.986   3.499   3.757 -0.7248 -0.1067 -0.0483
 3997TIP3    H233407   6.056   3.588   3.656  1.0707 -2.1505 -0.6760
 3998TIP3   OH233408   2.273   2.655   0.821 -0.1289 -0.3088 -0.0470
 3998TIP3    H133409   2.343   2.600   0.787 -0.1796 -0.4109  0.0129
 3998TIP3    H233410   2.314   2.740   0.836 -0.0061 -0.3811  0.0312
 3999TIP3   OH233411   1.588   4.212   1.138  0.2228  0.4948 -0.3744
 3999TIP3    H133412   1.644   4.136   1.123 -0.0607  0.0641  0.6918
 3999TIP3    H233413   1.519   4.204   1.072 -0.7767 -1.1342  0.8069
 4000TIP3   OH233414   3.386   5.799  14.411  0.4065  0.4974 -0.3287
 4000TIP3    H133415   3.394   5.780  14.318 -1.1384 -0.7712 -0.2657
 4000TIP3    H233416   3.455   5.748  14.452  0.1673 -0.1172 -0.6776
 4001TIP3   OH233417   6.566   2.417   5.353  0.2858  0.7311 -0.5033
 4001TIP3    H133418   6.528   2.475   5.419  1.8890  0.7216  0.4893
 4001TIP3    H233419   6.599   2.343   5.403 -0.3734 -0.3318 -1.5908
 4002TIP3   OH233420   1.591   4.403  12.440  0.3807 -0.5799 -0.0355
 4002TIP3    H133421   1.579   4.338  12.370 -0.3982  0.7762 -1.2274
 4002TIP3    H233422   1.561   4.485  12.401 -1.4457  0.0069  2.3384
 4003TIP3   OH233423   2.081   3.247   2.362 -0.1458  0.1977 -0.1805
 4003TIP3    H133424   2.110   3.168   2.317  1.7206  0.9038 -0.3013
 4003TIP3    H233425   2.162   3.291   2.389 -1.1614  0.8269  2.0893
 4004TIP3   OH233426   5.468   4.212  15.626 -0.3194  0.1152  0.1040
 4004TIP3    H133427   5.392   4.265  15.600  0.6553  1.0292 -0.9664
 4004TIP3    H233428   5.537   4.237  15.564  0.3956 -1.8758  0.0302
 4005TIP3   OH233429   0.908   6.750   5.769 -0.1120  0.5119  0.6248
 4005TIP3    H133430   0.839   6.787   5.714  0.6976 -0.8819 -1.4820
 4005TIP3    H233431   0.985   6.805   5.750  0.1110  0.1672  0.5091
 4006TIP3   OH233432   4.203   5.502   0.386  0.1811  0.2075 -0.3590
 4006TIP3    H133433   4.176   5.534   0.300  1.8810 -0.3434 -1.1342
 4006TIP3    H233434   4.133   5.443   0.413 -0.2045  0.1257 -1.5151
 4007TIP3   OH233435   4.286   4.067   2.973 -0.1723  0.3853 -0.2333
 4007TIP3    H133436   4.258   4.004   2.907  1.4114 -0.2685 -0.3458
 4007TIP3    H233437   4.314   4.144   2.924 -1.0837  0.7644 -0.1670
 4008TIP3   OH233438   1.275   1.087  13.761  0.3190  0.2511 -0.5227
 4008TIP3    H133439   1.212   1.157  13.780  1.6301  0.7427  2.5461
 4008TIP3    H233440   1.225   1.023  13.711 -2.0732  1.4774  0.1474
 4009TIP3   OH233441   6.561   6.032   1.741  0.7241 -0.3739  0.1962
 4009TIP3    H133442   6.585   6.069   1.656  0.0320 -2.8525 -1.1619
 4009TIP3    H233443   6.642   6.035   1.792  1.3735  0.3671 -0.8284
 4010TIP3   OH233444   0.172   0.643   2.762 -0.7354 -0.2505  0.3823
 4010TIP3    H133445   0.267   0.645   2.775 -0.7284 -1.4072  0.6312
 4010TIP3    H233446   0.136   0.627   2.849 -1.0343 -1.6843  0.0303
 4011TIP3   OH233447   0.294   6.621   1.130  0.1731 -0.0170 -0.4807
 4011TIP3    H133448   0.313   6.528   1.122  0.9713  0.1352 -0.4418
 4011TIP3    H233449   0.360   6.654   1.191 -0.1712  0.5534 -0.4094
 4012TIP3   OH233450   0.787   5.314  15.581  0.1766 -0.0955  0.3211
 4012TIP3    H133451   0.764   5.395  15.626 -2.9837 -0.6058 -0.0870
 4012TIP3    H233452   0.811   5.253  15.651 -0.0560  0.4519  0.8867
 4013TIP3   OH233453   0.949   5.043  15.031 -0.2303  0.2967 -0.1455
 4013TIP3    H133454   0.879   5.102  15.057  0.4941  1.7619 -1.3476
 4013TIP3    H233455   1.010   5.042  15.106 -1.6601 -1.3209  1.0780
 4014TIP3   OH233456   3.101   0.637  17.250 -0.0453  0.4923 -0.1957
 4014TIP3    H133457   3.130   0.668  17.335 -1.1418  0.0123  0.3786
 4014TIP3    H233458   3.075   0.716  17.203 -1.6798  0.6090  0.8115
 4015TIP3   OH233459   3.594   3.394  16.123 -0.1794 -0.4675  0.2500
 4015TIP3    H133460   3.533   3.363  16.056 -1.9105 -1.9109  2.3593
 4015TIP3    H233461   3.673   3.342  16.110 -0.5653 -0.8665 -0.5316
 4016TIP3   OH233462   0.338   5.706   3.722  0.3131 -0.8554  0.3260
 4016TIP3    H133463   0.296   5.665   3.647  0.6334  0.5703 -0.6799
 4016TIP3    H233464   0.418   5.746   3.686 -0.2485  1.0949  1.0853
 4017TIP3   OH233465   2.622   3.622   1.809 -0.0543 -0.1664 -0.1818
 4017TIP3    H133466   2.619   3.528   1.796  1.6260 -0.1751 -0.7203
 4017TIP3    H233467   2.714   3.641   1.827 -0.3103  1.4068 -0.3719
 4018TIP3   OH233468   0.118   5.435  16.499 -0.2343 -0.0176 -0.0211
 4018TIP3    H133469   0.192   5.399  16.450  0.7315  0.7711  0.8087
 4018TIP3    H233470   0.128   5.400  16.587 -0.2673  0.8751  0.3496
 4019TIP3   OH233471   4.948   6.522   0.088  0.1909  0.3135  0.0718
 4019TIP3    H133472   4.997   6.518   0.006  1.5129  1.2942  0.7834
 4019TIP3    H233473   4.952   6.614   0.114 -4.1182  1.0237 -1.0125
 4020TIP3   OH233474   3.394   0.455  15.758  0.2677  0.2159 -0.3568
 4020TIP3    H133475   3.322   0.403  15.723  0.6974 -1.3391  1.0150
 4020TIP3    H233476   3.388   0.447  15.853  0.7133  2.2044 -0.1033
 4021TIP3   OH233477   1.009   2.875  12.546  0.8103 -0.6166 -0.2289
 4021TIP3    H133478   0.995   2.781  12.562 -1.0788 -0.1278  1.3650
 4021TIP3    H233479   0.959   2.893  12.467  0.3132 -0.7693  0.0440
 4022TIP3   OH233480   3.392   5.258  14.200  0.4102 -0.1789  0.7681
 4022TIP3    H133481   3.313   5.215  14.167 -0.0587  0.4139  1.0884
 4022TIP3    H233482   3.406   5.219  14.287  0.3191 -0.1050  0.8167
 4023TIP3   OH233483   6.262   3.008   2.089  0.0980 -0.0161 -0.3600
 4023TIP3    H133484   6.213   2.965   2.159  1.5412  0.1885  0.8239
 4023TIP3    H233485   6.212   2.990   2.009 -1.2105 -0.8441  0.6207
 4024TIP3   OH233486   4.742   0.614   4.771  0.3963 -0.0782 -0.3040
 4024TIP3    H133487   4.754   0.541   4.710  4.0793  1.4894 -1.7493
 4024TIP3    H233488   4.691   0.679   4.722  0.5766 -0.0995 -0.5208
 4025TIP3   OH233489   6.412   1.576  12.167  0.3219  0.4519  0.5696
 4025TIP3    H133490   6.416   1.591  12.073  1.6919 -0.5147  0.4477
 4025TIP3    H233491   6.349   1.504  12.177  1.4326 -0.6067  0.2046
 4026TIP3   OH233492   1.982   3.934   5.108  0.2163 -0.4685  0.2004
 4026TIP3    H133493   2.001   3.884   5.029  2.1751  2.0808 -1.0966
 4026TIP3    H233494   1.886   3.933   5.115 -0.0900 -0.1241 -2.6994
 4027TIP3   OH233495   6.077   3.200   0.075 -0.0072  0.3083  0.3851
 4027TIP3    H133496   6.101   3.120   0.122 -0.8438  1.0199  2.1142
 4027TIP3    H233497   5.987   3.217   0.102 -1.4788 -0.5080 -3.3644
 4028TIP3   OH233498   6.389   5.889   2.919 -0.5299 -0.1986 -0.0802
 4028TIP3    H133499   6.362   5.801   2.895 -0.2277 -0.2926 -0.0797
 4028TIP3    H233500   6.438   5.878   3.001  2.3138 -0.4773 -1.7041
 4029TIP3   OH233501   3.206   5.245   2.206 -0.1124  0.4351 -0.0762
 4029TIP3    H133502   3.282   5.300   2.186  0.7157 -1.3256 -2.1957
 4029TIP3    H233503   3.137   5.307   2.228  1.3279  2.2096 -0.2808
 4030TIP3   OH233504   0.426   6.383  16.347  0.3009  0.0123 -0.2391
 4030TIP3    H133505   0.517   6.405  16.328  0.0375  0.3691 -1.1575
 4030TIP3    H233506   0.414   6.405  16.439  1.3081 -0.6043  0.0599
 4031TIP3   OH233507   1.042   3.008   1.024 -0.7609  0.2074  0.3438
 4031TIP3    H133508   1.114   3.044   0.973 -0.4362 -0.3909  0.3797
 4031TIP3    H233509   0.978   3.080   1.029 -0.6162  0.4100 -0.5504
 4032TIP3   OH233510   5.273   0.721   1.268 -0.4287  0.2380 -0.7747
 4032TIP3    H133511   5.212   0.700   1.339  1.7924 -1.8370  0.6725
 4032TIP3    H233512   5.336   0.649   1.269  1.3460  1.6531 -2.9914
 4033TIP3   OH233513   6.611   4.101  16.519  0.1345  0.7810 -0.4003
 4033TIP3    H133514   6.574   4.015  16.502  2.5802 -0.4253 -0.0575
 4033TIP3    H233515   6.686   4.084  16.576  0.9945  3.0690 -0.7454
 4034TIP3   OH233516   5.985   3.308  11.607  0.0575  0.0650  0.0794
 4034TIP3    H133517   5.961   3.306  11.700 -0.4112 -1.9317 -0.0591
 4034TIP3    H233518   6.076   3.278  11.605 -0.5885 -1.9638 -0.2651
 4035TIP3   OH233519   2.702   2.246  14.396 -0.0066 -0.0295 -0.2173
 4035TIP3    H133520   2.634   2.268  14.333 -1.0175  1.5199  1.3079
 4035TIP3    H233521   2.674   2.163  14.434 -0.3501 -0.0542 -0.5222
 4036TIP3   OH233522   6.055   6.294  16.117  0.3279 -0.3482  0.0741
 4036TIP3    H133523   5.976   6.294  16.171 -0.4321  1.2902 -0.9596
 4036TIP3    H233524   6.094   6.380  16.131  1.3280 -0.7260 -0.2838
 4037TIP3   OH233525   4.988   5.151   1.150 -0.9028  0.2729  0.4557
 4037TIP3    H133526   4.982   5.073   1.095 -1.7252  1.2434 -0.9005
 4037TIP3    H233527   5.041   5.124   1.225 -1.7330 -1.7594  0.3683
 4038TIP3   OH233528   5.402   4.791  15.605 -0.0807 -0.0795 -0.3263
 4038TIP3    H133529   5.442   4.872  15.634  0.6637 -0.5347 -0.0480
 4038TIP3    H233530   5.457   4.722  15.642 -0.9837 -0.7225 -0.1389
 4039TIP3   OH233531   0.826   3.871  12.056  0.4098  0.3806  0.0509
 4039TIP3    H133532   0.799   3.891  12.146 -0.9623  1.5005 -0.5723
 4039TIP3    H233533   0.745   3.847  12.011  1.2425 -1.4005 -0.6236
 4040TIP3   OH233534   0.209   1.100   0.756  0.2314  0.3692 -0.0816
 4040TIP3    H133535   0.303   1.084   0.745  0.4610  0.2663  1.7118
 4040TIP3    H233536   0.200   1.133   0.845 -1.6406 -1.5773  0.5591
 4041TIP3   OH233537   3.909   2.960   0.774  0.8754 -0.2137 -0.5390
 4041TIP3    H133538   3.918   3.004   0.690 -1.6356 -1.0617 -1.3422
 4041TIP3    H233539   3.941   2.871   0.759  1.7005  0.0120 -0.1847
 4042TIP3   OH233540   0.095   5.664   0.754 -0.5896 -0.0290  0.6119
 4042TIP3    H133541   0.088   5.759   0.762 -3.0823 -0.1228  0.4679
 4042TIP3    H233542   0.032   5.641   0.684 -0.8298 -1.8530  1.3638
 4043TIP3   OH233543   0.607   5.617   1.412 -0.1854 -0.3064 -0.3396
 4043TIP3    H133544   0.553   5.541   1.387  0.8780 -1.2421  0.0935
 4043TIP3    H233545   0.694   5.580   1.427  0.3255  0.9951  0.0331
 4044TIP3   OH233546   5.918   4.776   2.092 -0.4483  0.1115 -0.8172
 4044TIP3    H133547   5.896   4.720   2.018 -1.4583  0.5762 -0.8863
 4044TIP3    H233548   5.901   4.723   2.169  1.8493 -0.8343 -0.8817
 4045TIP3   OH233549   1.609   3.783  11.890 -0.0797 -0.6237  0.3622
 4045TIP3    H133550   1.691   3.774  11.842  0.6303  2.5480  0.7491
 4045TIP3    H233551   1.627   3.850  11.956 -3.4238  1.6935 -0.7908
 4046TIP3   OH233552   4.545   0.529  16.769 -0.1623 -0.2076 -0.1735
 4046TIP3    H133553   4.636   0.497  16.771  0.3178  0.8466 -2.2700
 4046TIP3    H233554   4.522   0.542  16.861  2.6741  1.7641  0.3799
 4047TIP3   OH233555   5.990   3.843   1.610  0.2457 -0.0004 -0.7023
 4047TIP3    H133556   6.027   3.867   1.525  1.1266  2.2695  0.2426
 4047TIP3    H233557   6.066   3.813   1.661 -0.3367 -1.7297 -0.7907
 4048TIP3   OH233558   5.121   2.314  11.260 -0.8544 -0.6823 -0.4660
 4048TIP3    H133559   5.207   2.355  11.264 -0.9504 -0.4107 -1.0310
 4048TIP3    H233560   5.129   2.247  11.191 -0.7072 -1.6121  0.4329
 4049TIP3   OH233561   2.713   0.627   1.863 -0.2406  0.0325 -0.5710
 4049TIP3    H133562   2.689   0.690   1.930 -0.7171 -0.1073 -0.6072
 4049TIP3    H233563   2.802   0.601   1.885 -0.2326  0.3218 -0.2553
 4050TIP3   OH233564   2.809   1.816  13.926  0.5039 -0.4176 -0.2757
 4050TIP3    H133565   2.809   1.777  13.838 -0.2056 -0.9682 -0.0369
 4050TIP3    H233566   2.801   1.742  13.985 -1.9076  0.1044  0.1522
 4051TIP3   OH233567   1.051   6.644   4.282 -0.1761 -0.1504  0.2758
 4051TIP3    H133568   0.989   6.713   4.259  0.3779 -0.0376 -0.9670
 4051TIP3    H233569   1.105   6.633   4.204  1.2772 -0.3455  1.2534
 4052TIP3   OH233570   2.118   0.036  14.757  0.0277 -0.0265 -0.6024
 4052TIP3    H133571   2.197  -0.018  14.757 -0.3681 -0.6197 -1.1686
 4052TIP3    H233572   2.142   0.114  14.708  0.3318 -0.0976 -0.5678
 4053TIP3   OH233573   0.131   6.400  12.535  0.2255  0.5617 -0.0410
 4053TIP3    H133574   0.185   6.385  12.613  0.5133  1.2774 -0.0933
 4053TIP3    H233575   0.165   6.338  12.471  2.3845  2.3098 -0.7353
 4054TIP3   OH233576   2.897   3.318   1.705  0.6006  0.2039  0.6255
 4054TIP3    H133577   2.970   3.377   1.724  0.7073  0.0558  0.6730
 4054TIP3    H233578   2.933   3.254   1.644  0.6564 -0.1863  1.0649
 4055TIP3   OH233579   2.793   2.335   2.322 -0.0887 -0.4866  0.1073
 4055TIP3    H133580   2.823   2.250   2.289  1.3298 -0.0187  0.1454
 4055TIP3    H233581   2.792   2.392   2.246 -1.5705 -0.6464 -0.0247
 4056TIP3   OH233582   2.598   3.078  10.981  0.3872 -0.7075 -0.3814
 4056TIP3    H133583   2.539   3.007  11.006 -0.9571 -0.2422 -2.0355
 4056TIP3    H233584   2.626   3.055  10.893  1.0341  0.1338 -0.4004
 4057TIP3   OH233585   3.581   6.118   2.278 -0.2742  0.0465  0.2246
 4057TIP3    H133586   3.541   6.129   2.365  1.9155 -1.6317  1.5826
 4057TIP3    H233587   3.630   6.199   2.264 -1.4855  0.7721  0.0203
 4058TIP3   OH233588   6.117   5.219   3.117  0.1308 -0.2729  0.1822
 4058TIP3    H133589   6.185   5.239   3.053  1.4237 -1.2624  1.1918
 4058TIP3    H233590   6.035   5.223   3.067  0.9009  1.0642 -1.0365
 4059TIP3   OH233591   0.004   3.344  15.976  0.0145 -0.4469 -0.7653
 4059TIP3    H133592   0.092   3.379  15.989 -0.7375  1.6042 -0.7838
 4059TIP3    H233593  -0.018   3.366  15.885 -0.7844 -0.2997 -0.5450
 4060TIP3   OH233594   3.013   1.580  11.566  0.4467  0.0412 -0.5681
 4060TIP3    H133595   2.951   1.516  11.603  0.3847  0.4152 -0.0269
 4060TIP3    H233596   2.996   1.576  11.472  1.0586 -1.3883 -0.6432
 4061TIP3   OH233597   5.574   5.087  15.104  0.1184 -0.1531  0.0251
 4061TIP3    H133598   5.541   5.094  15.014  0.0058  1.4448  0.1660
 4061TIP3    H233599   5.644   5.023  15.099  1.3980  1.2890 -1.6123
 4062TIP3   OH233600   4.057   2.983  16.871  0.9921  0.2606  0.8964
 4062TIP3    H133601   4.009   3.025  16.943  1.0477  1.9270  0.0139
 4062TIP3    H233602   4.064   2.892  16.897 -0.4293  0.4899  2.2451
 4063TIP3   OH233603   2.037   4.847   2.587 -0.2124  0.7015 -0.3193
 4063TIP3    H133604   1.954   4.814   2.552  0.3691  0.1957 -1.2730
 4063TIP3    H233605   2.090   4.768   2.600  0.1239  1.0246  0.2595
 4064TIP3   OH233606   0.779   0.606  13.666  0.5228  0.9875  0.0647
 4064TIP3    H133607   0.684   0.608  13.654  0.4753  3.8483  0.1162
 4064TIP3    H233608   0.800   0.514  13.678 -2.0592  0.1214 -1.3154
 4065TIP3   OH233609   6.155   6.440   4.375 -0.7618 -0.5932 -0.1698
 4065TIP3    H133610   6.136   6.509   4.439  0.2265 -2.0092  1.7779
 4065TIP3    H233611   6.218   6.479   4.315  0.1473  0.0715  1.1747
 4066TIP3   OH233612   4.924   5.735   2.009  0.0379 -0.0401  0.7516
 4066TIP3    H133613   5.007   5.742   1.961 -0.9848  0.4553 -1.0187
 4066TIP3    H233614   4.857   5.763   1.946 -1.6055 -1.4392  1.7917
 4067TIP3   OH233615   0.316   1.906  14.406 -0.1927 -0.2515 -0.7920
 4067TIP3    H133616   0.303   1.946  14.320 -1.7381 -0.5860 -0.7516
 4067TIP3    H233617   0.248   1.945  14.461  1.0336  0.2552  0.4062
 4068TIP3   OH233618   5.899   2.166   5.506 -0.4577 -0.1307  0.0490
 4068TIP3    H133619   5.850   2.113   5.444 -0.2642 -0.1889 -0.0527
 4068TIP3    H233620   5.835   2.188   5.575 -1.7072  2.8733 -1.8529
 4069TIP3   OH233621   3.637   2.356   6.375 -0.0650 -0.3088  0.6529
 4069TIP3    H133622   3.730   2.373   6.393  0.5309 -0.3447 -1.9318
 4069TIP3    H233623   3.636   2.268   6.338 -0.8010  0.4542 -1.2591
 4070TIP3   OH233624   6.607   6.742  13.222 -0.8414 -0.0286  0.2709
 4070TIP3    H133625   6.670   6.775  13.287 -2.0607 -0.1994  1.6042
 4070TIP3    H233626   6.626   6.648  13.217  0.3080  0.2295 -0.8748
 4071TIP3   OH233627   2.241   1.184  10.633 -0.3152 -0.2372  1.3468
 4071TIP3    H133628   2.210   1.246  10.698  1.1475  3.4466 -1.1355
 4071TIP3    H233629   2.317   1.143  10.673  1.3037  2.8378  1.6571
 4072TIP3   OH233630   3.511   1.658  10.761 -0.2274 -0.4303 -0.0897
 4072TIP3    H133631   3.495   1.611  10.843 -2.6587 -0.6029 -0.5831
 4072TIP3    H233632   3.525   1.749  10.787  0.6312 -0.7579  0.6113
 4073TIP3   OH233633   0.608   1.701  16.876  0.8233  0.5003 -0.0426
 4073TIP3    H133634   0.655   1.618  16.878 -0.1078 -0.1338 -1.7030
 4073TIP3    H233635   0.666   1.760  16.828  0.5993  0.1533 -0.7660
 4074TIP3   OH233636   1.543   2.873   6.171  0.2789  0.4987 -0.3751
 4074TIP3    H133637   1.466   2.861   6.226 -1.0923  1.4934 -1.9568
 4074TIP3    H233638   1.575   2.784   6.155 -0.3957  0.0753  0.5141
 4075TIP3   OH233639   0.452   0.863   0.174  0.5541 -0.1978 -0.1839
 4075TIP3    H133640   0.408   0.786   0.139 -2.5063  0.5820  1.5280
 4075TIP3    H233641   0.482   0.836   0.261  0.4955  0.1899 -0.0396
 4076TIP3   OH233642   5.062   4.972  13.312 -0.0131 -0.0697 -0.4338
 4076TIP3    H133643   5.031   4.936  13.395  2.8681  1.9640  1.6764
 4076TIP3    H233644   4.988   5.025  13.280 -1.5092 -1.6449  0.2362
 4077TIP3   OH233645   4.787   1.445   5.441  0.1851 -0.0991 -0.0656
 4077TIP3    H133646   4.794   1.524   5.496 -0.3387 -0.2059  0.1546
 4077TIP3    H233647   4.878   1.422   5.421  0.3216  1.2256 -1.0940
 4078TIP3   OH233648   2.015   1.934  13.518  0.0511  0.5055  0.5503
 4078TIP3    H133649   1.994   1.922  13.425  0.9561  0.5863  0.3189
 4078TIP3    H233650   2.016   2.029  13.531 -1.4495  0.4753  0.9888
 4079TIP3   OH233651   3.152   4.758  16.839 -0.3664 -0.0150 -0.0474
 4079TIP3    H133652   3.076   4.714  16.801  0.0381 -1.2083  0.4861
 4079TIP3    H233653   3.144   4.744  16.933  0.6956 -0.4779 -0.0142
 4080TIP3   OH233654   2.385   1.923   5.480  0.2066 -0.3404  0.3065
 4080TIP3    H133655   2.461   1.948   5.427 -0.6454 -1.7198 -1.6946
 4080TIP3    H233656   2.370   1.831   5.459 -3.2093  0.3779 -1.0006
 4081TIP3   OH233657   2.583   5.701   5.740 -0.4155  0.2453 -0.0206
 4081TIP3    H133658   2.560   5.704   5.833  0.3876  1.9172  0.1559
 4081TIP3    H233659   2.542   5.779   5.702 -0.5406 -0.2934 -1.0314
 4082TIP3   OH233660   1.605   6.121   5.036  0.1898  0.2963 -0.0536
 4082TIP3    H133661   1.675   6.147   4.976 -0.9541 -0.2479 -1.6939
 4082TIP3    H233662   1.607   6.025   5.035  0.0695  0.2805  0.6827
 4083TIP3   OH233663   6.666   5.601   5.251 -0.3341 -0.2798 -0.2993
 4083TIP3    H133664   6.678   5.624   5.343 -1.7779  3.9662 -0.9907
 4083TIP3    H233665   6.741   5.639   5.206 -0.6316 -0.6221 -1.1215
 4084TIP3   OH233666   3.030   2.389   6.584 -0.1744 -0.5224 -0.3229
 4084TIP3    H133667   2.989   2.362   6.502 -0.7212 -0.0556 -0.2124
 4084TIP3    H233668   3.037   2.484   6.576  0.5247 -0.5620 -0.1702
 4085TIP3   OH233669   6.000   0.715  12.092  0.7082  0.0578 -0.7153
 4085TIP3    H133670   5.929   0.720  12.028 -0.3180 -1.3547  0.2572
 4085TIP3    H233671   6.013   0.621  12.106  1.1587  0.3252  0.8577
 4086TIP3   OH233672   3.766   3.715  15.041  0.1833  0.2819 -0.2660
 4086TIP3    H133673   3.684   3.765  15.051  0.5758  0.9037 -0.0620
 4086TIP3    H233674   3.746   3.649  14.975 -0.7072 -0.0614  0.3333
 4087TIP3   OH233675   3.013   6.591  15.862  0.2298 -0.3354  0.0664
 4087TIP3    H133676   2.925   6.596  15.899  0.3677 -0.5874  0.4341
 4087TIP3    H233677   3.018   6.665  15.801 -0.3982 -0.6031 -0.3160
 4088TIP3   OH233678   5.162   0.387  16.656  0.3619  0.2155  0.1309
 4088TIP3    H133679   5.181   0.314  16.598 -0.6174  0.7242 -0.8720
 4088TIP3    H233680   5.211   0.460  16.619 -0.1940  0.5196 -0.0191
 4089TIP3   OH233681   4.957   6.447   3.484 -0.6569 -0.0548 -0.0648
 4089TIP3    H133682   4.976   6.533   3.521  0.0824  0.4321 -1.5364
 4089TIP3    H233683   5.038   6.421   3.440 -1.3899 -0.7857 -1.0182
 4090TIP3   OH233684   6.510   1.742   0.650 -0.1768 -0.1865 -0.1970
 4090TIP3    H133685   6.463   1.795   0.585 -3.2689 -0.3210  1.7415
 4090TIP3    H233686   6.534   1.662   0.603 -3.8340 -1.0336 -0.8919
 4091TIP3   OH233687   2.630   4.178   1.320 -0.0780  0.2868  0.2061
 4091TIP3    H133688   2.575   4.102   1.339 -0.3737 -0.0470 -1.7770
 4091TIP3    H233689   2.621   4.234   1.396  1.6679 -2.4663  2.6522
 4092TIP3   OH233690   0.647   3.396   1.904  0.1236  0.0774 -0.2811
 4092TIP3    H133691   0.628   3.489   1.908 -1.9644 -0.2900 -0.3526
 4092TIP3    H233692   0.662   3.370   1.995  0.6416  0.4553 -0.2567
 4093TIP3   OH233693   6.186   3.919   2.245  0.1900  0.0500 -0.5343
 4093TIP3    H133694   6.214   3.977   2.174 -0.1041 -0.7715 -1.3388
 4093TIP3    H233695   6.151   3.978   2.312  0.4969  0.8408 -1.0616
 4094TIP3   OH233696   2.915   1.046   4.437  0.2656  0.2328  0.1930
 4094TIP3    H133697   2.952   1.107   4.372  1.6554 -0.1081  0.6310
 4094TIP3    H233698   2.945   0.960   4.409 -2.8751 -0.5176 -1.2467
 4095TIP3   OH233699   2.754   3.860  11.757 -0.1431  0.1705 -0.5438
 4095TIP3    H133700   2.669   3.819  11.775 -0.0503  0.8269  1.6885
 4095TIP3    H233701   2.793   3.805  11.690 -0.8231 -2.3366  0.9678
 4096TIP3   OH233702   6.326   4.049   5.456  0.0493  0.1543 -0.0279
 4096TIP3    H133703   6.238   4.015   5.442  0.2804  0.4050 -2.4587
 4096TIP3    H233704   6.382   4.000   5.396  1.4441  0.5825  0.8557
 4097TIP3   OH233705   3.473   1.715  15.337  0.5858 -0.2294  0.1676
 4097TIP3    H133706   3.541   1.773  15.302  0.4351 -0.5395 -0.6394
 4097TIP3    H233707   3.427   1.770  15.401  1.1351  0.2049  0.2064
 4098TIP3   OH233708   0.130   0.279   2.453  0.2389  0.6891  0.0511
 4098TIP3    H133709   0.143   0.283   2.358  0.4214 -0.3419  0.0153
 4098TIP3    H233710   0.156   0.190   2.476  0.6950  1.0951  1.1465
 4099TIP3   OH233711   1.322   1.280  10.453  0.5082  0.9083 -0.0636
 4099TIP3    H133712   1.321   1.329  10.370 -0.1898 -1.9671 -1.9187
 4099TIP3    H233713   1.279   1.337  10.515  0.3013  2.8752 -1.8880
 4100TIP3   OH233714   5.211   2.787   2.320  0.1981 -0.3240 -0.1067
 4100TIP3    H133715   5.119   2.804   2.343  0.5358  0.3182  0.7823
 4100TIP3    H233716   5.251   2.873   2.313  0.4899 -0.5552 -1.5935
 4101TIP3   OH233717   5.002   2.232   4.978  0.0382 -0.1659  0.3719
 4101TIP3    H133718   4.912   2.232   4.945  0.2798 -1.4514 -0.3415
 4101TIP3    H233719   4.993   2.218   5.072 -0.5047 -0.3659  0.2922
 4102TIP3   OH233720   0.391   2.847  11.629  0.3088 -0.2327 -0.2827
 4102TIP3    H133721   0.367   2.928  11.585 -3.1110 -1.5129 -1.0665
 4102TIP3    H233722   0.352   2.854  11.717  0.4773 -0.7896 -0.1563
 4103TIP3   OH233723   0.892   3.130   3.316 -0.1117  0.3912 -0.0017
 4103TIP3    H133724   0.815   3.183   3.337  0.9598  1.3191  1.8326
 4103TIP3    H233725   0.947   3.187   3.262  0.6191  0.8562  1.1981
 4104TIP3   OH233726   0.784   4.803  15.917 -0.0075 -0.5733 -0.0491
 4104TIP3    H133727   0.798   4.710  15.899 -0.2755 -0.3094 -1.8102
 4104TIP3    H233728   0.724   4.832  15.848 -0.3116  0.8034  0.7628
 4105TIP3   OH233729   4.422   3.365  12.966 -0.8965  0.3677  0.1542
 4105TIP3    H133730   4.402   3.275  12.939  1.2568  0.7735 -3.5159
 4105TIP3    H233731   4.338   3.411  12.962 -1.8105 -1.1542  0.8422
 4106TIP3   OH233732   0.135   2.994  14.259  1.0483  0.5630  0.5633
 4106TIP3    H133733   0.179   2.999  14.344  0.7447 -2.0761  0.9866
 4106TIP3    H233734   0.183   2.926  14.211 -1.2802 -1.0560  0.3295
 4107TIP3   OH233735   1.760   3.345  13.268  0.5167 -0.3534  0.4397
 4107TIP3    H133736   1.796   3.383  13.347 -1.4094 -0.0241  1.2005
 4107TIP3    H233737   1.756   3.418  13.206 -1.6032  0.3502  1.3456
 4108TIP3   OH233738   4.151   3.114  10.473 -0.6331  0.0852 -0.3132
 4108TIP3    H133739   4.075   3.167  10.494  0.6642  1.5716  0.8092
 4108TIP3    H233740   4.149   3.043  10.537 -0.7023  0.5097  0.1598
 4109TIP3   OH233741   4.037   2.940  12.045 -0.1895 -0.6920 -0.4494
 4109TIP3    H133742   4.049   2.963  12.137 -0.3675  1.9810 -0.9954
 4109TIP3    H233743   3.942   2.948  12.030 -0.0123  0.4207 -1.1512
 4110TIP3   OH233744   3.091   2.015   1.372  0.0305 -0.2690 -0.2770
 4110TIP3    H133745   3.160   2.081   1.360 -0.4863  0.4665  0.6793
 4110TIP3    H233746   3.139   1.933   1.384  0.7945  0.3466  1.1461
 4111TIP3   OH233747   3.991   0.643  13.770 -0.1348  0.0741  0.0617
 4111TIP3    H133748   3.971   0.720  13.822 -1.3299  0.2548 -0.6287
 4111TIP3    H233749   3.989   0.673  13.679  1.1478 -0.3992 -0.1475
 4112TIP3   OH233750   6.021   3.220  12.555  0.0856  0.0094 -0.1391
 4112TIP3    H133751   6.031   3.125  12.554 -0.4881 -0.0846  1.0718
 4112TIP3    H233752   6.040   3.246  12.645  0.2994  1.0549 -0.4647
 4113TIP3   OH233753   1.944   3.002  14.716 -0.0515 -0.0578 -0.4036
 4113TIP3    H133754   2.025   2.959  14.741 -0.3449 -1.0510 -1.1283
 4113TIP3    H233755   1.931   2.979  14.624 -2.6715 -2.4827  0.4208
 4114TIP3   OH233756   4.250   0.441   1.531 -0.3327  0.2778 -0.3723
 4114TIP3    H133757   4.324   0.491   1.564  1.1030 -0.3187 -2.4676
 4114TIP3    H233758   4.250   0.361   1.583  1.6892 -0.5270 -1.4964
 4115TIP3   OH233759   6.256   6.548   2.656 -0.0902 -0.1684 -0.2338
 4115TIP3    H133760   6.225   6.463   2.689  0.5058 -0.0399  0.6828
 4115TIP3    H233761   6.187   6.576   2.597 -1.1135 -0.5142  0.7471
 4116TIP3   OH233762   2.649   2.678  11.730 -0.3061  0.2298  0.5419
 4116TIP3    H133763   2.574   2.677  11.671  0.0796  2.8757 -0.0932
 4116TIP3    H233764   2.695   2.596  11.710 -0.5016  0.7237 -2.4678
 4117TIP3   OH233765   3.633   4.421  15.179  0.1094 -0.7229 -0.1881
 4117TIP3    H133766   3.550   4.377  15.194 -0.9572  1.1259 -0.3923
 4117TIP3    H233767   3.625   4.458  15.092  0.8782  0.0364  0.0540
 4118TIP3   OH233768   1.326   4.565   1.635 -0.3804 -0.3381  0.0790
 4118TIP3    H133769   1.384   4.493   1.612  0.0521  0.2547 -0.7136
 4118TIP3    H233770   1.256   4.563   1.569 -0.1344  0.2255 -0.2065
 4119TIP3   OH233771   5.797   2.068   2.219  0.0714 -0.2161 -0.0529
 4119TIP3    H133772   5.740   2.126   2.169  0.7504  2.2952  1.9196
 4119TIP3    H233773   5.883   2.079   2.179  0.2512  0.3171  0.4876
 4120TIP3   OH233774   5.992   3.454   2.822  0.2533 -0.2537  0.1720
 4120TIP3    H133775   6.066   3.404   2.857  0.8544  0.3082 -0.2926
 4120TIP3    H233776   5.961   3.506   2.896  2.3530  1.9374 -0.3788
 4121TIP3   OH233777   3.990   3.381  16.433 -0.4831 -0.6628 -0.1926
 4121TIP3    H133778   4.039   3.322  16.491  2.3631  2.4973  0.9223
 4121TIP3    H233779   3.912   3.403  16.484 -0.1834 -1.2654  0.5663
 4122TIP3   OH233780   4.771   6.335   6.814  0.2408 -0.1801  0.7805
 4122TIP3    H133781   4.759   6.429   6.802  1.1466 -0.2299 -0.7032
 4122TIP3    H233782   4.684   6.298   6.803 -0.0711  0.4386  1.0876
 4123TIP3   OH233783   0.656   4.877   4.493  0.3103 -0.2326 -0.3425
 4123TIP3    H133784   0.650   4.889   4.587 -0.7073 -1.0527 -0.2861
 4123TIP3    H233785   0.571   4.903   4.459  0.9017  0.7409 -1.1315
 4124TIP3   OH233786   0.139   1.142  11.005 -0.0377 -0.0039  0.4629
 4124TIP3    H133787   0.222   1.096  11.017 -0.7089 -0.9329  1.8823
 4124TIP3    H233788   0.095   1.134  11.090 -1.2103  1.2184  0.0092
 4125TIP3   OH233789   4.576   4.902   7.019  0.1936 -0.1044  0.2563
 4125TIP3    H133790   4.540   4.853   6.945  0.5751  0.7047 -0.4815
 4125TIP3    H233791   4.666   4.872   7.025 -0.1316 -0.9546  1.0878
 4126TIP3   OH233792   1.518   0.549   1.984 -0.0884 -0.5137  0.4786
 4126TIP3    H133793   1.494   0.472   2.035  0.5240  0.2192  1.9284
 4126TIP3    H233794   1.436   0.599   1.976 -0.0640 -0.3057  1.3646
 4127TIP3   OH233795   4.361   1.899   1.541  0.0476 -0.8461 -0.5380
 4127TIP3    H133796   4.290   1.932   1.596  0.1955 -0.1950 -0.7254
 4127TIP3    H233797   4.331   1.915   1.452  0.2835 -0.8863 -0.6252
 4128TIP3   OH233798   4.851   2.444   1.269  0.3714 -0.2676 -0.0069
 4128TIP3    H133799   4.876   2.533   1.244 -0.1258 -0.0468  0.2543
 4128TIP3    H233800   4.896   2.388   1.206  1.3673  0.1145  0.3548
 4129TIP3   OH233801   1.745   6.105  15.766  0.9166 -0.5167 -0.0311
 4129TIP3    H133802   1.709   6.107  15.677  0.0106  0.0504  0.3394
 4129TIP3    H233803   1.708   6.182  15.809  1.7937 -0.4727  0.6724
 4130TIP3   OH233804   3.369   0.043  13.696 -0.1506 -0.6207 -0.0038
 4130TIP3    H133805   3.371  -0.038  13.747 -1.0149 -0.6051  0.0642
 4130TIP3    H233806   3.305   0.026  13.627  1.3647 -0.8261 -1.4129
 4131TIP3   OH233807   3.942   3.329  10.945 -0.0425  0.0571 -0.1100
 4131TIP3    H133808   3.902   3.267  10.883 -0.2233  0.7984 -0.7508
 4131TIP3    H233809   3.918   3.296  11.031 -2.5809  0.7853 -0.4557
 4132TIP3   OH233810   1.622   5.506  12.972 -0.4147 -0.3749 -0.1655
 4132TIP3    H133811   1.565   5.435  13.001 -0.4851 -0.1567  0.2355
 4132TIP3    H233812   1.592   5.527  12.883 -0.5330 -0.6991 -0.2017
 4133TIP3   OH233813   2.280   2.495   3.400 -0.2276  0.0975  0.1495
 4133TIP3    H133814   2.229   2.437   3.343  0.3821  0.3090 -0.6364
 4133TIP3    H233815   2.352   2.525   3.344 -0.1555  1.0712  0.7568
 4134TIP3   OH233816   3.286   1.262  13.409  0.5852 -0.1162  0.0292
 4134TIP3    H133817   3.364   1.288  13.360 -0.6006 -1.9866 -3.1622
 4134TIP3    H233818   3.320   1.205  13.478  2.2295  1.2846  0.4393
 4135TIP3   OH233819   4.804   3.205  13.734  0.3715  0.4273  0.5703
 4135TIP3    H133820   4.869   3.163  13.678 -1.2196 -0.5301 -0.6547
 4135TIP3    H233821   4.840   3.293  13.750  1.9218 -0.0545 -0.0853
 4136TIP3   OH233822   2.212   3.970  12.055  0.1907  0.3686 -0.7249
 4136TIP3    H133823   2.246   3.897  12.107  1.8978  0.5754 -1.4957
 4136TIP3    H233824   2.215   3.940  11.965 -3.1412 -0.1343 -0.7866
 4137TIP3   OH233825   2.478   2.578   1.377  0.1247 -0.3838  0.3656
 4137TIP3    H133826   2.393   2.559   1.339 -0.0253  0.7603  0.1212
 4137TIP3    H233827   2.460   2.597   1.469  0.2711 -1.3022  0.5987
 4138TIP3   OH233828   1.356   0.422   4.582 -0.3681  0.4587 -0.1784
 4138TIP3    H133829   1.333   0.454   4.495 -1.1680 -2.2739 -1.0422
 4138TIP3    H233830   1.437   0.372   4.569 -0.5058  0.0078  0.6370
 4139TIP3   OH233831   6.408   5.464  14.598  0.2103 -0.0395 -0.3287
 4139TIP3    H133832   6.354   5.508  14.532  2.3253 -0.2692 -2.3270
 4139TIP3    H233833   6.438   5.535  14.655 -2.7717 -0.0043  1.4051
 4140TIP3   OH233834   3.658   4.448  15.985  0.1248  0.3720  0.1538
 4140TIP3    H133835   3.603   4.383  16.029 -1.1085  0.4089 -1.2487
 4140TIP3    H233836   3.747   4.427  16.014 -0.4549 -0.6203  1.3357
 4141TIP3   OH233837   0.138   6.341  14.117 -0.2806  0.2669 -0.9043
 4141TIP3    H133838   0.207   6.358  14.053  1.2693 -1.7397  0.0905
 4141TIP3    H233839   0.057   6.356  14.069  0.7853  2.7143 -2.1332
 4142TIP3   OH233840   4.196   1.392   4.346 -0.3915 -0.6559 -0.2636
 4142TIP3    H133841   4.124   1.394   4.283 -0.1925  0.4655 -0.4686
 4142TIP3    H233842   4.154   1.393   4.432 -0.6354 -1.1701 -0.3696
 4143TIP3   OH233843   5.163   4.168  13.429 -0.1078 -0.5451 -0.0943
 4143TIP3    H133844   5.093   4.120  13.385  0.2251 -0.3162 -0.9064
 4143TIP3    H233845   5.239   4.110  13.424  0.0717 -0.2969 -0.3210
 4144TIP3   OH233846   1.104   5.713  14.341  0.0724  0.5825 -0.6520
 4144TIP3    H133847   1.075   5.703  14.432  0.0250  0.9160 -0.6312
 4144TIP3    H233848   1.025   5.740  14.294 -0.1819 -0.7093 -1.0027
 4145TIP3   OH233849   5.745   2.679   0.635 -0.0686  0.1886 -0.0792
 4145TIP3    H133850   5.811   2.634   0.686  0.6606 -0.3760 -1.4601
 4145TIP3    H233851   5.662   2.656   0.676  0.4932 -0.1922  0.8614
 4146TIP3   OH233852   2.735   3.147  11.481 -0.4817  0.1857  0.5273
 4146TIP3    H133853   2.721   3.123  11.389 -0.3366  0.9526  0.2950
 4146TIP3    H233854   2.657   3.117  11.527 -1.1883  1.0469 -0.0907
 4147TIP3   OH233855   3.414   0.553  14.661  0.1416 -0.6586 -0.0287
 4147TIP3    H133856   3.434   0.508  14.579 -1.9220 -1.1608 -0.3224
 4147TIP3    H233857   3.378   0.485  14.718  1.8039 -0.3726  1.4304
 4148TIP3   OH233858   1.313   0.125   5.495  0.1692 -0.0469  0.0326
 4148TIP3    H133859   1.336   0.050   5.440  1.0911  0.0729  0.2347
 4148TIP3    H233860   1.219   0.114   5.512  0.4934 -1.7799  0.9840
 4149TIP3   OH233861   0.775   4.026   4.769  0.0318  0.4976 -0.1048
 4149TIP3    H133862   0.833   4.102   4.767  0.7337 -0.0303 -0.2298
 4149TIP3    H233863   0.829   3.954   4.737 -0.6257 -0.0559  0.0115
 4150TIP3   OH233864   5.559   1.645  16.909  0.2936  0.7016 -0.2419
 4150TIP3    H133865   5.528   1.630  16.998 -0.0952 -0.5387 -0.5621
 4150TIP3    H233866   5.511   1.723  16.880 -0.0918  0.7127  0.3957
 4151TIP3   OH233867   3.530   2.593   2.332 -0.3276  0.0990  0.6231
 4151TIP3    H133868   3.513   2.539   2.255 -1.0524  3.5553 -1.8637
 4151TIP3    H233869   3.450   2.587   2.384 -0.0936 -1.7410  0.8367
 4152TIP3   OH233870   5.364   5.799  13.753  0.2941 -0.4899  0.0396
 4152TIP3    H133871   5.391   5.876  13.802  0.4451  0.3334 -1.3101
 4152TIP3    H233872   5.418   5.728  13.788  1.6225  0.4189 -0.1234
 4153TIP3   OH233873   5.502   0.793  16.469  0.0379  0.2126  0.3367
 4153TIP3    H133874   5.520   0.857  16.538  1.8078  0.3951 -0.2531
 4153TIP3    H233875   5.451   0.843  16.404 -0.3804  0.4414  0.8353
 4154TIP3   OH233876   4.833   3.311  10.137  0.0527  0.1944  0.4380
 4154TIP3    H133877   4.773   3.372  10.095 -0.7532  0.0231  1.3022
 4154TIP3    H233878   4.775   3.251  10.185  0.7168 -2.0228 -1.3607
 4155TIP3   OH233879   4.877   3.542  16.779  0.4103 -0.2434 -0.3557
 4155TIP3    H133880   4.809   3.475  16.792  0.9705 -0.3953  2.4502
 4155TIP3    H233881   4.852   3.612  16.839  1.3059  0.8903 -1.2697
 4156TIP3   OH233882   5.422   1.892   5.819  0.2851 -0.2563 -0.2776
 4156TIP3    H133883   5.369   1.967   5.842  2.7343  1.1172  1.4286
 4156TIP3    H233884   5.443   1.904   5.727 -1.3157 -0.2139 -0.6649
 4157TIP3   OH233885   5.273   1.676  10.696  0.2083  0.2567  0.6090
 4157TIP3    H133886   5.203   1.734  10.665  0.3831  0.2831  0.2664
 4157TIP3    H233887   5.231   1.622  10.762  0.1992  1.2436  1.4468
 4158TIP3   OH233888   1.099   2.109  16.928  0.2950  0.6195  0.4283
 4158TIP3    H133889   1.042   2.106  17.004  0.6097 -0.5425  0.6426
 4158TIP3    H233890   1.169   2.047  16.948  1.4412  1.7318  0.0100
 4159TIP3   OH233891   3.818   5.002   0.825 -0.1578 -0.6314 -0.2103
 4159TIP3    H133892   3.843   5.046   0.744 -2.8049  1.0618 -0.2438
 4159TIP3    H233893   3.755   4.935   0.797  0.5715 -1.5512  0.2803
 4160TIP3   OH233894   0.493   2.619   1.170 -0.3045  0.2122  0.2082
 4160TIP3    H133895   0.476   2.674   1.094  0.8347  0.4063  0.0771
 4160TIP3    H233896   0.536   2.541   1.134  0.7127  0.5324  0.6963
 4161TIP3   OH233897   2.237   2.283  16.898  0.0549  0.1063  0.2112
 4161TIP3    H133898   2.249   2.222  16.971  0.4671 -0.4629 -0.3256
 4161TIP3    H233899   2.248   2.230  16.820  0.8012  0.9312 -0.2744
 4162TIP3   OH233900   2.261   2.796  12.552  0.2613 -0.8561 -0.1056
 4162TIP3    H133901   2.354   2.806  12.535  0.0828  1.9456  0.0098
 4162TIP3    H233902   2.255   2.782  12.646  0.5542 -0.5767 -0.0432
 4163TIP3   OH233903   1.437   6.709   4.363 -0.0157 -0.3099 -0.3778
 4163TIP3    H133904   1.496   6.761   4.417  0.7899 -1.2303 -0.3380
 4163TIP3    H233905   1.426   6.627   4.410 -1.6958 -0.0184 -0.1770
 4164TIP3   OH233906   1.859   3.327   1.883  0.4485  0.4140  0.2752
 4164TIP3    H133907   1.860   3.367   1.969  0.3712  1.0301 -0.0065
 4164TIP3    H233908   1.789   3.261   1.888  1.3867 -0.5464  1.1164
 4165TIP3   OH233909   1.070   6.102   3.892  0.4571 -0.2656 -0.1785
 4165TIP3    H133910   1.020   6.053   3.957 -1.8292 -1.2292 -2.4776
 4165TIP3    H233911   1.050   6.194   3.910 -0.2828 -0.5264  0.3926
 4166TIP3   OH233912   5.469   0.295   3.556  0.0866 -0.2158 -0.2181
 4166TIP3    H133913   5.538   0.264   3.498  1.8754  0.7951  1.2664
 4166TIP3    H233914   5.449   0.219   3.612 -1.2509 -1.0171 -1.6894
 4167TIP3   OH233915   4.547   4.541   6.137  0.1732  0.0871 -0.1039
 4167TIP3    H133916   4.496   4.461   6.143 -0.2464  0.2693 -1.1637
 4167TIP3    H233917   4.576   4.558   6.227 -1.7541  0.0521  0.5568
 4168TIP3   OH233918   2.445   6.209  13.953  0.6681  0.2303 -0.4208
 4168TIP3    H133919   2.358   6.200  13.912 -0.0242  0.7471  0.8644
 4168TIP3    H233920   2.483   6.286  13.913  0.4182  0.1542 -0.8045
 4169TIP3   OH233921   6.037   3.631   0.298  0.4703  0.9585 -0.2378
 4169TIP3    H133922   6.045   3.606   0.206 -0.8966 -0.4026 -0.0381
 4169TIP3    H233923   5.974   3.568   0.334  1.4916  1.0169  1.7987
 4170TIP3   OH233924   3.188   5.312   5.200 -0.1465 -0.2163  0.3416
 4170TIP3    H133925   3.208   5.373   5.129  1.9954 -2.1799 -0.8732
 4170TIP3    H233926   3.207   5.362   5.280  2.0504  0.6225 -0.6222
 4171TIP3   OH233927   5.582   1.493   2.143  0.3884  0.3693 -0.2803
 4171TIP3    H133928   5.550   1.478   2.232 -2.1904  0.9373 -1.0380
 4171TIP3    H233929   5.662   1.545   2.155 -0.5742  1.5162  1.6891
 4172TIP3   OH233930   4.709   0.340  12.625 -0.1120 -0.9418 -0.2696
 4172TIP3    H133931   4.642   0.294  12.677  0.5787 -1.8554 -0.1636
 4172TIP3    H233932   4.662   0.368  12.547 -1.1248  0.2874  0.7255
 4173TIP3   OH233933   3.163   6.497   6.361 -0.2787  0.4768  0.1305
 4173TIP3    H133934   3.203   6.499   6.448  0.3382  2.1059 -0.1600
 4173TIP3    H233935   3.071   6.515   6.376 -0.4486 -0.6559  0.5560
 4174TIP3   OH233936   5.981   5.372  15.464 -0.3320  0.0903  0.1403
 4174TIP3    H133937   5.889   5.399  15.459 -0.2594  0.1640 -1.3985
 4174TIP3    H233938   5.979   5.287  15.506 -0.8339  1.1976  2.5398
 4175TIP3   OH233939   4.175   6.740  12.112  0.1880 -0.2132  0.1181
 4175TIP3    H133940   4.244   6.732  12.046  1.0645 -0.1311  0.9903
 4175TIP3    H233941   4.126   6.659  12.106 -0.8526  0.4890 -1.8033
 4176TIP3   OH233942   5.811   5.786  17.321  0.0101  0.5793 -0.2082
 4176TIP3    H133943   5.810   5.799  17.226 -1.8761  2.7117  0.0164
 4176TIP3    H233944   5.751   5.713  17.336  0.6348 -0.0382 -0.6597
 4177TIP3   OH233945   4.219   0.280   1.760 -0.1058 -0.0388 -0.7334
 4177TIP3    H133946   4.209   0.273   1.855 -1.0060  1.7572 -0.6463
 4177TIP3    H233947   4.129   0.285   1.726  0.1878 -1.0431 -1.7452
 4178TIP3   OH233948   1.709   6.227  16.561 -0.8507  0.3840  0.0980
 4178TIP3    H133949   1.775   6.234  16.492 -1.5366 -0.4831 -0.6746
 4178TIP3    H233950   1.723   6.141  16.600 -1.1181  0.4586  0.3698
 4179TIP3   OH233951   4.658   5.523   4.918  0.8797 -0.2765  0.1152
 4179TIP3    H133952   4.744   5.486   4.900  2.0977  1.9797  0.9478
 4179TIP3    H233953   4.646   5.512   5.012  0.4417 -0.1485  0.0782
 4180TIP3   OH233954   3.527   2.124  14.619 -0.0866  0.3025  0.6696
 4180TIP3    H133955   3.442   2.106  14.660 -0.3608 -1.3472 -0.5056
 4180TIP3    H233956   3.590   2.122  14.691 -0.3271 -4.0729  1.0157
 4181TIP3   OH233957   0.711   3.753  12.887 -0.1173 -0.7602  0.4828
 4181TIP3    H133958   0.742   3.673  12.929 -1.6973 -1.0114  1.2375
 4181TIP3    H233959   0.653   3.723  12.817 -0.7587 -0.2712  0.8029
 4182TIP3   OH233960   4.700   2.503   1.574  1.0925  0.0121 -0.2407
 4182TIP3    H133961   4.762   2.555   1.523  2.3003 -1.0960  0.0713
 4182TIP3    H233962   4.743   2.419   1.587 -1.2146 -1.4720 -1.5837
 4183TIP3   OH233963   2.249   6.563  12.150 -0.1905  0.7552  0.2276
 4183TIP3    H133964   2.309   6.562  12.075  0.9443  3.1742  0.9997
 4183TIP3    H233965   2.301   6.533  12.224 -0.1323  2.0303  0.7374
 4184TIP3   OH233966   5.131   5.297   0.565  0.1822  0.3644  0.5144
 4184TIP3    H133967   5.160   5.293   0.656 -1.0518  0.6764  0.9349
 4184TIP3    H233968   5.041   5.327   0.569  0.9013  3.1032 -0.9577
 4185TIP3   OH233969   1.778   2.431   1.523 -0.3437  0.6802 -0.7008
 4185TIP3    H133970   1.773   2.488   1.600  1.3656  0.4254 -0.3623
 4185TIP3    H233971   1.864   2.391   1.528  0.0226  1.0327 -3.0203
 4186TIP3   OH233972   0.484   3.747   3.734  0.1230  0.2798 -0.1680
 4186TIP3    H133973   0.579   3.757   3.735  0.2332 -0.6149  0.3959
 4186TIP3    H233974   0.457   3.774   3.647  0.5207  3.3780  0.5581
 4187TIP3   OH233975   4.434   0.888   5.543  0.2311 -0.0274 -0.2394
 4187TIP3    H133976   4.361   0.843   5.586  0.3393  0.7776  0.8432
 4187TIP3    H233977   4.403   0.906   5.455 -0.8981  0.3206  0.2093
 4188TIP3   OH233978   0.785   2.339  15.227 -0.0888  0.2294 -0.2952
 4188TIP3    H133979   0.698   2.357  15.191 -0.2770  0.4954  0.2873
 4188TIP3    H233980   0.844   2.394  15.176 -0.5522  1.8996  0.9056
 4189TIP3   OH233981   3.000   0.343  16.053  0.0703  0.2430 -0.0639
 4189TIP3    H133982   2.957   0.287  15.988  0.8229  0.8720 -1.1207
 4189TIP3    H233983   2.983   0.432  16.023  3.3108  0.5366 -1.4004
 4190TIP3   OH233984   1.072   1.857  16.200  0.1344 -0.7694  0.1715
 4190TIP3    H133985   1.044   1.865  16.291  1.1308 -0.3238  0.4558
 4190TIP3    H233986   0.994   1.877  16.149 -0.5184 -1.3178  0.9192
 4191TIP3   OH233987   6.305   3.940   0.625  0.7753 -0.3144 -0.5603
 4191TIP3    H133988   6.317   3.872   0.692  0.4198 -1.6021 -1.7551
 4191TIP3    H233989   6.309   4.022   0.674  0.6148 -1.2004  1.0265
 4192TIP3   OH233990   1.682   4.117  14.661 -0.0185  0.6761 -0.6422
 4192TIP3    H133991   1.703   4.029  14.629  1.7712  0.7854  0.1322
 4192TIP3    H233992   1.677   4.170  14.582  1.3163  0.3460 -0.9712
 4193TIP3   OH233993   0.483   0.923  15.783 -0.0123 -0.1100  0.2647
 4193TIP3    H133994   0.425   0.847  15.790 -0.6505  0.4372  1.0899
 4193TIP3    H233995   0.429   0.997  15.809  1.0778  0.3983  1.1811
 4194TIP3   OH233996   5.413   6.202   0.272 -0.2279 -0.3592 -0.0481
 4194TIP3    H133997   5.339   6.262   0.274 -0.1888 -0.2838 -0.7598
 4194TIP3    H233998   5.392   6.139   0.203  0.6365  0.0236 -0.6874
 4195TIP3   OH233999   1.994   2.579  14.199  0.0092 -0.1913  1.0580
 4195TIP3    H134000   2.027   2.597  14.287  0.0513  0.8741  0.8494
 4195TIP3    H234001   1.899   2.589  14.207  0.0810  0.8087  0.8081
 4196TIP3   OH234002   6.470   3.482  13.125  0.1720  0.2040 -0.1364
 4196TIP3    H134003   6.478   3.479  13.029  0.0776 -0.0962 -0.1349
 4196TIP3    H234004   6.541   3.540  13.153 -0.6663  1.4448 -0.4975
 4197TIP3   OH234005   0.516   3.298  10.682 -0.0345  0.5775  0.2287
 4197TIP3    H134006   0.582   3.286  10.615 -0.3163 -0.9350  0.2026
 4197TIP3    H234007   0.504   3.212  10.721 -1.5703  0.9265  0.6159
 4198TIP3   OH234008   4.144   1.829   4.654  0.1003  0.2249 -0.1674
 4198TIP3    H134009   4.139   1.918   4.619 -1.4255 -0.3210 -1.4655
 4198TIP3    H234010   4.067   1.821   4.710 -1.3668 -1.0630 -2.1869
 4199TIP3   OH234011   5.382   3.981  17.375 -0.3417  0.0876 -0.2818
 4199TIP3    H134012   5.350   4.034  17.449  0.1588  0.1503 -0.1051
 4199TIP3    H234013   5.403   3.897  17.414  1.3667  0.5935 -0.0494
 4200TIP3   OH234014   4.255   5.047   6.226  0.1974  0.4836  0.4119
 4200TIP3    H134015   4.203   5.106   6.281  0.1390  0.9451 -0.1348
 4200TIP3    H234016   4.346   5.075   6.239  0.3650 -0.5842  1.6841
 4201TIP3   OH234017   6.686   2.708   5.381  0.0214  0.6160  0.0342
 4201TIP3    H134018   6.592   2.691   5.375  0.4121 -1.6591 -0.2627
 4201TIP3    H234019   6.710   2.680   5.470  0.7400 -0.7355 -0.5597
 4202TIP3   OH234020   4.503   3.133  13.143  0.0805  0.2868 -0.7468
 4202TIP3    H134021   4.477   3.225  13.151 -1.4825 -0.2318  0.7059
 4202TIP3    H234022   4.427   3.089  13.105 -0.2742 -0.8098  1.0641
 4203TIP3   OH234023   6.131   1.497   3.259  0.6720  0.2562 -0.0329
 4203TIP3    H134024   6.169   1.428   3.203  1.8159  1.5034 -0.8544
 4203TIP3    H234025   6.077   1.549   3.200  0.1042  0.2951  0.5098
 4204TIP3   OH234026   2.973   0.824  11.825 -0.1069 -0.2780  0.0148
 4204TIP3    H134027   2.922   0.748  11.797 -1.9366  1.0843 -0.6161
 4204TIP3    H234028   2.915   0.870  11.887  0.5030  1.1152 -0.4051
 4205TIP3   OH234029   3.755   5.535  11.954  0.9700  0.0257  0.1210
 4205TIP3    H134030   3.661   5.517  11.962  0.9653  0.4340  1.0930
 4205TIP3    H234031   3.759   5.626  11.922  1.0271  0.5587  1.5743
 4206TIP3   OH234032   3.358   3.654   3.030 -0.5005 -0.2115  0.1144
 4206TIP3    H134033   3.360   3.573   3.081  0.8340 -0.2951 -0.0450
 4206TIP3    H234034   3.390   3.721   3.090  1.3106 -0.3518 -0.6523
 4207TIP3   OH234035   2.417   1.381   0.452 -0.2447 -0.4803 -0.1576
 4207TIP3    H134036   2.432   1.327   0.530  1.0575 -2.5977 -1.7555
 4207TIP3    H234037   2.325   1.368   0.430 -0.4065 -0.5321  0.5436
 4208TIP3   OH234038   0.584   2.194  13.902  0.0154  1.0971 -0.0876
 4208TIP3    H134039   0.530   2.245  13.841 -0.7484  1.2890  0.7275
 4208TIP3    H234040   0.571   2.103  13.875  0.8601  1.2597 -1.1319
 4209TIP3   OH234041   3.927   3.376   4.009 -0.0281  0.7661  0.1883
 4209TIP3    H134042   3.878   3.434   4.066 -0.2349  0.2037  0.5944
 4209TIP3    H234043   3.997   3.341   4.065 -0.6035 -0.2626  0.2861
 4210TIP3   OH234044   3.992   2.557  12.780 -0.0512  0.4703 -0.9723
 4210TIP3    H134045   4.038   2.534  12.699  0.2607  1.4762 -1.0851
 4210TIP3    H234046   3.977   2.651  12.774  1.2299  0.8468  0.7464
 4211TIP3   OH234047   6.144   1.421   3.761  0.2062  0.2203  0.6988
 4211TIP3    H134048   6.066   1.441   3.813  0.7773  0.9689  1.3034
 4211TIP3    H234049   6.195   1.502   3.763  0.7167 -0.0645 -0.1965
 4212TIP3   OH234050   6.575   2.749  11.297 -0.5881 -0.3243  0.0567
 4212TIP3    H134051   6.649   2.801  11.327 -0.4240 -1.4527  1.6746
 4212TIP3    H234052   6.507   2.814  11.277  0.5259  0.6591 -0.6641
 4213TIP3   OH234053   5.019   0.645   0.821 -0.6228 -0.0156 -0.2469
 4213TIP3    H134054   5.080   0.576   0.850 -0.2545  0.7504  0.9020
 4213TIP3    H234055   5.071   0.699   0.762 -1.0876 -1.0283 -1.6323
 4214TIP3   OH234056   1.016   0.603  11.483 -0.1735 -0.1997  0.4225
 4214TIP3    H134057   1.091   0.560  11.441  0.8985  3.1461 -1.4316
 4214TIP3    H234058   0.942   0.545  11.465  1.4231 -2.1677 -0.2377
 4215TIP3   OH234059   2.138   1.828   2.691 -0.0205  0.3534 -0.1105
 4215TIP3    H134060   2.044   1.832   2.673  0.1270  0.6833 -0.8018
 4215TIP3    H234061   2.175   1.783   2.615  0.2687 -0.6398  0.5932
 4216TIP3   OH234062   6.005   0.387   2.919  0.6299  0.4433 -0.7905
 4216TIP3    H134063   5.916   0.410   2.894 -0.5745  0.5043  2.9202
 4216TIP3    H234064   6.030   0.316   2.860 -1.3168  1.3217 -2.7927
 4217TIP3   OH234065   5.464   1.626  17.214 -0.6658 -0.0496 -0.4591
 4217TIP3    H134066   5.408   1.694  17.249  0.7016  1.3986 -0.9525
 4217TIP3    H234067   5.540   1.624  17.273  0.4786  0.6725 -1.8302
 4218TIP3   OH234068   3.794   5.063   3.543  0.0347 -0.3315  0.8522
 4218TIP3    H134069   3.733   5.052   3.615  1.3119 -0.5676  1.9314
 4218TIP3    H234070   3.816   4.974   3.516  0.6420 -0.2658  1.1203
 4219TIP3   OH234071   6.499   4.388  14.549 -0.3392 -0.0667 -0.1281
 4219TIP3    H134072   6.454   4.469  14.522  0.2488 -0.1809 -1.5782
 4219TIP3    H234073   6.591   4.404  14.529  0.1256 -0.2515  1.7639
 4220TIP3   OH234074   1.429   4.506   4.352  0.3280 -0.1888  0.3097
 4220TIP3    H134075   1.507   4.451   4.365  1.1532  1.0758  0.8895
 4220TIP3    H234076   1.448   4.586   4.400 -0.1194  1.3036 -1.8496
 4221TIP3   OH234077   6.650   2.833   6.040 -0.0870  0.5199 -0.1639
 4221TIP3    H134078   6.713   2.761   6.032  0.9479  1.1985  1.2752
 4221TIP3    H234079   6.628   2.856   5.950  0.2399 -1.0088 -0.6643
 4222TIP3   OH234080   4.270   5.959  16.157 -0.7290 -0.0061 -0.1790
 4222TIP3    H134081   4.229   5.965  16.243 -0.0486  0.5771  0.1146
 4222TIP3    H234082   4.265   6.048  16.121 -1.6224 -0.3852 -1.0397
 4223TIP3   OH234083   0.166   5.962   0.399  0.3860  0.0153 -0.2799
 4223TIP3    H134084   0.098   6.029   0.411  0.6593  0.4098 -0.8616
 4223TIP3    H234085   0.226   6.001   0.336  1.5770 -0.0195  0.8019
 4224TIP3   OH234086   2.053   6.732  15.488  0.0836  0.2357 -0.1586
 4224TIP3    H134087   2.116   6.705  15.556  1.6165 -0.2017 -1.6768
 4224TIP3    H234088   2.099   6.715  15.406 -2.1960 -0.4623 -1.3584
 4225TIP3   OH234089   4.513   0.993  13.056 -0.4307  0.3896  0.7330
 4225TIP3    H134090   4.553   1.079  13.044 -0.1956  0.0282 -1.2856
 4225TIP3    H234091   4.544   0.941  12.982  0.1696 -1.7427  2.3816
 4226TIP3   OH234092   4.130   4.902  16.831  0.4265 -0.7787  0.0770
 4226TIP3    H134093   4.043   4.899  16.791  0.7265  0.2011 -0.6911
 4226TIP3    H234094   4.114   4.928  16.921 -0.0828 -0.7147 -0.0255
 4227TIP3   OH234095   1.369   5.333  12.643  0.4608  0.7014  0.4235
 4227TIP3    H134096   1.305   5.348  12.713  0.6872  1.3706  0.4898
 4227TIP3    H234097   1.316   5.303  12.569  0.0113  1.5973  0.3620
 4228TIP3   OH234098   3.369   3.178   3.953 -0.4631 -0.4314  0.3067
 4228TIP3    H134099   3.273   3.183   3.957 -0.4855 -1.1465  1.1831
 4228TIP3    H234100   3.398   3.269   3.951 -1.1403 -0.1585  1.5206
 4229TIP3   OH234101   0.989   5.111   2.267 -0.0017  0.2536  0.6993
 4229TIP3    H134102   1.004   5.121   2.173 -1.2801 -1.2109  0.3010
 4229TIP3    H234103   0.915   5.051   2.273  0.4893 -0.2117  2.6643
 4230TIP3   OH234104   4.378   6.648   4.574 -0.1548 -0.1707  0.0195
 4230TIP3    H134105   4.436   6.597   4.629  0.4350  1.0511  0.5652
 4230TIP3    H234106   4.290   6.624   4.602  0.1321  0.8978  1.9757
 4231TIP3   OH234107   0.675   0.841  15.600 -0.1012 -0.0974  0.1617
 4231TIP3    H134108   0.605   0.880  15.652 -2.3169 -0.7173 -2.1871
 4231TIP3    H234109   0.721   0.917  15.562 -1.2779  0.3068 -0.4921
 4232TIP3   OH234110   2.666   1.211  13.769 -0.1081  0.2412 -0.2534
 4232TIP3    H134111   2.674   1.166  13.685 -1.1074 -1.2249  0.3997
 4232TIP3    H234112   2.590   1.269  13.759 -1.8468 -1.8135  0.3933
 4233TIP3   OH234113   6.307   0.860   0.154 -0.0604 -0.7896  0.6660
 4233TIP3    H134114   6.349   0.775   0.141 -0.0081 -0.8090  0.9564
 4233TIP3    H234115   6.214   0.843   0.143 -0.0302 -0.8302  0.4556
 4234TIP3   OH234116   0.781   6.081  11.951 -0.3275 -0.4273 -0.0362
 4234TIP3    H134117   0.722   6.156  11.959  0.4817  0.0335  2.5099
 4234TIP3    H234118   0.726   6.010  11.918 -2.0823  0.2607  1.2805
 4235TIP3   OH234119   0.496   0.500  17.000 -0.5884  0.1862  0.5921
 4235TIP3    H134120   0.436   0.566  17.035 -0.1070  0.9617 -0.0038
 4235TIP3    H234121   0.445   0.453  16.935 -1.2921 -0.8324  1.8288
 4236TIP3   OH234122   6.153   5.170  15.184 -0.0121 -0.1344 -0.2869
 4236TIP3    H134123   6.217   5.187  15.115  3.3929 -0.7699  2.4860
 4236TIP3    H234124   6.183   5.221  15.259 -2.1605 -1.3204  1.5224
 4237TIP3   OH234125   2.143   5.268   5.215 -0.5115 -0.6604  0.0069
 4237TIP3    H134126   2.129   5.225   5.130  0.0843  0.7778 -0.8572
 4237TIP3    H234127   2.091   5.348   5.210 -0.2818 -0.4491  0.9208
 4238TIP3   OH234128   5.451   2.685  12.585  0.0550 -0.3291  0.0387
 4238TIP3    H134129   5.419   2.688  12.495 -1.7020  0.9167  0.6573
 4238TIP3    H234130   5.406   2.610  12.624 -1.0345  0.5512  0.5090
 4239TIP3   OH234131   5.135   2.162  11.019 -0.1931 -0.3103  0.3384
 4239TIP3    H134132   5.183   2.106  10.958  0.1295  0.0058  0.2967
 4239TIP3    H234133   5.045   2.161  10.987 -0.3816 -1.4984  0.8432
 4240TIP3   OH234134   5.679   0.603   4.309  0.1499 -0.0677  0.1578
 4240TIP3    H134135   5.766   0.576   4.278 -0.4049 -0.6376 -0.9991
 4240TIP3    H234136   5.678   0.579   4.401  1.2648  0.0791  0.2309
 4241TIP3   OH234137   3.769   3.995  17.053  0.0684  0.2370  0.8216
 4241TIP3    H134138   3.753   3.931  17.123 -1.0070  0.5071  0.8329
 4241TIP3    H234139   3.849   3.964  17.011 -0.6512 -1.3638  0.5627
 4242TIP3   OH234140   2.675   4.087  15.671 -0.0674 -0.0912  0.3337
 4242TIP3    H134141   2.687   4.040  15.753 -0.7093  0.9811  1.0658
 4242TIP3    H234142   2.583   4.113  15.672 -0.4396 -1.1526 -1.3336
 4243TIP3   OH234143   2.568   1.200  16.038 -0.1223 -0.0611 -0.5394
 4243TIP3    H134144   2.552   1.117  16.082 -0.5273  1.2405  1.9353
 4243TIP3    H234145   2.652   1.229  16.072  0.0979  0.4952 -1.5156
 4244TIP3   OH234146   1.095   5.943   1.090  0.2106 -0.2812  0.1410
 4244TIP3    H134147   1.093   6.030   1.050  0.4429 -1.2634 -2.1406
 4244TIP3    H234148   1.187   5.916   1.083 -0.3289 -1.7970 -1.7601
 4245TIP3   OH234149   0.057   6.297  14.944  0.2423 -0.1503  0.0367
 4245TIP3    H134150   0.084   6.326  14.857  0.8730 -1.8171 -0.3509
 4245TIP3    H234151   0.074   6.373  15.001 -0.4544  1.0661 -1.3107
 4246TIP3   OH234152   1.972   5.016   2.280 -0.7360 -0.0400  0.2307
 4246TIP3    H134153   2.019   5.018   2.364 -2.8120  1.5027  1.4399
 4246TIP3    H234154   1.974   5.107   2.250 -0.7265 -0.4356 -1.0028
 4247TIP3   OH234155   4.036   2.931  11.626  0.3160  0.7530  0.4824
 4247TIP3    H134156   4.008   2.858  11.571  1.0536  1.3679 -0.7585
 4247TIP3    H234157   4.059   2.891  11.710  2.4834 -0.7564 -0.7507
 4248TIP3   OH234158   2.680   4.489  14.195 -0.1039  0.3044 -0.5106
 4248TIP3    H134159   2.622   4.565  14.191  0.4550  0.8318  0.9792
 4248TIP3    H234160   2.749   4.509  14.132 -0.8192  0.2658 -1.3296
 4249TIP3   OH234161   3.909   0.512  12.587  0.0852 -0.1287 -0.0964
 4249TIP3    H134162   3.819   0.522  12.556  0.1731 -1.6361 -0.9351
 4249TIP3    H234163   3.963   0.540  12.514  0.3007 -0.2726  0.0060
 4250TIP3   OH234164   4.319   4.825   5.175 -0.0115  0.0849  0.3106
 4250TIP3    H134165   4.224   4.821   5.159 -0.3311 -1.0624  2.1645
 4250TIP3    H234166   4.345   4.910   5.141 -1.5153  0.0024 -1.1682
 4251TIP3   OH234167   2.622   6.289   4.794  0.4289  0.0947 -0.3920
 4251TIP3    H134168   2.651   6.198   4.793  1.0843  0.2861  0.2325
 4251TIP3    H234169   2.534   6.286   4.831  0.3122 -0.3181 -0.7006
 4252TIP3   OH234170   0.111   1.577  15.271 -0.6214 -0.1461  0.3571
 4252TIP3    H134171   0.121   1.532  15.188  0.1355  0.5976  0.0365
 4252TIP3    H234172   0.035   1.535  15.312  1.0526 -2.9790  0.8926
 4253TIP3   OH234173   0.231   2.834   5.285 -0.1702 -0.1453 -0.5025
 4253TIP3    H134174   0.144   2.870   5.302  0.7372  1.2663  1.5716
 4253TIP3    H234175   0.251   2.780   5.361  1.5750  1.2802  0.1392
 4254TIP3   OH234176   2.661   3.603  16.882  0.8430  0.0420 -0.5060
 4254TIP3    H134177   2.636   3.512  16.868  1.2563 -0.1184 -0.2216
 4254TIP3    H234178   2.757   3.602  16.884  0.8368  0.2209  1.1564
 4255TIP3   OH234179   2.897   5.563  16.353 -0.2566  0.4280 -0.0244
 4255TIP3    H134180   2.906   5.501  16.426 -0.2002 -0.8526 -1.0757
 4255TIP3    H234181   2.806   5.590  16.356 -0.9646 -1.6222 -0.9762
 4256TIP3   OH234182   5.031   6.739   5.023  0.2834  0.5034  0.0339
 4256TIP3    H134183   5.097   6.745   5.092  1.8447 -1.5582 -1.1540
 4256TIP3    H234184   5.033   6.825   4.981  1.3681  0.8631  0.7681
 4257TIP3   OH234185   5.042   0.292   2.279 -0.0247 -0.0117  0.0266
 4257TIP3    H134186   5.137   0.301   2.291 -0.1597  2.5766 -0.1716
 4257TIP3    H234187   5.005   0.366   2.326 -2.1465 -1.9082  1.5386
 4258TIP3   OH234188   4.812   0.084   4.533 -0.2736  0.0723 -0.7463
 4258TIP3    H134189   4.797   0.122   4.620  0.5245  1.1629 -1.0612
 4258TIP3    H234190   4.734   0.107   4.483 -0.5766 -0.2498 -0.4291
 4259TIP3   OH234191   4.917   1.573   3.895 -0.4810  0.2433 -0.4057
 4259TIP3    H134192   4.966   1.503   3.939 -0.7966  0.3220  0.0787
 4259TIP3    H234193   4.830   1.569   3.933 -0.9104 -0.0043 -1.3858
 4260TIP3   OH234194   3.235   4.136   0.183 -0.3813  0.2604  0.3745
 4260TIP3    H134195   3.172   4.135   0.255  1.4000 -0.6286  2.0169
 4260TIP3    H234196   3.254   4.044   0.166  0.0439  0.4941 -0.4960
 4261TIP3   OH234197   2.006   5.193   6.680 -0.2942 -0.0352 -0.0935
 4261TIP3    H134198   1.985   5.281   6.649  0.9552  0.0877 -0.6556
 4261TIP3    H234199   2.062   5.156   6.612  0.4882 -0.6804  0.8788
 4262TIP3   OH234200   0.288   5.565  15.754 -0.8541  0.2923  0.1426
 4262TIP3    H134201   0.241   5.482  15.749 -1.4029  0.6786 -1.5448
 4262TIP3    H234202   0.319   5.581  15.665  0.4391  1.2375  0.7185
 4263TIP3   OH234203   0.842   6.025   2.532 -0.2286 -0.2589  0.0773
 4263TIP3    H134204   0.864   5.950   2.586 -1.4629 -0.3118  0.5541
 4263TIP3    H234205   0.749   6.042   2.551 -0.8633 -0.5759 -2.3783
 4264TIP3   OH234206   0.063   3.504  13.460 -0.5989  0.4384  0.0324
 4264TIP3    H134207  -0.009   3.445  13.481  0.6625 -1.1925  0.0511
 4264TIP3    H234208   0.051   3.579  13.518 -0.4909 -1.2702  2.4272
 4265TIP3   OH234209   5.460   6.267  11.349 -0.4153 -0.0474 -0.1372
 4265TIP3    H134210   5.391   6.296  11.289 -0.4411 -1.8888 -1.0688
 4265TIP3    H234211   5.535   6.249  11.292 -0.3557 -1.5804  0.3730
 4266TIP3   OH234212   2.452   6.308   1.778 -0.2501 -0.0271 -0.0323
 4266TIP3    H134213   2.506   6.229   1.780 -1.4441 -0.8625  0.8237
 4266TIP3    H234214   2.362   6.275   1.776 -0.7715  1.3137 -1.7937
 4267TIP3   OH234215   2.020   3.843   5.588 -0.1302  0.2342  0.1662
 4267TIP3    H134216   1.999   3.928   5.548 -0.1856  0.0490 -0.2111
 4267TIP3    H234217   1.934   3.803   5.605 -0.1963 -1.1740 -2.7820
 4268TIP3   OH234218   0.818   1.048   0.353 -0.0800  0.8743 -0.4120
 4268TIP3    H134219   0.843   1.017   0.266 -1.2057  0.4542 -0.6085
 4268TIP3    H234220   0.797   0.969   0.402  0.8683  1.0888  0.3539
 4269TIP3   OH234221   4.367   3.453   5.683 -0.1366  0.1677 -0.0669
 4269TIP3    H134222   4.444   3.449   5.739  0.4407 -0.1215 -0.8584
 4269TIP3    H234223   4.318   3.529   5.715  1.1354  1.1534 -0.3733
 4270TIP3   OH234224   4.979   5.787   1.234  0.4774  0.2228 -0.4973
 4270TIP3    H134225   5.000   5.718   1.298 -0.8246  0.7406  0.5523
 4270TIP3    H234226   5.010   5.753   1.150  0.3231 -1.4154  0.0793
 4271TIP3   OH234227   3.688   3.883   6.643 -0.2295  1.2275 -0.0587
 4271TIP3    H134228   3.754   3.834   6.594 -2.5264 -1.2515 -0.8461
 4271TIP3    H234229   3.724   3.972   6.648  1.6463  0.7967 -3.2846
 4272TIP3   OH234230   1.596   1.101  16.667 -0.3594 -0.6192  0.5146
 4272TIP3    H134231   1.600   1.021  16.616 -1.7421 -1.0865  1.0998
 4272TIP3    H234232   1.652   1.085  16.742  1.3325 -0.0900 -0.5746
 4273TIP3   OH234233   3.893   0.293   2.962  0.2756 -0.7386 -0.6182
 4273TIP3    H134234   3.929   0.208   2.988  0.2297 -1.1798 -1.9572
 4273TIP3    H234235   3.856   0.328   3.043 -0.6742 -2.4712 -0.2293
 4274TIP3   OH234236   5.880   4.679   5.618 -0.0590 -0.4563 -0.0247
 4274TIP3    H134237   5.794   4.711   5.589 -0.0137 -1.6563 -1.5631
 4274TIP3    H234238   5.942   4.719   5.557  0.0941 -2.5075 -1.3210
 4275TIP3   OH234239   2.413   6.004  11.811 -0.0317 -0.3430  0.0037
 4275TIP3    H134240   2.508   6.008  11.816 -0.0810  0.2908  0.6039
 4275TIP3    H234241   2.383   6.029  11.899 -0.7448 -0.8614 -0.0802
 4276TIP3   OH234242   4.823   5.820   0.676  0.3430  0.0065 -0.8892
 4276TIP3    H134243   4.737   5.814   0.718  0.8436  0.2522  0.1977
 4276TIP3    H234244   4.834   5.913   0.656  0.6212  0.0704 -0.4477
 4277TIP3   OH234245   2.064   5.029   4.022 -0.2473  0.0210  0.3908
 4277TIP3    H134246   2.104   5.086   4.087 -3.0933  0.3402  2.0665
 4277TIP3    H234247   2.055   4.945   4.066 -0.5273 -0.3139 -0.2850
 4278TIP3   OH234248   3.530   0.582   4.895 -0.2964 -0.0009  0.2721
 4278TIP3    H134249   3.623   0.601   4.909 -0.3707 -0.4100  1.3983
 4278TIP3    H234250   3.489   0.599   4.979 -1.6095  2.1210 -0.6846
 4279TIP3   OH234251   3.487   4.244   6.031 -0.0383 -0.1426 -0.1347
 4279TIP3    H134252   3.454   4.154   6.030  0.7473 -0.6007  3.2427
 4279TIP3    H234253   3.415   4.296   5.996 -1.0458 -1.9133 -0.8659
 4280TIP3   OH234254   2.474   0.214   4.034 -0.3324 -0.4483  0.4760
 4280TIP3    H134255   2.450   0.278   4.101 -0.3940 -0.6756  0.6744
 4280TIP3    H234256   2.485   0.132   4.082 -1.1095 -0.7755  0.0993
 4281TIP3   OH234257   4.252   3.682   3.239  0.4915 -0.2034  0.0441
 4281TIP3    H134258   4.245   3.609   3.300 -0.5914 -0.2231 -0.0791
 4281TIP3    H234259   4.223   3.646   3.155 -0.5925  0.4987  0.1008
 4282TIP3   OH234260   1.296   2.884  10.760  0.2029 -0.0191 -0.3751
 4282TIP3    H134261   1.215   2.843  10.789  0.9310 -2.3746 -1.4686
 4282TIP3    H234262   1.267   2.960  10.709 -1.3772 -1.2148 -1.3554
 4283TIP3   OH234263   4.764   0.638  10.919 -0.6423 -0.3196 -0.2956
 4283TIP3    H134264   4.838   0.698  10.926 -1.4202  0.5856  0.5860
 4283TIP3    H234265   4.792   0.560  10.966 -0.6483  0.4689  1.1013
 4284TIP3   OH234266   2.003   3.869  15.274 -0.6867  0.2830  0.2918
 4284TIP3    H134267   2.017   3.840  15.364 -0.2157 -0.5712 -0.0498
 4284TIP3    H234268   2.031   3.961  15.275  1.0440 -0.1996  0.6166
 4285TIP3   OH234269   2.833   5.911  14.730  0.4724 -0.0353  0.4723
 4285TIP3    H134270   2.915   5.957  14.711  1.5062 -0.9913  2.3495
 4285TIP3    H234271   2.825   5.914  14.825  0.2758 -3.1050  0.6577
 4286TIP3   OH234272   0.504   4.493  12.057  0.3674 -0.4248 -0.4775
 4286TIP3    H134273   0.415   4.457  12.048  0.0718  0.2840 -0.4447
 4286TIP3    H234274   0.496   4.584  12.030  0.8107  0.0065  0.7867
 4287TIP3   OH234275   0.616   5.307   4.710  0.7063  1.0297 -0.2526
 4287TIP3    H134276   0.618   5.343   4.622  1.6625 -0.5119 -0.8878
 4287TIP3    H234277   0.699   5.261   4.720 -0.3668 -0.8307  0.5758
 4288TIP3   OH234278   5.158   4.709  15.420 -0.2517  0.2844  0.0806
 4288TIP3    H134279   5.171   4.656  15.341 -3.3694  0.9806 -1.0145
 4288TIP3    H234280   5.237   4.763  15.424  0.0187  0.2569 -2.6210
 4289TIP3   OH234281   0.616   1.253  15.937  0.8567  0.3414  0.8871
 4289TIP3    H134282   0.662   1.333  15.963  0.8936  0.3429  0.8164
 4289TIP3    H234283   0.685   1.190  15.919  0.8394  0.4173  0.5451
 4290TIP3   OH234284   4.512   0.484  15.273  0.5247 -0.8051  0.0866
 4290TIP3    H134285   4.587   0.541  15.259  0.0219 -0.3324 -0.7853
 4290TIP3    H234286   4.520   0.416  15.206  1.3815 -2.0747  1.4164
 4291TIP3   OH234287   4.159   0.441   2.450  0.6447  0.0262  0.7726
 4291TIP3    H134288   4.239   0.390   2.437  0.5962 -0.1822  1.2661
 4291TIP3    H234289   4.121   0.405   2.530  0.6476  0.8891  1.1696
 4292TIP3   OH234290   2.717   0.465   4.729  0.2959  0.3546 -0.3743
 4292TIP3    H134291   2.695   0.555   4.752 -0.6667 -0.0888  0.5360
 4292TIP3    H234292   2.777   0.436   4.797  0.5743  0.2874 -0.6440
 4293TIP3   OH234293   0.674   1.200   1.732  0.1810  0.3187  0.3407
 4293TIP3    H134294   0.673   1.238   1.644 -3.0203 -0.0988  0.0707
 4293TIP3    H234295   0.740   1.251   1.779  0.9470  1.5211 -1.8834
 4294TIP3   OH234296   0.357   4.002   5.972 -0.3092  0.3487 -0.1323
 4294TIP3    H134297   0.351   4.080   6.028 -0.2991 -1.1494  2.0793
 4294TIP3    H234298   0.278   4.006   5.918 -1.1273  1.0887  1.0591
 4295TIP3   OH234299   3.112   2.293  16.627  0.0390 -0.4464  0.0240
 4295TIP3    H134300   3.167   2.222  16.658 -0.4258 -1.1496 -0.7273
 4295TIP3    H234301   3.134   2.367  16.684  1.9859 -0.5942 -0.4633
 4296TIP3   OH234302   4.505   1.366   2.786  0.8353  0.2289 -0.6828
 4296TIP3    H134303   4.488   1.450   2.742 -0.6656  0.0192 -0.5745
 4296TIP3    H234304   4.477   1.300   2.723  0.8596 -0.1505 -0.3013
 4297TIP3   OH234305   6.330   3.599  12.256  0.3327 -0.1032  0.1770
 4297TIP3    H134306   6.406   3.543  12.244  1.9917  2.2423 -0.9809
 4297TIP3    H234307   6.287   3.564  12.335  1.5777 -2.5522 -0.1315
 4298TIP3   OH234308   4.374   5.953   3.155 -0.0229  0.1702 -0.1322
 4298TIP3    H134309   4.377   5.862   3.184  1.3360 -0.5357 -2.2291
 4298TIP3    H234310   4.284   5.980   3.168 -0.1134 -0.9635  1.9585
 4299TIP3   OH234311   1.981   2.608   3.463  0.3527  1.3244 -0.3539
 4299TIP3    H134312   1.911   2.544   3.476 -0.0092  2.0801  1.8911
 4299TIP3    H234313   2.045   2.563   3.408 -0.8878 -0.1582 -0.6452
 4300TIP3   OH234314   0.503   1.432  13.134 -0.6846  0.3697 -0.4609
 4300TIP3    H134315   0.425   1.479  13.165 -2.1987 -1.4389 -1.3252
 4300TIP3    H234316   0.555   1.418  13.214 -2.4279 -0.4696  0.5846
 4301TIP3   OH234317   2.739   5.711   2.449 -0.1905  0.1678 -0.2813
 4301TIP3    H134318   2.833   5.712   2.430 -0.0174 -0.8362  0.4975
 4301TIP3    H234319   2.719   5.620   2.468 -1.2154  0.4650  0.1089
 4302TIP3   OH234320   1.955   5.722  11.315 -0.5911  0.5505  0.0234
 4302TIP3    H134321   1.949   5.780  11.239 -0.6233  0.5979  0.0615
 4302TIP3    H234322   1.866   5.719  11.350 -1.2658 -1.7800 -1.6156
 4303TIP3   OH234323   0.780   1.886   5.646 -0.0405 -0.6137 -0.1309
 4303TIP3    H134324   0.768   1.949   5.575  0.4421 -0.4066 -0.0323
 4303TIP3    H234325   0.692   1.855   5.665 -0.3069  0.1551 -0.0699
 4304TIP3   OH234326   1.967   2.448  13.615  0.5851  0.4704  0.1058
 4304TIP3    H134327   2.021   2.523  13.637  1.0100 -0.0221  0.7865
 4304TIP3    H234328   1.888   2.485  13.576  1.8064  1.1773 -1.8492
 4305TIP3   OH234329   1.440   3.339   1.343 -0.3282  0.7574  0.3643
 4305TIP3    H134330   1.373   3.358   1.278 -1.8131 -1.5017  1.1391
 4305TIP3    H234331   1.420   3.251   1.375  1.4961  1.0033  2.4786
 4306TIP3   OH234332   1.418   1.769  16.819 -0.1458  0.0860 -0.8187
 4306TIP3    H134333   1.428   1.683  16.778  2.4722 -0.0278 -0.1236
 4306TIP3    H234334   1.385   1.825  16.750 -4.0257 -1.8207 -0.7687
 4307TIP3   OH234335   6.260   0.178  14.484  0.1357  0.0061 -0.6214
 4307TIP3    H134336   6.210   0.258  14.500 -1.1134 -0.5652 -1.4585
 4307TIP3    H234337   6.221   0.141  14.404  2.6073  0.0638 -1.9437
 4308TIP3   OH234338   3.272   3.629   1.504 -0.2425 -0.3481  0.1468
 4308TIP3    H134339   3.277   3.724   1.510 -0.1277 -0.2882 -0.7312
 4308TIP3    H234340   3.353   3.603   1.460  0.1579 -0.9421  1.2092
 4309TIP3   OH234341   1.768   2.212  14.476 -0.3229  0.0425 -0.7942
 4309TIP3    H134342   1.858   2.183  14.493 -0.0714  0.9068 -0.5704
 4309TIP3    H234343   1.714   2.135  14.495  0.0645  0.4350  2.4982
 4310TIP3   OH234344   4.476   0.831   0.452  0.1870 -0.3160 -0.2991
 4310TIP3    H134345   4.409   0.775   0.413 -0.9583  0.2922  0.7349
 4310TIP3    H234346   4.499   0.892   0.382 -1.5453  0.5063 -0.2015
 4311TIP3   OH234347   2.929   2.749   2.547  0.2223  0.0252  0.2656
 4311TIP3    H134348   3.019   2.745   2.578 -0.2577 -2.4934  1.5582
 4311TIP3    H234349   2.876   2.727   2.624 -1.4237  0.0384 -0.8168
 4312TIP3   OH234350   4.836   3.252  16.111  0.0849  0.1686  0.3047
 4312TIP3    H134351   4.917   3.202  16.122  0.1159  0.1556  0.0303
 4312TIP3    H234352   4.856   3.316  16.042  0.1181  0.7218  0.8190
 4313TIP3   OH234353   2.212   4.674  12.880 -0.2015  0.0535  0.2857
 4313TIP3    H134354   2.267   4.596  12.887 -0.8933 -0.6127 -1.2754
 4313TIP3    H234355   2.182   4.690  12.970  0.9916 -0.6909  0.8368
 4314TIP3   OH234356   1.603   4.790   5.208  0.2463 -0.1294  0.0518
 4314TIP3    H134357   1.632   4.742   5.130  2.8233  0.2004  0.7147
 4314TIP3    H234358   1.580   4.877   5.175  1.2407 -0.0178 -0.3891
 4315TIP3   OH234359   3.306   0.857  15.162 -0.6565 -0.6182 -0.0093
 4315TIP3    H134360   3.367   0.782  15.164 -0.0867 -0.2386 -1.6047
 4315TIP3    H234361   3.363   0.934  15.155 -1.2440 -0.0088  1.4907
 4316TIP3   OH234362   2.350   4.872   1.958 -0.5094 -0.1512  0.2863
 4316TIP3    H134363   2.267   4.919   1.967 -0.7624 -0.6112  0.3836
 4316TIP3    H234364   2.352   4.846   1.866 -0.7299 -0.6042  0.4062
 4317TIP3   OH234365   2.061   5.817  13.168 -0.4878 -0.1314 -0.2863
 4317TIP3    H134366   1.970   5.791  13.152 -0.9826  0.5141  1.2048
 4317TIP3    H234367   2.095   5.750  13.227 -0.2817  0.1100 -0.1289
 4318TIP3   OH234368   5.232   4.556  14.918  0.3785 -0.4048 -0.6580
 4318TIP3    H134369   5.214   4.531  14.827 -0.2351 -0.4681 -0.5219
 4318TIP3    H234370   5.276   4.480  14.956  0.9453 -0.2513 -0.9892
 4319TIP3   OH234371   0.273   4.018   3.112 -0.1555  0.3531 -0.1761
 4319TIP3    H134372   0.332   4.001   3.185 -1.2303 -0.4904  0.5238
 4319TIP3    H234373   0.205   4.075   3.148 -1.7766 -1.6192  0.0829
 4320TIP3   OH234374   0.143   0.464  16.299 -0.5076 -0.0565 -0.2568
 4320TIP3    H134375   0.126   0.370  16.297 -1.5660 -0.0277  2.5609
 4320TIP3    H234376   0.206   0.475  16.370 -0.5932  1.3683 -0.3767
 4321TIP3   OH234377   2.913   3.476  13.390  0.1124  0.0918 -0.0735
 4321TIP3    H134378   2.890   3.515  13.306  0.3769 -0.9139 -0.6265
 4321TIP3    H234379   2.963   3.398  13.368  1.5963  0.6800  1.0625
 4322TIP3   OH234380   2.539   2.470   1.783 -0.2554  0.3817  0.2301
 4322TIP3    H134381   2.491   2.552   1.781 -0.2815  0.3669  0.2490
 4322TIP3    H234382   2.563   2.453   1.691 -0.3819  0.3323  0.2061
 4323TIP3   OH234383   3.620   2.107   1.440 -0.3855  0.0052  0.4770
 4323TIP3    H134384   3.633   2.202   1.441  0.5287 -0.0644  2.8474
 4323TIP3    H234385   3.649   2.078   1.527 -1.7295 -2.3095  0.2382
 4324TIP3   OH234386   1.929   3.742  15.986  0.6119  0.1861  0.1974
 4324TIP3    H134387   1.988   3.668  16.000  1.6590  1.0611  0.6426
 4324TIP3    H234388   1.851   3.705  15.946  0.7900 -1.2622  1.1298
 4325TIP3   OH234389   3.714   1.298   4.523  0.3237 -0.3201 -0.1766
 4325TIP3    H134390   3.754   1.284   4.437  0.6005  0.1301 -0.1287
 4325TIP3    H234391   3.623   1.270   4.513  0.5118 -0.8396 -0.4454
 4326TIP3   OH234392   6.706   2.568   5.620 -0.1334 -1.1294  0.2054
 4326TIP3    H134393   6.800   2.574   5.603  0.0346  2.3613  1.5294
 4326TIP3    H234394   6.700   2.547   5.714 -0.6356 -0.4696  0.3281
 4327TIP3   OH234395   3.448   6.314   0.269  0.6118  0.3418  0.6482
 4327TIP3    H134396   3.415   6.402   0.251  2.6633  1.7507  3.0822
 4327TIP3    H234397   3.434   6.301   0.363  0.0996 -2.1210  0.3241
 4328TIP3   OH234398   0.483   2.606   0.816 -0.1310 -0.2466  0.1399
 4328TIP3    H134399   0.409   2.579   0.762 -0.9231 -0.5570  1.3237
 4328TIP3    H234400   0.548   2.536   0.806  0.5685  0.6024 -1.8565
 4329TIP3   OH234401   0.634   4.229  14.898  0.7195 -0.9980 -0.4677
 4329TIP3    H134402   0.679   4.306  14.930 -0.5595  0.1395 -1.2751
 4329TIP3    H234403   0.563   4.214  14.961 -1.2981  0.7623 -2.1479
 4330TIP3   OH234404   0.744   0.173  10.765  0.1961  0.4675 -0.4244
 4330TIP3    H134405   0.728   0.143  10.675  2.4047 -0.1327 -0.6695
 4330TIP3    H234406   0.838   0.163  10.777 -0.2659 -1.3334  2.6135
 4331TIP3   OH234407   3.106   0.411   3.743 -0.0896 -0.1373  0.1689
 4331TIP3    H134408   3.073   0.501   3.737  0.9715  0.4784  2.4847
 4331TIP3    H234409   3.077   0.380   3.829 -1.5268 -2.5544 -1.0482
 4332TIP3   OH234410   0.871   0.045   1.106  0.1252 -0.3575  0.0201
 4332TIP3    H134411   0.835   0.042   1.194 -0.7046 -0.5359 -0.3207
 4332TIP3    H234412   0.836  -0.032   1.062 -0.6489  0.4915 -0.9078
 4333TIP3   OH234413   1.184   4.924  14.190 -0.2315 -0.2046 -0.8630
 4333TIP3    H134414   1.204   5.018  14.194  0.1680 -0.2429 -1.6816
 4333TIP3    H234415   1.156   4.909  14.099 -0.7195 -0.7977 -0.6204
 4334TIP3   OH234416   2.319   3.215  15.794 -0.3645  0.4738 -0.1790
 4334TIP3    H134417   2.239   3.262  15.818 -0.7163  0.1177 -0.6128
 4334TIP3    H234418   2.290   3.151  15.728  0.2606  0.2702 -0.2664
 4335TIP3   OH234419   5.272   1.962   2.902  0.6207 -0.1425  0.8260
 4335TIP3    H134420   5.335   1.928   2.839  1.6445  0.2743  1.5841
 4335TIP3    H234421   5.279   2.057   2.895  0.9020 -0.0852  1.6883
 4336TIP3   OH234422   6.346   4.904  12.947 -0.4470  0.9228 -0.3144
 4336TIP3    H134423   6.432   4.863  12.951 -0.1072  1.3938 -2.0083
 4336TIP3    H234424   6.285   4.831  12.938 -0.3687  0.5163  1.9097
 4337TIP3   OH234425   5.052   0.858   4.299  0.0144 -0.0294  0.4137
 4337TIP3    H134426   5.062   0.861   4.394  2.7399 -1.0852  0.2475
 4337TIP3    H234427   5.057   0.950   4.271 -0.0195  0.2258  1.2236
 4338TIP3   OH234428   2.369   1.158   5.040  0.0739 -0.9730 -0.0841
 4338TIP3    H134429   2.461   1.137   5.060  0.6019  1.2452  0.0624
 4338TIP3    H234430   2.374   1.231   4.979 -1.6247 -1.2258 -0.5653
 4339TIP3   OH234431   2.072   2.707   5.741 -0.6612  0.3091  0.0427
 4339TIP3    H134432   1.986   2.682   5.707 -1.9069  2.2170  1.5441
 4339TIP3    H234433   2.106   2.628   5.782 -1.5888 -0.5399 -0.7639
 4340TIP3   OH234434   3.702   3.592  14.021 -0.5807 -0.4203  0.1822
 4340TIP3    H134435   3.765   3.597  14.093 -1.8334 -0.2120  1.2931
 4340TIP3    H234436   3.617   3.608  14.062 -1.1612  1.6789 -1.6562
 4341TIP3   OH234437   0.076   0.279  11.446 -0.1344 -0.0551  0.2247
 4341TIP3    H134438   0.077   0.224  11.368 -1.0844 -1.0641  0.9006
 4341TIP3    H234439   0.009   0.240  11.502 -0.5440  1.5550  0.8980
 4342TIP3   OH234440   2.461   1.606   3.046 -0.2571  0.1578  0.0246
 4342TIP3    H134441   2.395   1.554   3.001 -0.6431 -0.3914  1.1671
 4342TIP3    H234442   2.412   1.652   3.115  0.4762  0.0978  0.5993
 4343TIP3   OH234443   1.269   2.009  16.596  0.7503  0.3064 -0.0833
 4343TIP3    H134444   1.199   2.055  16.549 -0.2249 -1.0502  0.0024
 4343TIP3    H234445   1.323   1.972  16.527  1.0196  0.7901 -0.1412
 4344TIP3   OH234446   0.952   0.138   5.023  0.7660  0.1190  0.2459
 4344TIP3    H134447   0.983   0.104   4.939  0.0584  2.0981 -0.8866
 4344TIP3    H234448   0.900   0.067   5.061 -0.9322 -0.0017 -2.1482
 4345TIP3   OH234449   0.132   2.277  12.814  0.0286 -0.3937  0.2040
 4345TIP3    H134450   0.149   2.242  12.902 -1.0664 -1.2237  0.0977
 4345TIP3    H234451   0.186   2.356  12.810 -0.8911  0.3944  2.1119
 4346TIP3   OH234452   6.057   5.233   2.790 -0.7143  0.0385 -0.1104
 4346TIP3    H134453   6.150   5.232   2.813 -0.6796  2.4127  0.0721
 4346TIP3    H234454   6.053   5.186   2.707  0.8423  0.8522 -0.6843
 4347TIP3   OH234455   1.529   2.438  13.151  0.1646 -0.4221 -0.0492
 4347TIP3    H134456   1.598   2.501  13.168 -0.4709  0.6802 -1.3516
 4347TIP3    H234457   1.449   2.490  13.148 -0.2861 -1.1346 -1.8811
 4348TIP3   OH234458   2.597   5.644  17.338 -0.3936  0.2248  0.3408
 4348TIP3    H134459   2.580   5.581  17.267 -0.8266  0.5892  0.1169
 4348TIP3    H234460   2.682   5.618  17.373 -0.3244 -0.1614 -0.0989
 4349TIP3   OH234461   0.721   3.277   3.545 -0.2613 -0.7087 -0.5799
 4349TIP3    H134462   0.797   3.221   3.561  1.3761  1.6401  0.3402
 4349TIP3    H234463   0.650   3.215   3.525  1.2740 -3.1193  0.8569
 4350TIP3   OH234464   2.997   2.798  15.201 -0.5263  0.5894  0.9570
 4350TIP3    H134465   2.940   2.833  15.132  1.3930 -0.8489 -1.4971
 4350TIP3    H234466   3.057   2.870  15.221  1.1752  0.0094 -1.5618
 4351TIP3   OH234467   4.522   5.552   5.185  0.4228  0.2953 -0.0980
 4351TIP3    H134468   4.581   5.603   5.241  0.4421 -0.9729  1.0892
 4351TIP3    H234469   4.558   5.464   5.185 -0.9080 -0.2832 -0.1701
 4352TIP3   OH234470   5.065   5.566   2.837  0.5392  0.2799 -0.2456
 4352TIP3    H134471   5.158   5.589   2.838  0.1233  2.1517 -0.0816
 4352TIP3    H234472   5.045   5.540   2.927  0.9805 -0.4859 -0.3681
 4353TIP3   OH234473   5.368   1.011  14.473  0.4296  0.2962  0.5378
 4353TIP3    H134474   5.420   1.068  14.415 -0.9523  0.4625 -0.5703
 4353TIP3    H234475   5.405   1.028  14.560  1.1375  1.6637  0.0188
 4354TIP3   OH234476   1.060   4.362   3.349  0.0858  0.7905 -0.0389
 4354TIP3    H134477   1.114   4.334   3.423  0.3139  0.4945 -0.3130
 4354TIP3    H234478   1.078   4.455   3.339 -1.5502  1.3471  1.6171
 4355TIP3   OH234479   2.707   2.303   4.816  0.0876 -0.1603 -0.6172
 4355TIP3    H134480   2.789   2.255   4.828  0.4065  0.4335 -0.4094
 4355TIP3    H234481   2.663   2.257   4.745  1.1124  0.2021 -1.5083
 4356TIP3   OH234482   3.082   1.738   4.295  0.2827  0.2641  0.2287
 4356TIP3    H134483   3.038   1.816   4.260 -1.0831  0.2386  1.7528
 4356TIP3    H234484   3.103   1.761   4.386 -1.5315 -1.6084  1.2088
 4357TIP3   OH234485   0.339   2.924  16.990  0.7757  0.0463 -0.1409
 4357TIP3    H134486   0.414   2.963  17.034  0.0898 -0.2988  1.4264
 4357TIP3    H234487   0.266   2.937  17.052  0.4748 -3.5492  0.4586
 4358TIP3   OH234488   0.955   1.588   3.517  0.0893  0.5392  0.5842
 4358TIP3    H134489   0.923   1.509   3.561 -0.3854  1.5832  2.1850
 4358TIP3    H234490   1.050   1.580   3.521  0.0602  0.5355  1.7048
 4359TIP3   OH234491   0.311   3.241  17.170 -0.4353  0.6733  0.6396
 4359TIP3    H134492   0.251   3.248  17.245 -0.9835  1.4722  0.1430
 4359TIP3    H234493   0.253   3.238  17.094  0.1284  0.1783  0.2277
 4360TIP3   OH234494   4.204   5.304  12.893  0.3463 -0.6716 -0.9894
 4360TIP3    H134495   4.151   5.320  12.815 -0.0131  1.7922 -0.3017
 4360TIP3    H234496   4.141   5.297  12.964  0.7603 -1.5654 -0.6908
 4361TIP3   OH234497   5.357   4.936  12.728 -0.2195  0.5424  0.0696
 4361TIP3    H134498   5.336   4.943  12.635 -1.2282 -0.5776  0.1833
 4361TIP3    H234499   5.371   5.027  12.756 -1.5626  1.0623 -0.8178
 4362TIP3   OH234500   4.436   4.312   2.209  0.0481 -0.5062  0.1607
 4362TIP3    H134501   4.416   4.218   2.206  0.8029 -0.6435 -1.3885
 4362TIP3    H234502   4.478   4.330   2.125 -0.3448  1.2862  0.3183
 4363TIP3   OH234503   5.280   4.658  13.119 -0.3700 -0.1842  0.1508
 4363TIP3    H134504   5.210   4.689  13.176  1.0564  1.0766  1.3157
 4363TIP3    H234505   5.333   4.601  13.176  0.4145  0.1379 -0.2470
 4364TIP3   OH234506   1.849   0.973   1.857  0.1165  0.2375  0.4264
 4364TIP3    H134507   1.933   0.932   1.838  0.7403  1.2932  0.7968
 4364TIP3    H234508   1.795   0.903   1.895  0.5137 -0.6663 -0.6271
 4365TIP3   OH234509   4.612   0.865   4.333 -0.2270 -0.0343  0.1651
 4365TIP3    H134510   4.669   0.831   4.402  0.5500 -0.4501 -0.6644
 4365TIP3    H234511   4.539   0.905   4.380 -1.0950 -2.6622  1.2381
 4366TIP3   OH234512   5.133   6.237   3.114 -0.0210 -0.2637  0.2015
 4366TIP3    H134513   5.210   6.209   3.065  1.4766  0.0375  2.2744
 4366TIP3    H234514   5.059   6.207   3.060  1.4881 -0.2506 -2.0269
 4367TIP3   OH234515   2.436   1.705   3.808 -0.7530  0.4134 -0.7289
 4367TIP3    H134516   2.446   1.752   3.725  3.0114  1.8497  0.3433
 4367TIP3    H234517   2.476   1.763   3.873  0.7160 -2.6694  1.3016
 4368TIP3   OH234518   5.484   1.376  16.325 -0.2250 -0.1743 -0.0552
 4368TIP3    H134519   5.517   1.406  16.410  0.6182 -0.9995 -0.0774
 4368TIP3    H234520   5.389   1.379  16.334 -0.1737  1.6944  0.2092
 4369TIP3   OH234521   5.092   6.126  12.940  0.4737  0.4286  0.6383
 4369TIP3    H134522   5.027   6.069  12.899  0.7779  0.8795 -0.5348
 4369TIP3    H234523   5.059   6.141  13.029  0.0012 -0.9269  0.7049
 4370TIP3   OH234524   0.826   2.435  16.500 -0.1427  0.5367  0.0772
 4370TIP3    H134525   0.857   2.496  16.567 -1.1087  0.1784  0.8713
 4370TIP3    H234526   0.731   2.448  16.498 -0.3248 -0.6862  0.0178
 4371TIP3   OH234527   0.368   6.236  10.497  0.1231 -0.4977  0.2595
 4371TIP3    H134528   0.280   6.205  10.479 -0.3110  0.7767  0.0479
 4371TIP3    H234529   0.374   6.238  10.592 -1.2566  2.3907  0.3845
 4372TIP3   OH234530   4.278   3.352  14.570  0.4203 -0.3910  0.1803
 4372TIP3    H134531   4.201   3.344  14.627  0.0272  1.1570 -0.0826
 4372TIP3    H234532   4.253   3.307  14.489 -0.4197  0.4989 -0.0795
 4373TIP3   OH234533   1.660   1.899  13.500 -0.2663  0.1500  0.1411
 4373TIP3    H134534   1.665   1.900  13.405  1.4757  0.9690  0.2013
 4373TIP3    H234535   1.566   1.888  13.519 -0.3600 -3.0721 -1.6153
 4374TIP3   OH234536   5.248   4.665   0.903  0.0649  0.6141 -0.4825
 4374TIP3    H134537   5.317   4.629   0.848  0.9256  1.6779 -0.1341
 4374TIP3    H234538   5.167   4.644   0.856  0.4781 -1.7687 -0.2637
 4375TIP3   OH234539   5.974   2.185  17.200  0.1664 -0.2941 -0.2641
 4375TIP3    H134540   6.050   2.243  17.194 -0.0488  0.4278  2.4714
 4375TIP3    H234541   6.004   2.101  17.166  2.4621 -0.2058  1.3307
 4376TIP3   OH234542   0.968   5.837   3.989 -0.0881 -0.8250 -0.4573
 4376TIP3    H134543   1.038   5.790   4.033  0.2654  0.0808 -0.0330
 4376TIP3    H234544   0.888   5.791   4.014  0.1867 -0.7920  0.4952
 4377TIP3   OH234545   5.922   3.400  10.534  0.1006 -0.1516 -0.3481
 4377TIP3    H134546   5.954   3.311  10.550  0.1478 -0.0566  0.0994
 4377TIP3    H234547   5.971   3.429  10.457  1.6775  0.2699  0.7538
 4378TIP3   OH234548   2.748   0.928   2.578 -0.6133 -0.3275 -0.4471
 4378TIP3    H134549   2.716   1.014   2.607  0.1472  0.0632 -0.7259
 4378TIP3    H234550   2.669   0.878   2.559 -1.1808 -0.6248  2.2718
 4379TIP3   OH234551   5.904   4.340   6.350  0.2371  0.0404 -0.1443
 4379TIP3    H134552   5.874   4.258   6.310 -1.6514  0.8748 -0.5239
 4379TIP3    H234553   5.854   4.408   6.306  1.7139  1.4175  0.2293
 4380TIP3   OH234554   1.783   1.764   3.510  0.5036 -0.0386 -0.0255
 4380TIP3    H134555   1.785   1.669   3.524  0.7499  0.1922  1.6475
 4380TIP3    H234556   1.873   1.787   3.488  0.8037  0.0130  1.1908
 4381TIP3   OH234557   2.694   1.330  12.385  0.0185 -0.4328  0.3854
 4381TIP3    H134558   2.643   1.249  12.386  1.1732 -1.1801  0.5177
 4381TIP3    H234559   2.693   1.357  12.293 -0.0475 -0.8033  0.2759
 4382TIP3   OH234560   3.024   2.635   1.975 -0.0008  0.2439 -0.3000
 4382TIP3    H134561   3.112   2.614   2.007  0.8413  0.0224 -2.5772
 4382TIP3    H234562   3.022   2.730   1.973  0.6365  0.2553 -1.2886
 4383TIP3   OH234563   0.247   6.594  12.370 -0.5761 -0.0876 -0.0049
 4383TIP3    H134564   0.277   6.614  12.281 -0.2645  0.1183  0.1433
 4383TIP3    H234565   0.210   6.506  12.363  3.1041 -1.8816  0.4513
 4384TIP3   OH234566   4.866   4.185   3.828  0.3720 -0.0662 -0.0911
 4384TIP3    H134567   4.954   4.154   3.850 -0.0603 -1.0852  0.2531
 4384TIP3    H234568   4.877   4.279   3.811  1.4601 -0.1134  0.2843
 4385TIP3   OH234569   4.154   4.903  15.334  0.3189  0.0024 -0.3777
 4385TIP3    H134570   4.074   4.934  15.290  1.0885  0.7449 -1.3105
 4385TIP3    H234571   4.177   4.975  15.393 -0.7633 -1.0310  1.3810
 4386TIP3   OH234572   2.809   0.396  14.562 -0.8471 -0.2477 -0.0893
 4386TIP3    H134573   2.854   0.480  14.562  0.2101 -0.6163 -4.1920
 4386TIP3    H234574   2.869   0.336  14.606 -0.0595  0.4548 -0.1975
 4387TIP3   OH234575   4.718   2.962  11.357 -0.3338  0.2429  0.8530
 4387TIP3    H134576   4.792   2.970  11.298  0.1780 -1.4699  1.2086
 4387TIP3    H234577   4.754   2.922  11.436 -1.3947  0.5915  1.5424
 4388TIP3   OH234578   2.542   4.277  12.144 -0.4823  0.3908  0.3828
 4388TIP3    H134579   2.531   4.262  12.238 -0.3438  1.5631  0.6025
 4388TIP3    H234580   2.461   4.321  12.117 -0.1636  0.8467  0.1491
 4389TIP3   OH234581   0.796   0.566   4.962 -0.2806  0.2053  0.1403
 4389TIP3    H134582   0.748   0.600   4.887 -1.3138  2.5590  1.7586
 4389TIP3    H234583   0.884   0.600   4.952  0.7913 -2.7807 -1.9765
 4390TIP3   OH234584   4.153   6.713  15.101  1.1159  0.5364 -0.0282
 4390TIP3    H134585   4.081   6.657  15.072  1.5252  0.1979 -0.4016
 4390TIP3    H234586   4.183   6.756  15.021  0.0826  2.1620  0.4058
 4391TIP3   OH234587   5.242   5.438   6.251 -0.5321 -0.0671  0.1154
 4391TIP3    H134588   5.249   5.380   6.326  1.9947  0.2503  0.2042
 4391TIP3    H234589   5.209   5.520   6.287 -1.1109 -0.4832  0.5378
 4392TIP3   OH234590   6.565   6.299   5.235 -0.0883 -0.0755  0.0765
 4392TIP3    H134591   6.481   6.293   5.281  0.1445  0.0553  0.5156
 4392TIP3    H234592   6.578   6.393   5.221 -2.9509 -0.0856 -5.3792
 4393TIP3   OH234593   6.021   2.961   4.193 -0.1181 -0.3285 -0.0789
 4393TIP3    H134594   5.929   2.988   4.188 -0.0385  0.4486  1.7549
 4393TIP3    H234595   6.043   2.970   4.286  1.8579 -0.3539 -0.5085
 4394TIP3   OH234596   2.062   3.938   4.117  0.3024 -0.1470  0.7560
 4394TIP3    H134597   2.044   4.027   4.085  0.0779  0.1202  1.5736
 4394TIP3    H234598   2.142   3.947   4.169  1.1414 -0.7413 -0.4071
 4395TIP3   OH234599   6.522   3.197   6.043 -0.7892 -0.0169 -0.1515
 4395TIP3    H134600   6.511   3.184   6.137  0.0243 -0.0909 -0.0563
 4395TIP3    H234601   6.574   3.277   6.036 -2.4189  1.0692 -0.6084
 4396TIP3   OH234602   2.573   2.440  16.517 -0.0489 -0.0875  0.3153
 4396TIP3    H134603   2.510   2.405  16.454 -1.2791 -1.0639  1.9760
 4396TIP3    H234604   2.642   2.479  16.464 -1.6311  0.2635 -1.6066
 4397TIP3   OH234605   1.528   5.475  15.532 -0.2959 -0.2347  0.4229
 4397TIP3    H134606   1.487   5.435  15.456 -0.5010 -1.3366  1.0994
 4397TIP3    H234607   1.620   5.451  15.525 -0.2806 -0.1746  0.4194
 4398TIP3   OH234608   6.033   2.295  11.414 -0.0510  0.7365  0.5931
 4398TIP3    H134609   6.090   2.302  11.490  2.2713  1.0054 -1.0547
 4398TIP3    H234610   5.956   2.246  11.445  1.3997 -0.2991  2.7696
 4399TIP3   OH234611   0.098   0.372  14.874  0.1856 -0.1667  0.5122
 4399TIP3    H134612   0.123   0.418  14.794  0.8345  0.2531  0.9446
 4399TIP3    H234613   0.176   0.323  14.899  0.2187  0.2450  1.2559
 4400TIP3   OH234614   3.544   5.261  16.371 -0.3231  0.5068 -0.4010
 4400TIP3    H134615   3.526   5.355  16.381  1.0609  0.7291  0.3447
 4400TIP3    H234616   3.592   5.254  16.288 -2.4013  0.1141 -1.6333
 4401TIP3   OH234617   5.219   0.581   6.550  0.0443  0.0351  0.1640
 4401TIP3    H134618   5.173   0.644   6.494  0.5189  2.5124  2.3763
 4401TIP3    H234619   5.296   0.556   6.500 -1.0042 -0.1444 -1.4493
 4402TIP3   OH234620   0.330   2.145  15.065  0.5111 -0.5466 -0.3819
 4402TIP3    H134621   0.291   2.114  15.147  3.0585 -1.0292  0.7191
 4402TIP3    H234622   0.257   2.185  15.018 -1.7926 -3.2679  0.5743
 4403TIP3   OH234623   1.220   6.348   0.674 -0.4460  0.6475 -0.7592
 4403TIP3    H134624   1.230   6.435   0.711 -1.6753  1.2949 -1.8749
 4403TIP3    H234625   1.185   6.363   0.586 -0.2913 -0.9578 -1.1304
 4404TIP3   OH234626   3.917   0.642  14.899  0.1763  0.4081 -0.0156
 4404TIP3    H134627   3.965   0.676  14.824 -0.6208  0.6008 -0.4524
 4404TIP3    H234628   3.851   0.583  14.862  1.6122 -1.7874  0.7408
 4405TIP3   OH234629   2.622   1.350  12.644  0.4885  0.5438 -0.4330
 4405TIP3    H134630   2.634   1.257  12.664  0.9988  0.4561 -1.0797
 4405TIP3    H234631   2.671   1.362  12.562 -1.0551  0.9840 -1.3205
 4406TIP3   OH234632   0.278   4.599  14.189 -0.4543  0.5280 -0.5460
 4406TIP3    H134633   0.297   4.688  14.217  1.1150  0.6655 -1.9195
 4406TIP3    H234634   0.196   4.577  14.234 -1.0211  2.7341 -0.3721
 4407TIP3   OH234635   0.763   3.055   1.445 -0.0931  0.3438  0.1769
 4407TIP3    H134636   0.706   3.131   1.458 -0.0235  0.5107 -0.4777
 4407TIP3    H234637   0.722   3.006   1.374 -0.1880 -0.2852  0.6558
 4408TIP3   OH234638   0.235   4.688   1.252  0.5484 -0.5230 -0.4553
 4408TIP3    H134639   0.269   4.599   1.260 -0.5505 -0.9423 -0.3420
 4408TIP3    H234640   0.194   4.690   1.165 -1.1460 -0.7520  0.2992
 4409TIP3   OH234641   0.727   5.858  13.880 -0.4112  0.2408  0.5159
 4409TIP3    H134642   0.657   5.795  13.863  0.0708 -0.5731  1.4859
 4409TIP3    H234643   0.793   5.840  13.813  0.7967 -1.9255  2.1852
 4410TIP3   OH234644   6.226   2.356   4.586 -0.7120 -0.2287  0.3821
 4410TIP3    H134645   6.317   2.383   4.575 -1.3659  1.4922 -1.3164
 4410TIP3    H234646   6.230   2.261   4.599  1.2763 -0.2221  0.0856
 4411TIP3   OH234647   2.808   5.469   3.467  0.1828  0.3132  0.2927
 4411TIP3    H134648   2.894   5.444   3.435  0.0184  1.0011 -0.7325
 4411TIP3    H234649   2.752   5.394   3.446  0.7480 -0.6435  2.0492
 4412TIP3   OH234650   0.454   4.167   2.882  0.2135 -0.4130  0.1019
 4412TIP3    H134651   0.507   4.135   2.955  1.2393 -0.2762 -0.5638
 4412TIP3    H234652   0.367   4.130   2.897 -0.1191  1.0683  2.3792
 4413TIP3   OH234653   5.885   4.640  14.955 -0.4453  0.1407 -0.3588
 4413TIP3    H134654   5.942   4.562  14.948 -1.1825 -0.4142 -0.3088
 4413TIP3    H234655   5.808   4.618  14.902 -0.3292  1.1549 -0.9753
 4414TIP3   OH234656   1.227   1.411   5.602 -0.1588  0.1811 -0.0611
 4414TIP3    H134657   1.317   1.390   5.629  0.6424 -0.3551 -2.7898
 4414TIP3    H234658   1.230   1.505   5.582 -0.4244  0.3241  0.5557
 4415TIP3   OH234659   5.376   4.609   5.160  0.2457 -0.1036  0.1134
 4415TIP3    H134660   5.378   4.674   5.230 -1.1104 -0.6576  0.6801
 4415TIP3    H234661   5.286   4.612   5.127  0.7179 -0.2254 -1.2641
 4416TIP3   OH234662   1.245   3.596  11.980 -0.5629 -0.2439 -0.1362
 4416TIP3    H134663   1.249   3.524  11.917  1.1669 -0.9627  0.7337
 4416TIP3    H234664   1.275   3.673  11.930 -0.1738 -0.6048 -0.4671
 4417TIP3   OH234665   2.299   1.626  13.816 -0.3789 -0.5576  0.4876
 4417TIP3    H134666   2.353   1.703  13.831 -0.7750  0.0917 -1.1885
 4417TIP3    H234667   2.224   1.637  13.874 -0.8828  0.8121 -0.3783
 4418TIP3   OH234668   3.503   4.739  13.452  0.2458 -0.3756 -0.6280
 4418TIP3    H134669   3.437   4.707  13.390  1.7471 -0.5486 -2.2083
 4418TIP3    H234670   3.542   4.814  13.409  0.5674  0.1981  0.6305
 4419TIP3   OH234671   6.519   5.875   3.168  0.5510 -0.2666  0.0323
 4419TIP3    H134672   6.493   5.783   3.166 -0.4540  0.0070 -2.0253
 4419TIP3    H234673   6.519   5.898   3.261  0.2728 -2.1766  0.5531
 4420TIP3   OH234674   3.620   6.566  12.855 -0.4231  0.5849  0.0846
 4420TIP3    H134675   3.683   6.541  12.923  0.4190  0.1388 -0.8285
 4420TIP3    H234676   3.674   6.583  12.777 -1.4348  0.2075 -0.7272
 4421TIP3   OH234677   1.474   2.655   3.039 -0.0572  0.0172 -0.2579
 4421TIP3    H134678   1.414   2.635   2.968  1.1835 -0.7502 -1.1270
 4421TIP3    H234679   1.483   2.573   3.087  0.3945  0.0769 -0.2290
 4422TIP3   OH234680   0.008   1.181  14.880  0.4744 -0.1224  0.0500
 4422TIP3    H134681   0.080   1.240  14.858  1.0110 -0.4930  0.8066
 4422TIP3    H234682   0.031   1.098  14.840 -0.0070  0.0107 -0.5245
 4423TIP3   OH234683   1.643   0.826  15.228  0.1876 -0.5156  0.0697
 4423TIP3    H134684   1.622   0.800  15.138  3.1257  0.5773 -1.0500
 4423TIP3    H234685   1.722   0.778  15.249 -0.3100 -0.5572  2.0384
 4424TIP3   OH234686   4.439   5.590   0.511  0.3612 -0.0779 -0.1655
 4424TIP3    H134687   4.454   5.511   0.562  1.6004  0.4413  0.2910
 4424TIP3    H234688   4.380   5.561   0.441  2.8723 -2.0939 -1.6363
 4425TIP3   OH234689   6.189   6.630  12.717  0.7220 -0.3839  0.3284
 4425TIP3    H134690   6.193   6.538  12.692 -0.6696 -0.3568 -0.1209
 4425TIP3    H234691   6.176   6.628  12.812 -1.1554 -0.7567  0.1154
 4426TIP3   OH234692   3.791   0.631  15.970 -0.4359 -0.3925 -0.1570
 4426TIP3    H134693   3.700   0.628  15.939 -0.9208 -1.6068  1.2150
 4426TIP3    H234694   3.788   0.688  16.047 -0.0149 -0.3648 -0.1602
 4427TIP3   OH234695   5.676   2.130  14.988 -0.0930 -0.4001  0.1026
 4427TIP3    H134696   5.733   2.133  15.065 -0.8268 -0.0384  0.6485
 4427TIP3    H234697   5.588   2.141  15.024 -0.3534  1.0988 -0.9156
 4428TIP3   OH234698   4.706   4.316   5.808 -0.0879  0.4196 -0.5123
 4428TIP3    H134699   4.776   4.374   5.777  0.9843 -1.1476 -1.1808
 4428TIP3    H234700   4.728   4.299   5.900  0.3360  0.0636 -0.6751
 4429TIP3   OH234701   6.006   0.047   1.762 -0.5104  0.1900 -0.2189
 4429TIP3    H134702   6.071   0.048   1.692 -0.9747 -3.4740 -0.9135
 4429TIP3    H234703   5.924   0.072   1.719 -0.5154 -0.6018 -0.7069
 4430TIP3   OH234704   2.571   6.536  16.810 -0.1577  0.1526  0.0526
 4430TIP3    H134705   2.551   6.568  16.898 -1.1258 -1.0832  0.3084
 4430TIP3    H234706   2.485   6.526  16.768  0.1117 -1.6599 -0.1526
 4431TIP3   OH234707   4.999   0.083  14.284 -0.2529  0.5003 -0.0271
 4431TIP3    H134708   5.076   0.070  14.230 -0.1660  0.2273  0.1583
 4431TIP3    H234709   4.927   0.092  14.222 -0.3130 -0.8711 -0.1702
 4432TIP3   OH234710   0.656   4.873   3.281  0.3367 -0.6780 -0.4341
 4432TIP3    H134711   0.655   4.944   3.345  1.4011 -1.2957  0.3101
 4432TIP3    H234712   0.607   4.907   3.206  0.1581  0.5367  0.2114
 4433TIP3   OH234713   1.842   6.074  11.459  1.2132 -0.0048 -0.7490
 4433TIP3    H134714   1.816   6.080  11.367  0.9884 -0.7971 -0.7448
 4433TIP3    H234715   1.809   6.155  11.498  1.8676  0.6325 -1.4908
 4434TIP3   OH234716   3.429   6.337  12.839  0.6444 -0.0410 -0.3649
 4434TIP3    H134717   3.499   6.393  12.806 -1.4816  1.8487 -2.0134
 4434TIP3    H234718   3.382   6.392  12.902 -0.1446 -0.7707 -0.2858
 4435TIP3   OH234719   2.164   4.909  13.348  0.1743  0.3568 -0.1290
 4435TIP3    H134720   2.246   4.861  13.333  0.6669  1.2226 -0.2587
 4435TIP3    H234721   2.190   5.001  13.348 -1.1325  0.7852 -2.4463
 4436TIP3   OH234722   6.163   3.175  14.780 -0.1560 -0.5977  0.0269
 4436TIP3    H134723   6.229   3.133  14.835  0.9029  1.4048  0.3780
 4436TIP3    H234724   6.197   3.166  14.691 -1.0258 -2.3422 -0.1640
 4437TIP3   OH234725   2.772   1.482  15.496 -0.1640 -0.1067 -0.1223
 4437TIP3    H134726   2.736   1.457  15.411  0.0437  0.4419 -0.3748
 4437TIP3    H234727   2.736   1.417  15.557  1.8850 -2.2639 -1.0436
 4438TIP3   OH234728   5.268   0.762   0.979  0.2911 -0.0361  0.3480
 4438TIP3    H134729   5.240   0.672   0.966 -1.5199  0.5587 -0.1096
 4438TIP3    H234730   5.260   0.777   1.073  1.6830 -0.6648  0.5878
 4439TIP3   OH234731   5.024   4.800  16.220 -0.1539 -0.5750  0.8535
 4439TIP3    H134732   5.003   4.806  16.126 -1.5533 -0.2664  1.1707
 4439TIP3    H234733   4.987   4.717  16.248 -0.0673 -0.4913  1.2205
 4440TIP3   OH234734   6.662   4.792  10.949  0.3293  0.6679  0.6131
 4440TIP3    H134735   6.671   4.701  10.920  0.9269  0.8739  0.1232
 4440TIP3    H234736   6.734   4.805  11.010 -0.8406  0.2806  2.1506
 4441TIP3   OH234737   5.221   2.492  14.951  0.2838  0.2883 -0.4380
 4441TIP3    H134738   5.306   2.473  14.910 -0.5249  0.1939 -2.1820
 4441TIP3    H234739   5.234   2.472  15.043  2.0200 -0.1949 -0.7403
 4442TIP3   OH234740   0.855   4.685   1.901 -0.4476 -0.2736  0.0107
 4442TIP3    H134741   0.890   4.701   1.989  0.0896  1.9758 -0.5495
 4442TIP3    H234742   0.851   4.590   1.893  1.9751 -0.5598  1.4933
 4443TIP3   OH234743   3.584   6.591   4.068 -0.0235 -0.3315  0.1615
 4443TIP3    H134744   3.506   6.612   4.120 -1.2025 -0.9992 -1.2635
 4443TIP3    H234745   3.657   6.605   4.128 -1.3538 -2.0735  2.3232
 4444TIP3   OH234746   4.874   5.311   4.109 -0.1408  0.2964  0.0128
 4444TIP3    H134747   4.829   5.271   4.184 -0.2672  0.2761 -0.0739
 4444TIP3    H234748   4.966   5.288   4.121 -0.4455 -1.6116 -1.0330
 4445TIP3   OH234749   3.199   6.312  15.498 -0.1483 -0.2055  0.3781
 4445TIP3    H134750   3.294   6.308  15.482 -0.2164 -0.3369 -0.0036
 4445TIP3    H234751   3.163   6.241  15.444 -0.4804 -0.0481  0.3934
 4446TIP3   OH234752   6.451   3.074   0.314  0.4245  0.2819 -0.0789
 4446TIP3    H134753   6.376   3.019   0.335 -0.3660 -0.0279 -3.2255
 4446TIP3    H234754   6.482   3.042   0.230  2.8160  1.7728  0.1117
 4447TIP3   OH234755   3.548   5.623   6.096 -0.0382 -0.0211 -1.0749
 4447TIP3    H134756   3.530   5.543   6.147  1.7585  0.3739  0.2892
 4447TIP3    H234757   3.643   5.635   6.103 -0.4082  3.1601  0.2502
 4448TIP3   OH234758   5.081   5.107   6.853 -0.2588 -0.0396  0.3910
 4448TIP3    H134759   5.136   5.039   6.813 -0.9474 -0.7298  0.5810
 4448TIP3    H234760   5.061   5.167   6.782 -0.0053 -0.2829  0.1102
 4449TIP3   OH234761   1.659   2.781   5.872  0.3174  0.7317  0.7527
 4449TIP3    H134762   1.671   2.686   5.867 -1.1871  0.5611 -0.1348
 4449TIP3    H234763   1.578   2.792   5.923  0.2185  1.5164  0.4395
 4450TIP3   OH234764   5.053   0.422  15.552 -0.0570 -0.1402 -0.1189
 4450TIP3    H134765   4.975   0.418  15.497  0.6822 -0.8862 -1.1480
 4450TIP3    H234766   5.113   0.480  15.506  0.3817 -0.3662  0.1570
 4451TIP3   OH234767   3.619   1.640   3.966 -0.2459  0.3924 -0.1260
 4451TIP3    H134768   3.552   1.694   3.924 -0.8235  0.2020  0.5312
 4451TIP3    H234769   3.676   1.702   4.011  0.8020  0.6509 -1.7621
 4452TIP3   OH234770   5.853   2.713  14.622  0.2168 -0.2181  0.1779
 4452TIP3    H134771   5.859   2.634  14.677 -1.5913 -0.6133 -0.1146
 4452TIP3    H234772   5.838   2.680  14.534  0.4802  0.4458 -0.1204
 4453TIP3   OH234773   6.343   6.335   4.887  0.0383 -0.6058  0.4637
 4453TIP3    H134774   6.403   6.261   4.899 -0.8476 -1.4419 -0.0573
 4453TIP3    H234775   6.347   6.354   4.793 -0.3746 -0.5615  0.4535
 4454TIP3   OH234776   3.105   5.165  11.415 -0.5065  0.1716  0.4332
 4454TIP3    H134777   3.196   5.137  11.405 -0.8180 -0.9586  0.6520
 4454TIP3    H234778   3.088   5.220  11.338  0.5352  0.9266  0.7120
 4455TIP3   OH234779   0.277   1.029  12.014 -0.0075 -0.3763 -0.3813
 4455TIP3    H134780   0.339   1.072  11.955  0.9218 -0.4422  0.5234
 4455TIP3    H234781   0.269   0.940  11.980  0.1778 -0.2902 -0.6539
 4456TIP3   OH234782   1.567   6.479  12.207  0.7904  0.0552  0.1326
 4456TIP3    H134783   1.635   6.488  12.273  0.2095 -0.5358  0.8395
 4456TIP3    H234784   1.497   6.537  12.236  1.4607  1.6106 -1.2564
 4457TIP3   OH234785   0.597   2.932  11.788 -0.0204 -0.0833  0.8814
 4457TIP3    H134786   0.593   2.841  11.816  1.1027 -0.1280  0.9534
 4457TIP3    H234787   0.555   2.933  11.702  0.4397 -0.7800  0.6387
 4458TIP3   OH234788   5.139   1.982  17.349  0.1663 -0.3318 -0.1196
 4458TIP3    H134789   5.231   1.993  17.329  0.4063  0.9496  1.4841
 4458TIP3    H234790   5.129   2.019  17.437 -1.7126 -1.1804  0.0738
 4459TIP3   OH234791   3.420   3.669  17.086  0.2516  0.0909 -0.0313
 4459TIP3    H134792   3.470   3.604  17.136  0.4575  1.1585  1.2138
 4459TIP3    H234793   3.475   3.690  17.011  0.2978 -0.9510 -0.3109
 4460TIP3   OH234794   5.020   3.174   3.863  0.0025 -0.0634 -0.5201
 4460TIP3    H134795   4.981   3.102   3.910 -0.1040  0.2824 -0.0731
 4460TIP3    H234796   5.101   3.194   3.911  0.1789 -0.0689 -0.8069
 4461TIP3   OH234797   3.889   0.316  14.450 -0.0557 -0.4158 -0.4465
 4461TIP3    H134798   3.953   0.271  14.395  0.6117  2.7307 -2.5171
 4461TIP3    H234799   3.942   0.373  14.506 -0.8942 -1.3426  1.3688
 4462TIP3   OH234800   5.757   2.128  16.527 -0.0812  0.1031 -0.1615
 4462TIP3    H134801   5.715   2.084  16.601 -1.2013  0.9888 -0.2391
 4462TIP3    H234802   5.752   2.221  16.549  1.3926  0.2755 -0.4369
 4463TIP3   OH234803   1.961   1.306   2.966 -1.2289  0.3809 -0.2991
 4463TIP3    H134804   1.922   1.380   3.012 -3.9228 -0.0466 -1.6902
 4463TIP3    H234805   1.951   1.328   2.873  1.3409 -0.1096 -0.7731
 4464TIP3   OH234806   3.957   5.001   6.176  0.1000 -0.0713 -0.3690
 4464TIP3    H134807   4.047   5.005   6.207  0.4528 -1.1648 -1.2080
 4464TIP3    H234808   3.922   5.089   6.192  0.7567 -0.1093  1.5652
 4465TIP3   OH234809   0.606   0.011  14.038 -0.2960 -0.0187  0.3038
 4465TIP3    H134810   0.569   0.028  14.125 -1.2184 -0.5984  0.0336
 4465TIP3    H234811   0.608  -0.084  14.031 -0.8044  0.0268 -0.5531
 4466TIP3   OH234812   1.790   5.869  12.146  0.0031 -0.3651 -0.7152
 4466TIP3    H134813   1.782   5.965  12.140 -1.7136 -0.4383 -0.0163
 4466TIP3    H234814   1.824   5.842  12.061 -2.3148  0.6046 -2.0156
 4467TIP3   OH234815   5.542   0.128  16.738 -0.2857 -0.3071 -0.1114
 4467TIP3    H134816   5.451   0.103  16.722 -1.4843  3.4647 -0.1490
 4467TIP3    H234817   5.563   0.087  16.823 -2.6344  0.1191  0.7693
 4468TIP3   OH234818   3.021   4.880   5.673  0.3182  0.0330 -0.9305
 4468TIP3    H134819   3.072   4.936   5.730 -2.4922  2.1062 -0.2148
 4468TIP3    H234820   2.981   4.939   5.610 -1.8130 -1.2804 -0.9214
 4469TIP3   OH234821   2.291   3.673  13.336  0.4252 -0.2638  0.4415
 4469TIP3    H134822   2.386   3.683  13.334  0.3935  0.8436  2.3865
 4469TIP3    H234823   2.273   3.623  13.416 -0.6574 -0.0728  0.3418
 4470TIP3   OH234824   6.133   2.088   2.326 -0.8867  0.4925 -0.0265
 4470TIP3    H134825   6.136   1.997   2.355 -0.2111 -0.3244 -2.4501
 4470TIP3    H234826   6.133   2.083   2.230  0.5073  3.0702 -0.2484
 4471TIP3   OH234827   2.293   0.928   6.316 -0.4384 -0.5541 -0.0317
 4471TIP3    H134828   2.221   0.977   6.276 -0.5318 -0.5412  0.1517
 4471TIP3    H234829   2.271   0.925   6.409  1.4601  2.4312  0.6496
 4472TIP3   OH234830   1.121   5.283   1.084 -0.0800  0.2889  0.0742
 4472TIP3    H134831   1.140   5.364   1.037 -0.9929  1.1067  1.0333
 4472TIP3    H234832   1.192   5.223   1.061  1.4489  1.8593  0.4834
 4473TIP3   OH234833   2.776   5.733   5.526  0.2791  0.1121  0.5964
 4473TIP3    H134834   2.857   5.764   5.567 -0.2585  1.8191  0.4267
 4473TIP3    H234835   2.711   5.735   5.597 -0.5650  2.7236 -0.1432
 4474TIP3   OH234836   2.479   2.750  14.115 -0.3698  0.3281  0.4881
 4474TIP3    H134837   2.410   2.687  14.097 -0.1170  0.2754 -0.3428
 4474TIP3    H234838   2.433   2.830  14.142 -0.8393  0.7052 -1.2840
 4475TIP3   OH234839   3.079   4.721   6.033  0.1728  0.0902 -0.1712
 4475TIP3    H134840   3.036   4.698   5.951  1.6553 -0.9858 -0.6877
 4475TIP3    H234841   3.008   4.740   6.094 -0.9595  0.2607 -1.5158
 4476TIP3   OH234842   5.340   6.719   4.983 -0.1354 -0.0149  0.0389
 4476TIP3    H134843   5.403   6.778   4.943  2.0766 -1.1744  1.5783
 4476TIP3    H234844   5.301   6.770   5.054 -1.5199  0.9206 -1.3259
 4477TIP3   OH234845   5.601   0.589   5.422  0.0044 -0.2758 -0.0969
 4477TIP3    H134846   5.516   0.563   5.386  0.2339 -0.9825 -0.1535
 4477TIP3    H234847   5.664   0.537   5.372  0.4088 -0.3424  0.4826
 4478TIP3   OH234848   2.826   2.063   2.385  0.1731 -0.2213 -0.2081
 4478TIP3    H134849   2.751   2.050   2.444  1.4226  0.8433  1.7060
 4478TIP3    H234850   2.801   2.017   2.305 -1.9092 -1.1244  0.8767
 4479TIP3   OH234851   4.913   1.828  14.047  0.5546 -0.3965  0.2134
 4479TIP3    H134852   4.886   1.905  13.998 -0.4403 -1.0576 -0.3046
 4479TIP3    H234853   4.833   1.797  14.089  0.0498 -3.2328 -2.4747
 4480TIP3   OH234854   2.490   3.379   0.081  0.4960  0.2952 -0.0567
 4480TIP3    H134855   2.514   3.431   0.158  0.8970  0.2229 -0.1295
 4480TIP3    H234856   2.397   3.360   0.093  0.6624 -0.1034  0.6408
 4481TIP3   OH234857   4.479   6.731  14.128  0.0934  1.0316 -0.4548
 4481TIP3    H134858   4.498   6.781  14.049  0.0931  0.9786 -0.4884
 4481TIP3    H234859   4.444   6.795  14.190  0.0931  1.0730 -0.4978
 4482TIP3   OH234860   1.162   2.195   4.521  0.2764 -0.1325 -0.7401
 4482TIP3    H134861   1.107   2.273   4.519  1.2508  0.6951  1.3374
 4482TIP3    H234862   1.101   2.122   4.530 -0.6275  0.3635 -2.3807
 4483TIP3   OH234863   3.077   3.987  14.984  0.2151 -0.5169  0.4685
 4483TIP3    H134864   3.038   4.070  15.010  1.6565  0.2403  0.2902
 4483TIP3    H234865   3.002   3.927  14.975 -0.6701  0.0881  2.9729
 4484TIP3   OH234866   6.757   5.783   3.395  0.0456  0.1448 -0.3773
 4484TIP3    H134867   6.672   5.823   3.378  0.4137  0.4091 -1.6904
 4484TIP3    H234868   6.810   5.853   3.433 -0.3763 -0.0868  0.6799
 4485TIP3   OH234869   4.476   1.291  15.315 -0.0636  0.3276  0.1949
 4485TIP3    H134870   4.542   1.326  15.255 -0.8494 -0.4586 -1.1897
 4485TIP3    H234871   4.393   1.305  15.271 -0.5941 -1.0800  0.6733
 4486TIP3   OH234872   5.490   6.423  12.859  0.3325  0.0053 -0.5150
 4486TIP3    H134873   5.450   6.358  12.918  1.2144  0.6848  0.8895
 4486TIP3    H234874   5.415   6.463  12.814 -0.1923 -2.4364 -1.9692
 4487TIP3   OH234875   4.616   6.597  15.893 -0.2389 -0.3939 -0.3889
 4487TIP3    H134876   4.647   6.517  15.935  0.9284 -0.2196 -0.8775
 4487TIP3    H234877   4.545   6.567  15.835  0.4170 -1.1438 -0.8320
 4488TIP3   OH234878   4.047   3.962  15.135  0.3211 -0.2634 -0.0078
 4488TIP3    H134879   4.065   3.924  15.049  0.3806 -0.4562  0.0883
 4488TIP3    H234880   4.134   3.987  15.168  0.1399  1.6523 -0.8344
 4489TIP3   OH234881   0.665   2.274  11.324  0.1859  0.4484 -0.5858
 4489TIP3    H134882   0.701   2.197  11.281 -0.3642  0.0968 -0.4266
 4489TIP3    H234883   0.717   2.347  11.289  1.6246 -0.1131  0.2664
 4490TIP3   OH234884   1.136   6.514  12.258  0.5038 -0.3775 -0.5171
 4490TIP3    H134885   1.062   6.544  12.311 -0.4464  1.0544 -2.5621
 4490TIP3    H234886   1.142   6.420  12.278 -0.2335 -0.0530  1.5587
 4491TIP3   OH234887   5.012   1.701   2.162 -0.4304 -0.1381  0.2118
 4491TIP3    H134888   4.959   1.624   2.183 -0.3403 -0.1976  0.2238
 4491TIP3    H234889   5.035   1.739   2.247  0.1535 -0.5289  0.2353
 4492TIP3   OH234890   2.499   5.650   0.447 -0.0158  0.4364 -0.3674
 4492TIP3    H134891   2.566   5.717   0.456  1.6512 -1.2292  0.3733
 4492TIP3    H234892   2.418   5.698   0.430  0.6394  2.7540  2.3881
 4493TIP3   OH234893   2.376   2.621  13.797 -0.0064  0.4301 -0.1275
 4493TIP3    H134894   2.333   2.601  13.880 -1.2135  0.6539 -0.6728
 4493TIP3    H234895   2.376   2.537  13.750 -0.4662  0.5704 -0.3888
 4494TIP3   OH234896   5.317   0.510   3.626 -0.2654  0.4943  0.3231
 4494TIP3    H134897   5.365   0.429   3.610 -0.8747 -0.2450  1.9853
 4494TIP3    H234898   5.344   0.537   3.714 -0.3695  1.9004 -0.0500
 4495TIP3   OH234899   3.979   3.953  12.157 -0.0181 -0.4310  0.5268
 4495TIP3    H134900   3.929   3.941  12.237  1.7747  0.6815  1.9034
 4495TIP3    H234901   4.045   3.883  12.160 -2.3742 -3.0781 -2.1850
 4496TIP3   OH234902   6.049   4.739   6.762  0.3760  0.3902 -0.4737
 4496TIP3    H134903   6.099   4.668   6.721 -0.4762  0.0332 -0.9334
 4496TIP3    H234904   6.035   4.710   6.852  0.6487  0.3057 -0.4577
 4497TIP3   OH234905   6.464   1.358   2.343  0.4120 -0.0011 -0.0899
 4497TIP3    H134906   6.464   1.420   2.416  2.8193  0.2414 -0.2125
 4497TIP3    H234907   6.475   1.413   2.265 -1.2501 -0.3347 -0.6064
 4498TIP3   OH234908   0.206   4.761  16.568  0.0968 -0.6421 -0.1599
 4498TIP3    H134909   0.235   4.671  16.554  0.5473 -0.2295 -2.2757
 4498TIP3    H234910   0.115   4.762  16.537 -0.5673 -0.7739  1.6818
 4499TIP3   OH234911   4.553   0.022   0.462  0.0721  0.3780 -0.2560
 4499TIP3    H134912   4.569   0.079   0.537 -0.8513  1.1027 -0.5902
 4499TIP3    H234913   4.469   0.052   0.427 -2.1769 -3.2187  1.4455
 4500TIP3   OH234914   3.571   4.721  15.280  0.2352  0.3981 -0.0766
 4500TIP3    H134915   3.548   4.663  15.353  1.4789 -0.1823 -0.1138
 4500TIP3    H234916   3.487   4.750  15.245 -0.4925 -2.0019 -0.5472
 4501TIP3   OH234917   0.530   2.158  13.427  0.2684  0.0108  0.2551
 4501TIP3    H134918   0.538   2.243  13.386 -1.3061  0.7045  1.2748
 4501TIP3    H234919   0.611   2.147  13.478  1.7890 -0.4395 -2.1174
 4502TIP3   OH234920   3.715   6.219   0.488 -0.1523 -0.0257 -0.2723
 4502TIP3    H134921   3.805   6.222   0.458  0.2286  4.4015  0.6104
 4502TIP3    H234922   3.664   6.196   0.411  1.5592 -0.1862 -1.3958
 4503TIP3   OH234923   4.527   4.512   0.461 -0.4350 -0.6175  0.0272
 4503TIP3    H134924   4.476   4.544   0.536 -0.4979 -2.6729  0.9260
 4503TIP3    H234925   4.467   4.520   0.386 -1.6161 -1.6351  0.8144
 4504TIP3   OH234926   2.333   3.526   6.329 -0.5238 -0.0175  0.1155
 4504TIP3    H134927   2.319   3.604   6.276 -2.1761  0.3821  1.0650
 4504TIP3    H234928   2.428   3.512   6.326 -0.0803  2.4183  0.4352
 4505TIP3   OH234929   0.581   6.075   2.611 -0.1249 -0.2079  0.1527
 4505TIP3    H134930   0.509   6.123   2.569 -0.0704 -0.3638 -0.1211
 4505TIP3    H234931   0.576   6.100   2.703 -1.1804 -0.9990  0.3391
 4506TIP3   OH234932   0.278   1.254  14.254 -0.1967 -0.7268  0.1299
 4506TIP3    H134933   0.372   1.251  14.237 -0.3859  2.7096 -2.8260
 4506TIP3    H234934   0.267   1.326  14.316 -0.9073 -0.0542 -0.7410
 4507TIP3   OH234935   5.457   4.160   3.954  0.1802  0.0055  0.3804
 4507TIP3    H134936   5.495   4.246   3.939  3.1175 -1.6228 -2.8691
 4507TIP3    H234937   5.530   4.106   3.986 -1.8363 -1.1837  3.5370
 4508TIP3   OH234938   5.914   4.470   5.158  0.2267 -0.8241  0.5934
 4508TIP3    H134939   5.857   4.465   5.081 -0.1686  0.3766  0.7949
 4508TIP3    H234940   5.993   4.423   5.131 -0.5643 -1.9120  0.0654
 4509TIP3   OH234941   4.260   2.646   1.093  0.3085 -0.3424 -0.2080
 4509TIP3    H134942   4.337   2.599   1.061  0.3550 -0.8405  0.6049
 4509TIP3    H234943   4.289   2.684   1.177 -0.5261 -1.1417  0.4641
 4510TIP3   OH234944   5.324   3.771   0.611  0.0508  0.3579 -0.1798
 4510TIP3    H134945   5.340   3.706   0.542  0.2612  1.7200 -1.4874
 4510TIP3    H234946   5.408   3.780   0.655  0.5328  1.0598 -1.2099
 4511TIP3   OH234947   6.170   4.105   2.754 -0.1183 -0.0375 -0.1671
 4511TIP3    H134948   6.180   4.080   2.846 -0.5917 -1.1021 -0.3853
 4511TIP3    H234949   6.259   4.122   2.724  0.1828 -0.9791  0.1474
 4512TIP3   OH234950   1.120   1.393   4.570  0.3005 -0.1043 -0.5443
 4512TIP3    H134951   1.108   1.342   4.650  2.5931 -1.3581 -0.8928
 4512TIP3    H234952   1.187   1.457   4.593  0.3032  0.1311 -1.1999
 4513TIP3   OH234953   6.261   4.443  14.148  0.1111  0.2964  0.6177
 4513TIP3    H134954   6.327   4.375  14.166  1.2466  2.0087  3.6056
 4513TIP3    H234955   6.215   4.454  14.231 -1.5809  1.6470 -0.4418
 4514TIP3   OH234956   1.266   6.070   4.429  0.5556 -0.2614 -0.0418
 4514TIP3    H134957   1.361   6.069   4.438  0.5557 -0.8162 -0.0643
 4514TIP3    H234958   1.244   5.983   4.395 -0.0702 -0.6088  1.1758
 4515TIP3   OH234959   2.263   1.186  11.890  0.1196 -0.2462  0.2909
 4515TIP3    H134960   2.293   1.268  11.851  1.0369  0.1017  1.6670
 4515TIP3    H234961   2.188   1.212  11.944  1.5099  0.0774  2.1980
 4516TIP3   OH234962   4.439   6.035  14.431  0.1932 -0.2557 -0.1029
 4516TIP3    H134963   4.368   5.974  14.411 -1.0063  0.9603  0.2623
 4516TIP3    H234964   4.455   6.025  14.525 -0.5707  0.5287  0.1268
 4517TIP3   OH234965   0.428   3.502  12.797 -0.7112 -0.1609 -0.1254
 4517TIP3    H134966   0.436   3.412  12.829 -0.1453  0.0306  0.2773
 4517TIP3    H234967   0.413   3.554  12.875  0.7283  0.3182 -0.1545
 4518TIP3   OH234968   0.663   0.055  13.640 -0.1390 -0.1262  0.3820
 4518TIP3    H134969   0.731  -0.009  13.621 -0.6373 -1.1179  1.7483
 4518TIP3    H234970   0.695   0.103  13.716  0.1130  1.1250 -0.4697
 4519TIP3   OH234971   0.206   3.153  12.875 -0.1890  0.4800  0.4150
 4519TIP3    H134972   0.218   3.058  12.872  1.5545  0.7007 -0.9495
 4519TIP3    H234973   0.127   3.165  12.929 -1.2160 -1.7841 -0.4393
 4520TIP3   OH234974   4.283   4.954   5.942  0.4801  0.6575  0.0240
 4520TIP3    H134975   4.285   5.000   6.026  0.7450  0.0983  0.3330
 4520TIP3    H234976   4.360   4.985   5.896  0.4226  0.8467  0.0538
 4521TIP3   OH234977   5.158   2.295   3.939  0.3259 -0.1641 -0.2938
 4521TIP3    H134978   5.250   2.267   3.931  0.9341  0.3474  3.2029
 4521TIP3    H234979   5.161   2.390   3.934 -0.1868 -0.1829 -1.1298
 4522TIP3   OH234980   4.410   0.377  12.585  0.1377 -0.2383 -0.9516
 4522TIP3    H134981   4.378   0.290  12.559 -0.5983 -0.8339  1.6332
 4522TIP3    H234982   4.381   0.435  12.515 -0.3802 -1.8926 -2.1817
 4523TIP3   OH234983   5.060   3.005   5.082  0.7368  0.1388  0.1295
 4523TIP3    H134984   4.966   3.025   5.085  0.9278  0.9676  0.6846
 4523TIP3    H234985   5.075   2.949   5.159  0.1337 -2.6202 -1.6047
 4524TIP3   OH234986   1.621   5.440  13.702 -0.4435 -0.2139 -0.2076
 4524TIP3    H134987   1.656   5.412  13.786 -0.1307  1.9915  0.4542
 4524TIP3    H234988   1.630   5.363  13.645  0.4807 -1.3585  1.4162
 4525TIP3   OH234989   3.880   2.122   2.960  0.3774  0.0274  0.0669
 4525TIP3    H134990   3.927   2.049   3.001  0.9666  0.4403  0.1425
 4525TIP3    H234991   3.788   2.108   2.983 -0.0894 -2.5748 -2.6393
 4526TIP3   OH234992   0.221   6.615  13.023 -0.3416 -0.6118 -0.4162
 4526TIP3    H134993   0.290   6.621  12.957 -1.2087 -1.0469 -1.3868
 4526TIP3    H234994   0.196   6.705  13.041  0.3626 -0.4593 -0.1634
 4527TIP3   OH234995   1.122   0.738   1.502 -0.4629  0.5841  0.0976
 4527TIP3    H134996   1.214   0.752   1.521 -0.4129  1.4428 -0.6998
 4527TIP3    H234997   1.081   0.824   1.516 -1.0054  0.3953 -0.2637
 4528TIP3   OH234998   5.221   5.676  13.968 -0.2104 -0.1053 -0.3115
 4528TIP3    H134999   5.228   5.718  13.883 -0.7301  0.2112 -0.2058
 4528TIP3    H235000   5.291   5.714  14.020 -0.6484  0.6060 -0.2328
 4529TIP3   OH235001   4.821   5.411  16.151 -0.1579 -0.6793 -0.4251
 4529TIP3    H135002   4.792   5.500  16.134  2.7789  0.3911 -0.3674
 4529TIP3    H235003   4.852   5.379  16.066  3.1457  0.1941  0.2995
 4530TIP3   OH235004   3.991   1.212  11.004  0.4017  0.1464  0.1978
 4530TIP3    H135005   4.077   1.201  11.045  0.6514  0.4614 -0.2375
 4530TIP3    H235006   3.932   1.163  11.060  0.4897  1.7825  1.8108
 4531TIP3   OH235007   6.318   6.639   6.283 -0.0586  0.1539 -0.1895
 4531TIP3    H135008   6.379   6.566   6.289 -1.8097 -1.4925 -1.3084
 4531TIP3    H235009   6.260   6.616   6.210 -1.0911  2.3500 -0.1449
 4532TIP3   OH235010   6.006   1.924  17.090  0.5130 -0.2180 -0.1579
 4532TIP3    H135011   6.060   1.962  17.022 -1.1755  2.4694 -0.1280
 4532TIP3    H235012   5.921   1.909  17.049 -0.2030  0.4065  1.0191
 4533TIP3   OH235013   5.376   4.542   5.899  0.7121  0.1378  0.1987
 4533TIP3    H135014   5.412   4.495   5.824  2.4429  1.4440  0.1522
 4533TIP3    H235015   5.344   4.473   5.957 -0.0559 -0.9184 -1.4205
 4534TIP3   OH235016   1.748   0.451   0.017 -0.0295  0.0574 -0.2929
 4534TIP3    H135017   1.745   0.357   0.005 -0.8876 -0.0448  0.5831
 4534TIP3    H235018   1.745   0.463   0.112 -1.6948  0.9939 -0.4251
 4535TIP3   OH235019   0.769   4.203  13.187 -0.3460 -0.3030 -0.3398
 4535TIP3    H135020   0.718   4.163  13.117  2.2696 -1.8439 -1.5464
 4535TIP3    H235021   0.821   4.270  13.143  1.0026 -0.9843  0.1476
 4536TIP3   OH235022   0.648   3.732   4.590  0.1999 -0.1556 -0.0232
 4536TIP3    H135023   0.620   3.683   4.512  0.9255 -2.7183  1.2178
 4536TIP3    H235024   0.567   3.750   4.637 -0.0098 -1.3133  0.0979
 4537TIP3   OH235025   4.604   3.509  12.738 -0.2778  0.2386  0.3536
 4537TIP3    H135026   4.511   3.523  12.718 -0.3495 -0.3132  0.2988
 4537TIP3    H235027   4.615   3.414  12.736 -0.2462  0.1326  2.7635
 4538TIP3   OH235028   5.503   6.308  15.165  0.0966  0.0913  0.3450
 4538TIP3    H135029   5.535   6.353  15.088  0.9826 -0.4985  0.3485
 4538TIP3    H235030   5.516   6.215  15.146  0.8998 -0.0398  1.4307
 4539TIP3   OH235031   4.115   4.851  16.030 -0.6577 -0.2852 -0.2067
 4539TIP3    H135032   4.055   4.902  16.085  0.6535  0.9845  0.0859
 4539TIP3    H235033   4.187   4.828  16.088  0.3248  0.3119 -1.1679
 4540TIP3   OH235034   4.405   1.579   3.628 -0.1534 -0.0349  0.5025
 4540TIP3    H135035   4.378   1.557   3.718  0.4195 -0.9732  0.4642
 4540TIP3    H235036   4.491   1.621   3.639  0.3027 -0.9016  0.3551
 4541TIP3   OH235037   5.230   0.027  13.737  0.1629 -0.5106  0.3244
 4541TIP3    H135038   5.179   0.084  13.795 -1.3603  0.0532 -1.4755
 4541TIP3    H235039   5.285   0.088  13.687  0.7767 -0.9112  0.4996
 4542TIP3   OH235040   4.968   4.259  13.782 -0.0664 -0.1335 -0.8051
 4542TIP3    H135041   5.000   4.170  13.772  0.3607  0.0095 -0.7262
 4542TIP3    H235042   4.873   4.250  13.787  0.0473 -0.7463  0.9767
 4543TIP3   OH235043   3.829   1.107  15.102  0.4889 -0.2021  0.0453
 4543TIP3    H135044   3.760   1.048  15.134 -0.8906 -0.2281 -2.6783
 4543TIP3    H235045   3.867   1.145  15.181 -0.3313 -2.7605  1.7938
 4544TIP3   OH235046   5.065   0.767  14.612 -0.1268  0.0126 -0.0065
 4544TIP3    H135047   5.152   0.772  14.571  0.5239  0.5765  1.3908
 4544TIP3    H235048   5.020   0.697  14.565  1.4726 -1.0374 -0.0389
 4545TIP3   OH235049   6.709   2.653  15.958  0.2542  0.0986  0.1437
 4545TIP3    H135050   6.776   2.696  16.011  0.3383  0.2822 -0.1142
 4545TIP3    H235051   6.684   2.576  16.010 -0.7008  1.0445  1.1417
 4546TIP3   OH235052   5.692   0.498   2.935 -0.4257 -0.3728 -0.0674
 4546TIP3    H135053   5.629   0.435   2.900 -0.8452 -0.3360  0.6090
 4546TIP3    H235054   5.640   0.558   2.989 -0.5068  2.2828 -2.8209
 4547TIP3   OH235055   3.503   0.990  14.443 -0.2834 -0.3976 -0.1482
 4547TIP3    H135056   3.529   1.032  14.361 -0.7120 -1.5437 -0.8962
 4547TIP3    H235057   3.418   1.028  14.463 -0.0511  0.0931 -0.0745
 4548TIP3   OH235058   2.074   5.865   4.206 -0.0416 -0.0612 -0.0210
 4548TIP3    H135059   2.064   5.772   4.224  0.0196 -0.3968 -1.5779
 4548TIP3    H235060   2.002   5.907   4.254  1.8602 -0.4658  3.4863
 4549TIP3   OH235061   6.392   0.797  14.133  0.3581 -0.9460 -0.0383
 4549TIP3    H135062   6.442   0.758  14.061  2.2207  2.3462 -0.7038
 4549TIP3    H235063   6.439   0.769  14.212  1.1626 -0.7353 -0.4311
 4550TIP3   OH235064   6.245   3.078  16.679 -0.2644 -0.4504 -0.1888
 4550TIP3    H135065   6.151   3.090  16.669 -0.6177 -0.5122  2.3847
 4550TIP3    H235066   6.261   2.987  16.656 -1.4682 -1.4531  2.4902
 4551TIP3   OH235067   5.822   5.950   0.350 -0.4321  0.2336 -0.0571
 4551TIP3    H135068   5.839   5.996   0.432  0.8352  1.0777 -0.7524
 4551TIP3    H235069   5.833   6.017   0.283  1.7956 -1.1011 -1.1217
 4552TIP3   OH235070   2.386   5.941  14.944 -0.2228 -0.1305  0.1536
 4552TIP3    H135071   2.312   5.937  15.006 -1.7364 -0.4064 -1.5929
 4552TIP3    H235072   2.425   5.854  14.948  0.1109  0.0474  1.1653
 4553TIP3   OH235073   3.036   5.093   2.045 -0.1563 -0.0545  0.5875
 4553TIP3    H135074   3.092   5.151   2.097 -2.5002  1.3599  1.7603
 4553TIP3    H235075   2.960   5.147   2.023 -1.2956 -1.9734 -0.4822
 4554TIP3   OH235076   3.343   3.820   3.636  0.6921 -0.0447  0.2152
 4554TIP3    H135077   3.358   3.763   3.561 -0.4085  1.5189 -1.2634
 4554TIP3    H235078   3.295   3.766   3.698  0.7368 -1.0725 -0.6153
 4555TIP3   OH235079   4.026   3.417   0.961  0.4149 -0.0760  0.5691
 4555TIP3    H135080   4.016   3.329   0.926  0.4291  0.0320  0.2889
 4555TIP3    H235081   4.080   3.463   0.896 -1.7573  0.9191 -0.6657
 4556TIP3   OH235082   1.165   4.914  17.045  0.4661 -0.3599  0.2490
 4556TIP3    H135083   1.077   4.902  17.009 -0.1570  0.5768  1.4006
 4556TIP3    H235084   1.217   4.845  17.004 -0.9372 -1.3017 -0.0166
 4557TIP3   OH235085   3.486   5.462   4.665 -0.4804 -0.2817 -0.2188
 4557TIP3    H135086   3.395   5.478   4.639 -0.1763  1.2707 -0.4317
 4557TIP3    H235087   3.519   5.400   4.601 -1.6790 -1.6933  0.4780
 4558TIP3   OH235088   3.678   5.093   2.763  0.0085 -0.0649 -0.1645
 4558TIP3    H135089   3.715   5.008   2.787 -2.1009 -0.9252  0.2761
 4558TIP3    H235090   3.589   5.072   2.732 -1.2184  2.1123  1.6164
 4559TIP3   OH235091   1.235   1.087   1.950 -0.0575 -0.0230 -0.8917
 4559TIP3    H135092   1.197   1.174   1.966 -2.0526 -0.4285 -2.8714
 4559TIP3    H235093   1.300   1.102   1.882 -0.6817 -0.1144 -1.5172
 4560TIP3   OH235094   3.838   0.909  12.464  0.4205 -0.4414  0.0046
 4560TIP3    H135095   3.784   0.988  12.470 -1.1830 -1.6217  2.4445
 4560TIP3    H235096   3.829   0.881  12.373  0.3086  1.6632 -0.6820
 4561TIP3   OH235097   1.748   4.536  12.169  0.2816 -0.2428 -0.2420
 4561TIP3    H135098   1.683   4.581  12.223  1.5820 -1.4904  2.5586
 4561TIP3    H235099   1.722   4.444  12.172  0.8709 -0.4546 -1.1023
 4562TIP3   OH235100   3.939   0.756  16.669  0.1213  0.1575  0.2984
 4562TIP3    H135101   3.974   0.844  16.653  0.1855  0.2216  0.7868
 4562TIP3    H235102   3.930   0.751  16.764 -1.7879  0.3873  0.1721
 4563TIP3   OH235103   1.197   0.449   5.230 -0.0543 -0.0814 -0.0605
 4563TIP3    H135104   1.288   0.421   5.241 -0.2895 -0.1993  1.7879
 4563TIP3    H235105   1.170   0.410   5.146  1.4343 -0.4306 -0.4045
 4564TIP3   OH235106   0.408   1.126  11.782 -0.3031 -0.0775 -0.0458
 4564TIP3    H135107   0.397   1.174  11.700  1.7687 -0.3897 -0.5677
 4564TIP3    H235108   0.496   1.089  11.776  0.1015  0.3086  2.5539
 4565TIP3   OH235109   0.491   0.643  13.795  0.3409  0.5268  0.2348
 4565TIP3    H135110   0.485   0.624  13.889 -0.5930  0.6266  0.2114
 4565TIP3    H235111   0.427   0.584  13.755  0.5216  0.6908 -0.3067
 4566TIP3   OH235112   1.543   4.934   6.149  0.3168 -0.6859  0.5054
 4566TIP3    H135113   1.538   4.858   6.091  1.1593 -1.6035  1.5902
 4566TIP3    H235114   1.491   4.909   6.226  1.8012 -0.8023  1.5153
 4567TIP3   OH235115   2.083   1.243  16.624  0.7169 -0.0279  0.2701
 4567TIP3    H135116   2.052   1.219  16.711  0.9373  2.3565  1.0747
 4567TIP3    H235117   2.168   1.200  16.616  0.2078 -1.1664  0.7584
 4568TIP3   OH235118   5.049   4.433  10.713 -0.1769  0.5173 -0.1381
 4568TIP3    H135119   5.021   4.518  10.747 -0.3910  0.9739 -1.4076
 4568TIP3    H235120   4.990   4.417  10.639 -0.8975 -1.2721  0.7794
 4569TIP3   OH235121   3.403   1.207   5.767 -0.2736 -0.3944 -0.1765
 4569TIP3    H135122   3.366   1.236   5.684 -0.2244 -1.6071 -0.6460
 4569TIP3    H235123   3.492   1.243   5.768 -1.2238  2.1413  0.7477
 4570TIP3   OH235124   5.808   2.020  13.321  0.2557 -0.1136 -0.0355
 4570TIP3    H135125   5.722   2.053  13.295 -1.0667 -1.9019  1.7507
 4570TIP3    H235126   5.827   2.066  13.403 -0.7111 -2.1745  1.4426
 4571TIP3   OH235127   6.184   6.479   3.331  0.2141  0.0142  0.1232
 4571TIP3    H135128   6.169   6.414   3.399 -1.8159  0.0026 -0.2573
 4571TIP3    H235129   6.155   6.562   3.370 -0.7058  0.0532 -0.6044
 4572TIP3   OH235130   0.674   2.077  12.372 -0.4065  0.2278  0.0172
 4572TIP3    H135131   0.626   2.124  12.441 -0.0188  0.5832  0.0485
 4572TIP3    H235132   0.759   2.058  12.410  0.2554  1.4997 -0.7642
 4573TIP3   OH235133   1.153   3.546  15.213  0.4317 -0.8980 -0.3365
 4573TIP3    H135134   1.169   3.457  15.246  0.1095 -0.5927  0.6806
 4573TIP3    H235135   1.064   3.566  15.240  0.9460  0.2201  0.6130
 4574TIP3   OH235136   2.678   3.613   4.035 -0.0254  0.2960  0.6852
 4574TIP3    H135137   2.751   3.557   4.009  0.8978  2.2127 -1.1906
 4574TIP3    H235138   2.604   3.554   4.044  0.8787 -1.2370 -1.2254
 4575TIP3   OH235139   4.879   4.734   2.283  0.1192  0.0186 -0.4574
 4575TIP3    H135140   4.932   4.655   2.276  0.7494  0.4175 -0.2998
 4575TIP3    H235141   4.939   4.805   2.259  0.0860  0.6198  1.0929
 4576TIP3   OH235142   1.052   3.209  16.429  0.1530  0.1982 -0.1352
 4576TIP3    H135143   1.047   3.113  16.435  0.1285  0.1791 -0.4385
 4576TIP3    H235144   1.061   3.238  16.520 -0.8908 -0.0348  0.0581
 4577TIP3   OH235145   6.397   6.422  16.757 -0.0322  0.0911  0.1514
 4577TIP3    H135146   6.440   6.472  16.687 -2.5815  1.2186 -0.7452
 4577TIP3    H235147   6.395   6.332  16.724  0.0456  0.3482 -0.5712
 4578TIP3   OH235148   4.874   5.936  15.740  0.1960  0.2365  0.2205
 4578TIP3    H135149   4.826   5.918  15.660  0.3964 -0.3034  0.2182
 4578TIP3    H235150   4.965   5.945  15.713 -0.0074  2.3157  0.0685
 4579TIP3   OH235151   4.333   0.155   0.346  0.2543 -0.4790  0.2825
 4579TIP3    H135152   4.353   0.136   0.255  1.3338 -0.2257  0.4562
 4579TIP3    H235153   4.398   0.220   0.372  0.4325 -1.0956  1.4453
 4580TIP3   OH235154   1.723   5.954  15.071  0.0026 -0.3035 -0.2965
 4580TIP3    H135155   1.771   5.877  15.101 -0.6475 -0.5437  0.1598
 4580TIP3    H235156   1.638   5.948  15.116 -0.9923 -0.6319 -2.1394
 4581TIP3   OH235157   3.868   5.115   0.565  0.5458 -0.3251  0.3306
 4581TIP3    H135158   3.916   5.064   0.500 -1.7967 -0.2475 -1.5857
 4581TIP3    H235159   3.787   5.141   0.521 -1.7943 -1.3123  3.6130
 4582TIP3   OH235160   6.075   1.553  15.460  0.2480 -0.1239 -0.2595
 4582TIP3    H135161   6.133   1.608  15.406 -0.8136  2.5496  1.1161
 4582TIP3    H235162   5.988   1.589  15.445 -0.1766  0.2863  2.6106
 4583TIP3   OH235163   2.519   0.798   2.636  0.2212  0.0091  0.0899
 4583TIP3    H135164   2.480   0.759   2.714  1.0670  1.1453  1.1205
 4583TIP3    H235165   2.450   0.856   2.602 -0.2733 -0.7485 -0.2320
 4584TIP3   OH235166   4.982   0.628   0.018  0.3915 -0.3888 -0.0841
 4584TIP3    H135167   5.068   0.641  -0.022  0.0102 -0.4200 -0.9358
 4584TIP3    H235168   5.000   0.582   0.100  1.4571  2.2405  1.2869
 4585TIP3   OH235169   4.917   4.020   0.246 -0.1634  0.0237  0.1366
 4585TIP3    H135170   4.946   4.039   0.157  0.8865  2.6642  0.9362
 4585TIP3    H235171   4.924   3.925   0.254  1.4695 -0.1110 -1.9934
 4586TIP3   OH235172   6.145   1.742   1.970 -0.7960  0.2761  0.8064
 4586TIP3    H135173   6.126   1.826   1.928  0.6006  0.8034  1.1742
 4586TIP3    H235174   6.084   1.680   1.930 -1.5291  1.3727  0.1984
 4587TIP3   OH235175   2.297   6.280  13.104 -0.3809 -0.6806  0.1114
 4587TIP3    H135176   2.301   6.202  13.049 -1.4450 -1.1576  0.6759
 4587TIP3    H235177   2.225   6.262  13.166  0.4320  0.0475  1.3137
 4588TIP3   OH235178   2.065   3.318  16.977 -0.2414  0.1258  0.3726
 4588TIP3    H135179   2.016   3.342  16.899  0.6932  0.1463 -0.2217
 4588TIP3    H235180   2.111   3.398  17.002  1.1132 -0.4072 -0.3018
 4589TIP3   OH235181   5.877   5.677   1.808 -0.1531 -0.4414 -0.3247
 4589TIP3    H135182   5.912   5.708   1.725 -0.7149  0.0895 -0.3719
 4589TIP3    H235183   5.843   5.590   1.789 -0.7882 -0.1004 -0.7934
 4590TIP3   OH235184   4.724   6.442  11.206 -0.4445 -0.7976  0.2004
 4590TIP3    H135185   4.681   6.483  11.280 -0.4455  1.6192 -1.0530
 4590TIP3    H235186   4.657   6.437  11.138  0.0803 -1.0847 -0.3146
 4591TIP3   OH235187   3.765   2.246  11.902 -0.1473 -0.1820 -0.3278
 4591TIP3    H135188   3.684   2.292  11.927 -0.1045 -0.5692  0.5599
 4591TIP3    H235189   3.735   2.159  11.876 -0.2679  0.4018 -2.3431
 4592TIP3   OH235190   5.960   2.238   2.472 -0.2998 -0.9894  0.5626
 4592TIP3    H135191   5.889   2.279   2.421  0.3645  0.3181  0.6294
 4592TIP3    H235192   5.991   2.167   2.416 -0.0633 -0.0308 -0.5748
 4593TIP3   OH235193   0.402   2.489   2.486 -0.5270 -0.3157  0.1199
 4593TIP3    H135194   0.460   2.552   2.528 -0.3081 -0.6445  0.3110
 4593TIP3    H235195   0.345   2.543   2.430 -0.2289  0.0322  0.1481
 4594TIP3   OH235196   0.139   4.157   1.287 -0.2341 -0.5519 -0.2533
 4594TIP3    H135197   0.193   4.224   1.330  1.4685 -1.3532 -1.0330
 4594TIP3    H235198   0.051   4.194   1.287  0.8471  2.3435 -1.8667
 4595TIP3   OH235199   3.693   1.547   0.187  1.2730  0.0845 -0.3261
 4595TIP3    H135200   3.643   1.509   0.115  2.7371  1.1403 -1.9972
 4595TIP3    H235201   3.642   1.625   0.212 -0.2688 -1.3253  1.2137
 4596TIP3   OH235202   4.323   4.426  12.059  0.3567  0.3410  0.2756
 4596TIP3    H135203   4.362   4.442  11.973 -0.1752 -1.4254 -0.3418
 4596TIP3    H235204   4.269   4.347  12.047 -1.9497  1.6214  1.5487
 4597TIP3   OH235205   4.939   1.810  12.538 -0.0911  0.5324 -0.0031
 4597TIP3    H135206   4.854   1.839  12.571 -0.2776 -0.5333  0.5005
 4597TIP3    H235207   5.002   1.839  12.604 -0.0653  1.2558 -0.3388
 4598TIP3   OH235208   5.566   1.724  14.632 -0.0316  0.6396 -0.4490
 4598TIP3    H135209   5.647   1.733  14.582  0.0146  1.2516 -0.2736
 4598TIP3    H235210   5.580   1.778  14.710 -0.7539  1.0810 -0.6140
 4599TIP3   OH235211   4.763   2.022  12.889  0.0450 -0.4780 -0.0198
 4599TIP3    H135212   4.754   1.988  12.800  1.4721 -3.9498  0.9731
 4599TIP3    H235213   4.685   1.991  12.935 -0.7423  1.3929 -0.0069
 4600TIP3   OH235214   3.785   4.057  15.218  0.2150  0.8343  0.1291
 4600TIP3    H135215   3.745   4.063  15.132 -1.0776  0.2451  0.6587
 4600TIP3    H235216   3.878   4.043  15.201  0.1134  1.6169 -1.1486
 4601TIP3   OH235217   6.256   3.955  14.587  0.0478 -0.3022  0.6485
 4601TIP3    H135218   6.275   4.047  14.607  1.4729 -0.4835  0.2730
 4601TIP3    H235219   6.259   3.951  14.491  1.0202 -0.9118  0.6867
 4602TIP3   OH235220   2.347   5.803  14.686  0.5321 -0.0543  0.1299
 4602TIP3    H135221   2.293   5.877  14.713 -0.7504 -0.8579 -0.1251
 4602TIP3    H235222   2.325   5.733  14.748  0.7633 -0.6057 -0.3956
 4603TIP3   OH235223   0.300   5.266   3.939 -0.3284  0.5175  0.0266
 4603TIP3    H135224   0.305   5.361   3.936  2.6721  0.4404 -0.1679
 4603TIP3    H235225   0.358   5.241   4.011 -3.1224 -1.1497  1.9123
 4604TIP3   OH235226   3.016   4.648  13.093 -0.0123  0.2995 -0.5747
 4604TIP3    H135227   3.075   4.602  13.034  1.5898  0.5308  0.7894
 4604TIP3    H235228   2.977   4.717  13.039  2.1128  1.1022 -1.1720
 4605TIP3   OH235229   2.303   5.408  15.015  0.4842 -0.0032 -0.4870
 4605TIP3    H135230   2.325   5.372  14.930 -0.9436 -0.1455 -0.8265
 4605TIP3    H235231   2.316   5.336  15.077  4.8220  0.9819  0.0304
 4606TIP3   OH235232   1.693   5.141   5.188  0.1813 -0.6346  0.4431
 4606TIP3    H135233   1.786   5.122   5.176 -0.0021 -0.6658 -1.2124
 4606TIP3    H235234   1.682   5.230   5.154 -0.5679 -1.0253 -0.3767
 4607TIP3   OH235235   5.081   4.263  11.913 -0.3984  0.6067 -0.0880
 4607TIP3    H135236   5.126   4.315  11.980  0.6713 -0.3648 -0.0059
 4607TIP3    H235237   4.993   4.249  11.948 -0.0573  0.6631  0.8272
 4608TIP3   OH235238   5.736   0.662   6.386 -0.2570 -0.1576  0.0562
 4608TIP3    H135239   5.762   0.743   6.431 -0.7575  0.7056 -1.1479
 4608TIP3    H235240   5.641   0.662   6.392 -0.2094 -1.4822  1.3772
 4609TIP3   OH235241   5.505   5.412   2.795 -0.0482 -0.7949 -0.5877
 4609TIP3    H135242   5.421   5.371   2.773  0.1689 -2.1265  0.8772
 4609TIP3    H235243   5.551   5.416   2.712 -1.6890  0.3315 -1.5054
 4610TIP3   OH235244   4.286   5.922   1.457 -0.4231  0.2515 -0.2809
 4610TIP3    H135245   4.339   5.842   1.447 -0.4689  0.1905 -0.0435
 4610TIP3    H235246   4.350   5.991   1.475 -0.3855  0.2666 -0.4657
 4611TIP3   OH235247   2.980   3.611  11.191 -0.1616 -0.4296  0.0541
 4611TIP3    H135248   2.893   3.610  11.150 -0.2470  1.1767  0.1548
 4611TIP3    H235249   3.028   3.679  11.144  0.6593 -0.4945  0.7830
 4612TIP3   OH235250   1.018   0.648  14.682  0.0501  0.4017  0.1059
 4612TIP3    H135251   0.987   0.604  14.761  0.1905 -1.3098 -0.7520
 4612TIP3    H235252   1.061   0.727  14.714  0.6030 -0.5215  1.7878
 4613TIP3   OH235253   3.307   0.810  12.187 -0.1379 -0.8307  0.2287
 4613TIP3    H135254   3.340   0.785  12.273 -0.2541 -1.7459  0.0176
 4613TIP3    H235255   3.215   0.832  12.202 -0.2296 -1.2536  0.2967
 4614TIP3   OH235256   2.657   2.563  14.779 -0.0001  0.0956 -0.2967
 4614TIP3    H135257   2.750   2.552  14.757 -0.3621 -0.1744 -1.7971
 4614TIP3    H235258   2.658   2.617  14.858  1.4325  0.2060 -0.3513
 4615TIP3   OH235259   2.443   6.349   0.721  0.2967  0.0855  0.2234
 4615TIP3    H135260   2.367   6.383   0.768  1.4117  1.4777  1.1044
 4615TIP3    H235261   2.481   6.284   0.779  0.5922  0.4254  0.4101
 4616TIP3   OH235262   3.961   5.580   5.664  0.0905  0.1628  0.3284
 4616TIP3    H135263   4.020   5.643   5.705 -0.7707  0.6438  0.8327
 4616TIP3    H235264   3.910   5.631   5.602 -0.7092 -0.0116  0.8371
 4617TIP3   OH235265   3.180   1.857   4.538  0.0927  0.4122 -0.2958
 4617TIP3    H135266   3.269   1.850   4.570 -0.0300 -2.4507 -0.3922
 4617TIP3    H235267   3.147   1.939   4.576  3.0604  2.1888 -1.2026
 4618TIP3   OH235268   1.267   4.043  12.790 -0.1023  0.5494 -0.1887
 4618TIP3    H135269   1.243   4.124  12.836 -1.2604  1.2193 -1.8717
 4618TIP3    H235270   1.186   4.013  12.751  0.7047 -0.3666 -1.2070
 4619TIP3   OH235271   1.470   0.382   5.277 -0.1199 -0.4015  0.3630
 4619TIP3    H135272   1.523   0.386   5.357  0.3483  0.8938  0.0092
 4619TIP3    H235273   1.526   0.420   5.209 -0.9369 -0.4290 -0.3479
 4620TIP3   OH235274   4.496   0.257  15.140 -0.8079  0.2120  1.1845
 4620TIP3    H135275   4.479   0.164  15.124 -0.7040  0.4862 -0.7636
 4620TIP3    H235276   4.461   0.302  15.063 -1.1118  1.8284  2.2244
 4621TIP3   OH235277   0.714   4.205  13.661  0.3206 -0.1517 -0.1881
 4621TIP3    H135278   0.687   4.221  13.570 -0.4505 -0.1994  0.0182
 4621TIP3    H235279   0.777   4.275  13.680 -0.1046  0.3367 -0.5159
 4622TIP3   OH235280   6.027   5.820  12.596  0.7788  0.0916 -0.2217
 4622TIP3    H135281   5.985   5.840  12.512  1.0856  0.0050 -0.3972
 4622TIP3    H235282   5.969   5.860  12.661  0.7368  0.4934 -0.4969
 4623TIP3   OH235283   5.950   0.628  13.589  0.0589 -0.1078 -0.4950
 4623TIP3    H135284   5.863   0.661  13.612  0.9197  1.3365  0.9441
 4623TIP3    H235285   5.994   0.618  13.673  2.3244  2.3260 -1.2523
 4624TIP3   OH235286   0.689   1.355  14.903  0.1913  0.2723  0.5415
 4624TIP3    H135287   0.640   1.273  14.900  1.4566 -0.5548  1.5271
 4624TIP3    H235288   0.760   1.339  14.965  1.5196  1.5302 -0.5713
 4625TIP3   OH235289   1.941   4.818  15.496  0.1950  0.1160  0.0202
 4625TIP3    H135290   1.884   4.821  15.572 -0.1712 -0.1653 -0.2373
 4625TIP3    H235291   2.027   4.793  15.531 -0.2225 -1.1105  0.2101
 4626TIP3   OH235292   0.436   0.806  14.483 -0.0391 -0.0656 -0.2200
 4626TIP3    H135293   0.498   0.842  14.420  0.7122 -0.3334  0.3477
 4626TIP3    H235294   0.359   0.863  14.476  0.4051  0.4962 -0.6778
 4627TIP3   OH235295   3.396   4.175  13.748  0.6870 -0.9179  0.6286
 4627TIP3    H135296   3.467   4.116  13.776  0.8767 -0.3887  1.2915
 4627TIP3    H235297   3.413   4.191  13.655  1.3023 -0.9867  0.7248
 4628TIP3   OH235298   4.460   0.472  14.628 -0.0492  0.1350 -0.4493
 4628TIP3    H135299   4.544   0.438  14.598 -0.4922 -1.7828  0.3442
 4628TIP3    H235300   4.474   0.494  14.720 -0.6855 -1.3206  0.0226
 4629TIP3   OH235301   5.988   4.618   5.362  0.1673 -0.4502  0.2073
 4629TIP3    H135302   5.979   4.567   5.281 -0.4708  0.2193 -0.1516
 4629TIP3    H235303   5.899   4.648   5.381  0.3470 -0.4318  1.0534
 4630TIP3   OH235304   2.923   6.173   3.395  0.1735  0.5508  0.0938
 4630TIP3    H135305   2.862   6.220   3.452 -0.9157 -0.1461 -0.4576
 4630TIP3    H235306   3.010   6.197   3.427 -0.2823  3.3225 -0.4297
 4631TIP3   OH235307   5.861   2.377  17.040  0.3317  0.5650 -0.0108
 4631TIP3    H135308   5.890   2.332  17.119 -2.9648 -1.2636  0.3476
 4631TIP3    H235309   5.855   2.309  16.973 -2.5083  0.7785 -0.1131
 4632TIP3   OH235310   6.514   4.332   4.957  0.1529 -0.2315 -0.0579
 4632TIP3    H135311   6.552   4.419   4.943  0.7594 -0.6480 -1.1129
 4632TIP3    H235312   6.560   4.298   5.033  0.4321  0.0857 -0.0828
 4633TIP3   OH235313   0.917   2.230  16.077  0.4303  0.1421  0.8355
 4633TIP3    H135314   0.944   2.156  16.022 -0.6412  0.5411 -0.2918
 4633TIP3    H235315   0.821   2.225  16.078 -0.0126  3.4669 -2.3048
 4634TIP3   OH235316   0.337   1.162   5.375 -0.4811  0.0050  0.6065
 4634TIP3    H135317   0.302   1.159   5.464 -0.2534 -0.1745  0.6914
 4634TIP3    H235318   0.430   1.144   5.385 -0.4771 -0.1410  0.3200
 4635TIP3   OH235319   4.009   0.204  13.918 -0.1448 -0.8172 -0.0038
 4635TIP3    H135320   3.979   0.167  14.001 -0.9758  1.7528  0.9154
 4635TIP3    H235321   3.962   0.153  13.852 -0.8607 -1.7292  1.1455
 4636TIP3   OH235322   5.815   3.104  12.839  0.5592 -0.4872 -0.0103
 4636TIP3    H135323   5.843   3.025  12.792  1.3937  1.1249 -2.4171
 4636TIP3    H235324   5.896   3.139  12.877  1.4744  2.2135 -3.8993
 4637TIP3   OH235325   6.588   4.095  11.452  0.7559  0.2830 -0.3944
 4637TIP3    H135326   6.517   4.070  11.393  1.2464  1.1164 -1.3807
 4637TIP3    H235327   6.543   4.128  11.530  0.0847 -0.2857 -0.5268
 4638TIP3   OH235328   3.369   6.595  11.201  0.0496 -0.2481  0.0600
 4638TIP3    H135329   3.429   6.604  11.275  1.8085  3.0834 -1.5216
 4638TIP3    H235330   3.397   6.515  11.157  1.7207 -0.0849  0.7608
 4639TIP3   OH235331   6.456   0.949   2.854 -0.1781 -0.2667  0.1917
 4639TIP3    H135332   6.440   1.043   2.845  1.8348  0.0177 -1.2072
 4639TIP3    H235333   6.513   0.928   2.780  0.1283 -2.4301  0.9768
 4640TIP3   OH235334   2.383   3.287  12.174  0.2208  0.3418 -0.6992
 4640TIP3    H135335   2.310   3.234  12.208  1.0487 -0.9730 -0.8736
 4640TIP3    H235336   2.404   3.246  12.090  0.2848  1.5684 -1.2910
 4641TIP3   OH235337   5.832   1.331   1.591 -1.0500 -0.7594 -0.2013
 4641TIP3    H135338   5.882   1.295   1.518 -0.2415  1.5157 -0.8413
 4641TIP3    H235339   5.855   1.276   1.666  0.6669 -1.1210 -0.9656
 4642TIP3   OH235340   0.415   6.009  16.095 -0.1473  0.2197  0.2787
 4642TIP3    H135341   0.479   6.057  16.041 -0.1168  0.3671  0.4412
 4642TIP3    H235342   0.331   6.049  16.073 -0.3229 -0.6342 -0.6674
 4643TIP3   OH235343   2.984   3.558  16.432 -0.4834  0.0832  0.0599
 4643TIP3    H135344   3.041   3.553  16.509 -0.6013  0.2344  0.1576
 4643TIP3    H235345   2.973   3.652  16.416 -2.3426  0.1190  1.2720
 4644TIP3   OH235346   4.942   5.659   5.205 -0.4681  0.5930 -0.5597
 4644TIP3    H135347   4.935   5.679   5.112  0.7893  1.7601 -0.4282
 4644TIP3    H235348   4.967   5.742   5.245  0.4328 -0.2379  0.6309
 4645TIP3   OH235349   1.779   4.705  13.971 -0.1932 -0.0635  0.5119
 4645TIP3    H135350   1.700   4.654  13.955  0.4850 -1.2392  0.7634
 4645TIP3    H235351   1.825   4.705  13.887  0.5601 -1.2486  0.8942
 4646TIP3   OH235352   4.361   1.735   6.575 -0.2519  0.3557  0.1656
 4646TIP3    H135353   4.304   1.715   6.501  0.9018 -3.0739  0.0357
 4646TIP3    H235354   4.450   1.736   6.538  0.1692  0.9489  1.1400
 4647TIP3   OH235355   5.219   4.845  11.130  0.2034  0.2139 -0.4176
 4647TIP3    H135356   5.201   4.933  11.162  0.9415 -0.2614  1.4250
 4647TIP3    H235357   5.150   4.791  11.168  1.4544 -0.4641  1.0401
 4648TIP3   OH235358   2.848   0.730   2.122  0.0411 -0.1631  0.3636
 4648TIP3    H135359   2.867   0.639   2.099 -0.9012 -0.5609  1.1137
 4648TIP3    H235360   2.792   0.725   2.199 -0.1271  1.0538  0.3488
 4649TIP3   OH235361   1.548   3.859   0.852 -0.3517  0.1267  0.0384
 4649TIP3    H135362   1.479   3.891   0.794  1.1792  0.1548 -1.8837
 4649TIP3    H235363   1.502   3.808   0.918 -2.1945  0.0877 -1.2016
 4650TIP3   OH235364   3.976   2.580  14.360  0.3443  0.0035 -0.0231
 4650TIP3    H135365   3.990   2.643  14.290 -2.9153  0.8251 -0.0988
 4650TIP3    H235366   3.957   2.497  14.316 -0.0577  0.1234 -0.0787
 4651TIP3   OH235367   0.026   4.261  14.350 -0.0461  0.0781  0.1484
 4651TIP3    H135368   0.087   4.223  14.414  2.0247 -1.2570 -2.4030
 4651TIP3    H235369  -0.015   4.185  14.308 -1.0643  0.8977 -0.3719
 4652TIP3   OH235370   3.553   0.062  14.561 -0.0581  0.1133 -0.2523
 4652TIP3    H135371   3.628   0.087  14.615  1.5963  0.0800 -2.4052
 4652TIP3    H235372   3.582  -0.017  14.515 -1.9454 -0.6882 -0.1648
 4653TIP3   OH235373   3.925   1.570   4.815 -0.1439  0.0239 -0.5376
 4653TIP3    H135374   3.906   1.520   4.736 -0.8954 -1.6705  0.6639
 4653TIP3    H235375   3.847   1.560   4.869 -0.4261  2.7092 -0.2931
 4654TIP3   OH235376   0.873   4.127   0.789  0.5932  0.0805 -0.0340
 4654TIP3    H135377   0.863   4.210   0.837 -0.0217  0.9011 -1.5247
 4654TIP3    H235378   0.936   4.078   0.841  1.6977  1.8697  0.4268
 4655TIP3   OH235379   5.473   3.675  14.275  0.1337 -0.0809  0.2046
 4655TIP3    H135380   5.500   3.760  14.310  0.6501 -0.9213  1.9760
 4655TIP3    H235381   5.547   3.647  14.220 -0.7693  1.3442 -1.8716
 4656TIP3   OH235382   1.730   0.411   1.894 -0.4515  0.4925 -0.8901
 4656TIP3    H135383   1.735   0.340   1.957 -0.6666 -2.2052 -3.7042
 4656TIP3    H235384   1.662   0.469   1.929 -1.5259 -1.5636  0.6721
 4657TIP3   OH235385   4.931   3.282  14.711  0.3964  0.1417  0.0589
 4657TIP3    H135386   4.896   3.364  14.746 -0.0373 -0.2017  0.4409
 4657TIP3    H235387   4.873   3.214  14.746 -1.9130 -0.0336 -3.5672
 4658TIP3   OH235388   1.653   1.515  17.098  0.0515 -0.0236  0.3273
 4658TIP3    H135389   1.735   1.525  17.147 -0.4032  1.4901  0.8083
 4658TIP3    H235390   1.592   1.575  17.140 -1.1477 -0.6886 -0.4140
 4659TIP3   OH235391   6.094   3.282  13.709 -0.3362  0.4542  0.1954
 4659TIP3    H135392   6.028   3.222  13.744 -1.3098  1.4025  0.0668
 4659TIP3    H235393   6.172   3.228  13.696 -1.2552 -0.8356 -0.1669
 4660TIP3   OH235394   0.925   0.751  11.056  0.1975  0.0825 -0.3408
 4660TIP3    H135395   0.934   0.806  11.134  0.1367 -0.9677  0.4289
 4660TIP3    H235396   0.983   0.677  11.072  0.5288  0.0699 -1.5101
 4661TIP3   OH235397   6.689   0.916   0.290 -0.3274 -0.6195  0.4747
 4661TIP3    H135398   6.743   0.930   0.368  0.2050  1.1301 -0.1599
 4661TIP3    H235399   6.600   0.936   0.319 -0.0102  0.9438  0.4370
 4662TIP3   OH235400   0.608   4.391   5.020  0.1252  0.8936 -0.2869
 4662TIP3    H135401   0.610   4.327   5.091  0.1404  1.3675  0.1423
 4662TIP3    H235402   0.522   4.380   4.980  0.1962  0.4814 -0.3329
 4663TIP3   OH235403   3.624   0.360   4.369 -0.2271  0.5586 -0.4384
 4663TIP3    H135404   3.572   0.349   4.290  0.2062 -1.0776 -0.5296
 4663TIP3    H235405   3.561   0.350   4.441 -0.5463  1.6436 -0.5384
 4664TIP3   OH235406   4.083   5.333   5.456 -0.0845  0.6132  0.1650
 4664TIP3    H135407   4.008   5.369   5.409 -0.5737 -0.0510  0.4244
 4664TIP3    H235408   4.122   5.409   5.500 -0.4563  1.0024 -0.1624
 4665TIP3   OH235409   2.097   0.411   2.617  0.1880  0.2548  0.0977
 4665TIP3    H135410   2.131   0.480   2.561  0.4330  1.4264  1.6122
 4665TIP3    H235411   2.002   0.420   2.612  0.0783 -1.1775 -1.8905
 4666TIP3   OH235412   2.912   0.315   1.597  0.2143 -0.8955 -0.1746
 4666TIP3    H135413   2.961   0.241   1.561  0.9314  0.0095 -1.1195
 4666TIP3    H235414   2.874   0.282   1.678  0.1037 -2.4391 -0.8349
 4667TIP3   OH235415   3.006   4.432   4.647 -0.0865  0.4439 -0.0896
 4667TIP3    H135416   3.072   4.441   4.716 -1.4574 -0.3024  1.3816
 4667TIP3    H235417   3.013   4.341   4.618 -0.4882  0.3459  0.1115
 4668TIP3   OH235418   1.532   4.728   5.958  0.4420 -0.1511  0.6589
 4668TIP3    H135419   1.488   4.643   5.959  0.2296 -0.0427  2.0849
 4668TIP3    H235420   1.562   4.738   5.868  0.3051 -1.6514  0.4204
 4669TIP3   OH235421   4.970   1.834  13.085 -0.0359  0.6409  0.8505
 4669TIP3    H135422   5.043   1.810  13.142 -0.4047 -1.4333  0.5287
 4669TIP3    H235423   4.894   1.838  13.144 -0.6237 -2.5556  0.4792
 4670TIP3   OH235424   1.014   3.371  12.091 -0.4012 -0.0017  0.1704
 4670TIP3    H135425   0.924   3.343  12.108 -0.7317  0.7903 -0.2169
 4670TIP3    H235426   1.063   3.290  12.080 -0.4883 -0.5436  3.0426
 4671TIP3   OH235427   2.274   6.012  16.158 -0.6281 -0.3140 -0.0704
 4671TIP3    H135428   2.244   6.070  16.228  0.7198  1.4913 -0.9108
 4671TIP3    H235429   2.271   6.067  16.079  1.2965 -1.1684 -0.7872
 4672TIP3   OH235430   5.705   3.221   2.795 -0.2135 -0.3678 -0.2779
 4672TIP3    H135431   5.776   3.244   2.735  1.4945 -0.0623  1.7698
 4672TIP3    H235432   5.748   3.179   2.869 -2.0674  0.5844  1.4458
 4673TIP3   OH235433   6.231   0.203  16.011  0.8659 -0.4368 -0.7006
 4673TIP3    H135434   6.283   0.188  16.090  0.0352  0.5471  0.0601
 4673TIP3    H235435   6.286   0.259  15.956  0.2162  1.6184  0.6197
 4674TIP3   OH235436   5.061   5.761   4.862 -0.1963  0.4446 -0.5289
 4674TIP3    H135437   5.090   5.693   4.802 -1.0289  0.5613 -1.0922
 4674TIP3    H235438   5.139   5.813   4.880  0.0632  0.4303 -1.5503
 4675TIP3   OH235439   6.048   0.794  16.141 -0.0408 -0.0315 -0.4606
 4675TIP3    H135440   6.000   0.832  16.067 -0.3159  3.1248  1.1652
 4675TIP3    H235441   6.099   0.723  16.102 -2.6118 -0.6538 -3.0393
 4676TIP3   OH235442   4.481   6.015  14.697 -0.5306  0.1357  0.2454
 4676TIP3    H135443   4.573   6.020  14.720  0.0152 -2.2259 -1.0247
 4676TIP3    H235444   4.439   6.084  14.747  2.0900  2.1117 -0.0975
 4677TIP3   OH235445   5.692   1.674  17.339 -0.1195 -0.4269 -0.0174
 4677TIP3    H135446   5.680   1.732  17.263 -2.3206  1.9851  1.9641
 4677TIP3    H235447   5.777   1.698  17.374  0.6182 -1.0840 -1.2941
 4678TIP3   OH235448   4.090   3.120   1.351  0.4480 -0.3496 -0.0537
 4678TIP3    H135449   4.153   3.182   1.387  0.5942  0.5175 -1.7220
 4678TIP3    H235450   4.012   3.173   1.333 -0.4468 -1.2215  1.0819
 4679TIP3   OH235451   0.815   5.257  16.484 -0.9107 -0.0985  0.0251
 4679TIP3    H135452   0.823   5.288  16.394 -1.6602 -1.3634 -0.5060
 4679TIP3    H235453   0.728   5.217  16.488 -0.8841 -0.0599  1.3154
 4680TIP3   OH235454   3.555   1.732  16.139 -0.0373  0.8211  0.1019
 4680TIP3    H135455   3.576   1.678  16.063  1.8209 -0.2784  1.3180
 4680TIP3    H235456   3.509   1.808  16.102 -0.4718 -0.3606 -1.9289
 4681TIP3   OH235457   2.702   6.594  16.540 -0.0419 -0.1563 -0.3049
 4681TIP3    H135458   2.698   6.563  16.630 -0.6182  1.1996  0.1697
 4681TIP3    H235459   2.779   6.551  16.503  1.0818  0.3683  1.2869
 4682TIP3   OH235460   4.904   4.395   1.036  0.4200  0.0900  0.6565
 4682TIP3    H135461   4.954   4.339   0.976 -0.0033 -1.2823  1.5184
 4682TIP3    H235462   4.947   4.384   1.120  0.8273  1.7571  0.6898
 4683TIP3   OH235463   5.350   3.451   5.969  0.3799  0.1745  0.2637
 4683TIP3    H135464   5.322   3.360   5.957  0.5101  0.0398  0.9180
 4683TIP3    H235465   5.439   3.454   5.933  1.8193 -0.8802  3.2888
 4684TIP3   OH235466   5.808   3.393  15.081 -0.1327  0.4208  0.5268
 4684TIP3    H135467   5.869   3.366  15.012  0.4048 -0.0669  1.1786
 4684TIP3    H235468   5.722   3.392  15.039 -0.1057 -1.9423  0.3906
 4685TIP3   OH235469   6.089   4.094  11.746 -0.0591 -0.6327  0.1691
 4685TIP3    H135470   6.076   4.175  11.796  1.0600  0.9838 -1.9308
 4685TIP3    H235471   6.183   4.094  11.726  0.0980 -2.8438  0.6413
 4686TIP3   OH235472   1.747   5.116   3.968  0.9335 -0.5835  0.1894
 4686TIP3    H135473   1.740   5.208   3.994  0.5179 -1.0154  1.7093
 4686TIP3    H235474   1.659   5.080   3.982  0.4800 -0.7495 -2.4588
 4687TIP3   OH235475   0.738   4.586   0.455 -0.3678  0.1888  0.1905
 4687TIP3    H135476   0.652   4.626   0.440  0.0107  1.3112  0.8328
 4687TIP3    H235477   0.797   4.661   0.465  0.5967 -0.5653  0.2226
 4688TIP3   OH235478   1.925   4.631  15.127 -0.0408 -0.2106  0.1464
 4688TIP3    H135479   1.996   4.686  15.094  0.4712 -0.4936  0.7664
 4688TIP3    H235480   1.859   4.693  15.158  0.8304  0.0764  1.4853
 4689TIP3   OH235481   6.424   2.542   5.546  0.2621  0.1334  0.3630
 4689TIP3    H135482   6.354   2.580   5.599 -0.1669 -1.9926  1.4288
 4689TIP3    H235483   6.497   2.532   5.607  0.6220 -0.0402 -0.0923
 4690TIP3   OH235484   1.595   6.486   1.615 -0.8324  0.0321  0.0645
 4690TIP3    H135485   1.649   6.558   1.581 -2.3679  1.5039  0.5797
 4690TIP3    H235486   1.630   6.470   1.702 -0.0203 -0.3665 -0.3209
 4691TIP3   OH235487   4.996   4.044  16.482 -0.0008  0.3405 -0.3445
 4691TIP3    H135488   4.995   4.133  16.518  0.7042  0.8788 -1.5788
 4691TIP3    H235489   5.010   4.056  16.388 -1.7230 -1.0182 -0.8288
 4692TIP3   OH235490   5.428   6.319   1.566 -0.1041  0.1091 -0.0692
 4692TIP3    H135491   5.482   6.243   1.543 -0.0834  0.8592 -2.8996
 4692TIP3    H235492   5.482   6.395   1.543 -1.0273  0.9434  0.4264
 4693TIP3   OH235493   1.079   0.304  13.842  0.3710  0.1560  0.7545
 4693TIP3    H135494   1.149   0.273  13.784 -0.8279 -2.0344  0.3629
 4693TIP3    H235495   1.042   0.224  13.880 -0.4897  1.3869  2.6829
 4694TIP3   OH235496   5.745   1.859  14.288  0.6931 -0.7566 -0.7070
 4694TIP3    H135497   5.833   1.883  14.257  1.4094  1.0376  2.2967
 4694TIP3    H235498   5.762   1.812  14.370 -1.1143  1.3420  0.9832
 4695TIP3   OH235499   2.207   4.621   2.640 -0.6599 -0.3636 -0.1809
 4695TIP3    H135500   2.284   4.673   2.663 -0.4203 -0.1306 -1.4113
 4695TIP3    H235501   2.163   4.605   2.723  0.3570  0.0702  0.4648
 4696TIP3   OH235502   5.668   2.764  14.162 -0.4102  0.4124 -0.2051
 4696TIP3    H135503   5.595   2.749  14.223  0.7354 -1.4614  0.7879
 4696TIP3    H235504   5.637   2.728  14.079  0.4603 -3.5958  0.9923
 4697TIP3   OH235505   6.413   4.731   0.031 -0.6474 -0.5314  0.9632
 4697TIP3    H135506   6.358   4.807   0.049  0.1868  0.0457  1.1708
 4697TIP3    H235507   6.496   4.751   0.076 -0.1572 -1.2132  0.3854
 4698TIP3   OH235508   3.377   6.459   5.488 -0.0501  0.7515 -0.0741
 4698TIP3    H135509   3.465   6.460   5.450  0.7722 -0.6664  1.6286
 4698TIP3    H235510   3.346   6.370   5.475 -1.3015  1.2725 -0.7570
 4699TIP3   OH235511   1.051   4.543  16.466  0.2009 -0.2810 -0.1857
 4699TIP3    H135512   1.075   4.577  16.380  0.0981 -0.5145 -0.3082
 4699TIP3    H235513   1.091   4.604  16.528 -1.5581  1.1808 -0.4051
 4700TIP3   OH235514   0.268   0.678  12.734 -0.5232 -0.3812  0.3877
 4700TIP3    H135515   0.178   0.672  12.765 -0.7899  0.5845 -0.1694
 4700TIP3    H235516   0.279   0.770  12.711 -0.1165 -0.9127 -1.7163
 4701TIP3   OH235517   0.895   1.117  16.239  0.3085 -0.7989 -0.3353
 4701TIP3    H135518   0.820   1.175  16.232 -0.5998 -1.9037 -0.0638
 4701TIP3    H235519   0.903   1.077  16.153  0.9695 -0.2323 -0.5405
 4702TIP3   OH235520   4.285   5.822   0.513 -0.0315  0.2606 -0.5001
 4702TIP3    H135521   4.202   5.775   0.507 -0.4131  1.0346 -1.7754
 4702TIP3    H235522   4.349   5.755   0.535 -0.5754 -0.8510 -2.1084
 4703TIP3   OH235523   3.579   0.561   6.290 -0.0920  0.0578  0.3449
 4703TIP3    H135524   3.516   0.616   6.336 -0.9510 -1.1925  0.7130
 4703TIP3    H235525   3.604   0.613   6.213 -1.0541  0.8582  0.5499
 4704TIP3   OH235526   2.949   2.134   5.701 -0.3443  0.1727 -0.0143
 4704TIP3    H135527   2.907   2.178   5.775 -0.5786 -0.2271  0.0927
 4704TIP3    H235528   2.886   2.067   5.675  0.6708 -1.1530  0.8307
 4705TIP3   OH235529   0.621   6.450  16.778 -0.4175 -0.1298 -0.0178
 4705TIP3    H135530   0.655   6.361  16.789 -0.5743 -0.2016 -0.1130
 4705TIP3    H235531   0.698   6.502  16.757 -0.2725 -0.1831  0.3657
 4706TIP3   OH235532   3.129   0.082   2.192  0.2575  0.0425 -0.4005
 4706TIP3    H135533   3.047   0.050   2.229  0.1399  1.5484  0.7309
 4706TIP3    H235534   3.193   0.013   2.210 -0.4868 -0.5772 -0.1347
 4707TIP3   OH235535   0.982   2.769  12.872  0.1976  0.7158  0.0078
 4707TIP3    H135536   0.904   2.794  12.921  0.0327  2.1366 -0.9296
 4707TIP3    H235537   1.053   2.817  12.914  0.3034  0.7125 -0.1660
 4708TIP3   OH235538   2.473   3.787  11.185 -0.0969  0.3231 -0.1798
 4708TIP3    H135539   2.475   3.692  11.180 -0.0097  0.3696 -1.3198
 4708TIP3    H235540   2.381   3.810  11.171 -0.0931  0.4081 -0.0658
 4709TIP3   OH235541   3.269   5.247   3.650  0.5200  0.5721 -0.1917
 4709TIP3    H135542   3.261   5.201   3.734 -0.2544  1.1319  0.0491
 4709TIP3    H235543   3.309   5.183   3.591 -3.3339 -1.6129 -0.7782
 4710TIP3   OH235544   1.685   2.126   4.182  0.2048 -0.7374  0.0833
 4710TIP3    H135545   1.771   2.096   4.152  0.2441 -0.7981  0.2521
 4710TIP3    H235546   1.705   2.201   4.239  0.0008  0.8697 -1.8736
 4711TIP3   OH235547   3.396   0.791   2.741 -0.0421 -0.4163 -0.0107
 4711TIP3    H135548   3.368   0.740   2.818  0.3209 -1.8157 -0.7831
 4711TIP3    H235549   3.486   0.815   2.760  0.3868 -1.6346 -0.4111
 4712TIP3   OH235550   0.465   2.015   3.590  0.2856 -0.0752  0.1145
 4712TIP3    H135551   0.405   2.047   3.657 -0.3315 -1.1617  0.1001
 4712TIP3    H235552   0.422   2.037   3.507  0.2145 -0.2806  0.0966
 4713TIP3   OH235553   4.012   1.340  12.501 -0.4460  0.5554  0.3601
 4713TIP3    H135554   4.000   1.368  12.411  0.4903  1.2613  0.4321
 4713TIP3    H235555   4.073   1.266  12.496 -0.3296  0.6469  0.4195
 4714TIP3   OH235556   1.631   0.888  17.168 -0.0278  0.7885 -0.2524
 4714TIP3    H135557   1.651   0.849  17.253  1.0413  0.1643 -0.7672
 4714TIP3    H235558   1.637   0.982  17.183  2.1655  0.6762 -0.0504
 4715TIP3   OH235559   1.181   1.611   4.167  0.6365  0.0464 -0.1168
 4715TIP3    H135560   1.241   1.626   4.239  0.7089  2.4639 -0.5932
 4715TIP3    H235561   1.237   1.610   4.089  0.2610  0.4423 -0.3954
 4716TIP3   OH235562   6.735   2.493  15.729 -0.7447  0.2242 -0.1384
 4716TIP3    H135563   6.809   2.538  15.770 -0.7046  0.3526 -0.3448
 4716TIP3    H235564   6.658   2.539  15.761 -0.6695  0.9488 -0.9374
 4717TIP3   OH235565   5.836   4.669   3.325 -0.2422 -0.0304  0.2347
 4717TIP3    H135566   5.870   4.755   3.301 -0.6438 -0.1539 -0.8859
 4717TIP3    H235567   5.888   4.642   3.400  1.4914  0.1873 -0.8267
 4718TIP3   OH235568   0.038   2.649  15.320  0.5514 -0.3313 -0.4766
 4718TIP3    H135569   0.105   2.686  15.262  1.0764 -2.4539 -1.3057
 4718TIP3    H235570   0.083   2.580  15.368 -0.4423 -0.0946  0.8591
 4719TIP3   OH235571   3.588   1.273  16.407  0.4772 -0.2227 -1.1084
 4719TIP3    H135572   3.535   1.352  16.409  0.1302 -0.4705 -0.3352
 4719TIP3    H235573   3.595   1.251  16.314  0.4096  0.5961 -1.3097
 4720TIP3   OH235574   4.643   5.438  12.515 -0.1965 -0.4748 -0.3620
 4720TIP3    H135575   4.618   5.348  12.533 -1.9029  0.2431  1.0849
 4720TIP3    H235576   4.607   5.455  12.427 -0.9066 -0.8534 -0.1551
 4721TIP3   OH235577   4.839   6.760   1.515 -0.0437  0.1089 -0.7960
 4721TIP3    H135578   4.786   6.772   1.436  0.9241  2.1571 -1.2239
 4721TIP3    H235579   4.861   6.849   1.543 -1.3927 -0.4573  2.5758
 4722TIP3   OH235580   6.000   3.958  14.728  0.0869  0.1087 -0.2865
 4722TIP3    H135581   6.069   3.947  14.663 -0.6389 -0.1382 -1.0294
 4722TIP3    H235582   5.955   3.874  14.730 -0.8687  0.5992 -0.6078
 4723TIP3   OH235583   2.100   5.978   4.995  0.0170 -0.1782  0.0009
 4723TIP3    H135584   2.130   6.069   4.990 -0.6672  0.0006 -1.4639
 4723TIP3    H235585   2.179   5.927   4.976  0.2125  0.1393 -0.0699
 4724TIP3   OH235586   2.402   3.511  11.147 -0.9602 -0.0977 -0.0462
 4724TIP3    H135587   2.424   3.449  11.217 -1.6709 -0.4211 -0.1046
 4724TIP3    H235588   2.407   3.458  11.067 -1.0440  0.0537 -0.1514
 4725TIP3   OH235589   1.471   4.189  14.041  0.0613 -0.4035 -0.8001
 4725TIP3    H135590   1.517   4.249  13.982  0.6035 -0.1707 -0.1470
 4725TIP3    H235591   1.387   4.173  13.998  0.6121 -0.5796 -1.8551
 4726TIP3   OH235592   5.333   5.438  12.109  0.7010 -0.0966 -0.2736
 4726TIP3    H135593   5.396   5.399  12.168  0.5361  0.8188  0.5281
 4726TIP3    H235594   5.358   5.530  12.104 -1.3267  0.5871  1.1186
 4727TIP3   OH235595   2.941   3.005   5.819 -0.2275 -0.3729  0.0294
 4727TIP3    H135596   2.865   2.965   5.859 -0.5233  0.1705  0.0202
 4727TIP3    H235597   3.016   2.955   5.853 -0.6122 -1.2081 -0.3336
 4728TIP3   OH235598   3.304   2.393   4.818 -0.3578 -0.1292 -0.0457
 4728TIP3    H135599   3.280   2.485   4.830 -0.0753 -0.0956  0.2704
 4728TIP3    H235600   3.384   2.396   4.765  1.4246 -0.0434  2.4969
 4729TIP3   OH235601   3.432   3.612  14.129  0.0724 -0.8748  0.1806
 4729TIP3    H135602   3.411   3.658  14.210  1.4763  1.1305 -0.4918
 4729TIP3    H235603   3.359   3.632  14.070 -0.5069 -1.5834  0.6385
 4730TIP3   OH235604   3.772   3.555   0.073  0.6230  0.0066  0.3571
 4730TIP3    H135605   3.798   3.502   0.149  1.7567  1.0526  0.7316
 4730TIP3    H235606   3.677   3.564   0.081  0.8174  0.8466  2.1765
 4731TIP3   OH235607   2.837   4.342  17.289  0.1400 -0.3542 -0.3983
 4731TIP3    H135608   2.799   4.268  17.335  1.4577 -0.3831  0.7191
 4731TIP3    H235609   2.803   4.335  17.200 -0.4139 -1.8188 -0.1031
 4732TIP3   OH235610   5.854   0.985   3.548 -0.0913  0.0497  0.1081
 4732TIP3    H135611   5.797   0.943   3.612 -0.7711  2.4962  1.2118
 4732TIP3    H235612   5.937   0.937   3.555 -0.3811 -0.2308  2.3262
 4733TIP3   OH235613   5.024   1.766   3.349 -0.2292 -0.3495 -0.2530
 4733TIP3    H135614   5.069   1.692   3.391 -0.6449  0.5835  2.0031
 4733TIP3    H235615   5.087   1.837   3.354 -0.0532 -0.3712 -1.8766
 4734TIP3   OH235616   6.079   1.762   2.845 -0.1098 -0.7026  0.2307
 4734TIP3    H135617   6.033   1.688   2.804 -1.3076 -0.0008  0.2594
 4734TIP3    H235618   6.071   1.833   2.782 -1.2253  0.1426  1.2683
 4735TIP3   OH235619   0.296   0.626   0.889  0.1363 -0.0823 -0.3204
 4735TIP3    H135620   0.307   0.540   0.848  1.5958 -0.9982  1.7850
 4735TIP3    H235621   0.277   0.606   0.981  2.5983  1.7913  0.7060
 4736TIP3   OH235622   1.229   4.682   0.170 -0.5138 -0.2084 -0.0296
 4736TIP3    H135623   1.283   4.688   0.091 -1.0643  0.6908 -0.3569
 4736TIP3    H235624   1.144   4.650   0.138 -0.7336  0.1462  0.1974
 4737TIP3   OH235625   3.431   5.028  16.045  0.0236  0.2924  0.1106
 4737TIP3    H135626   3.527   5.026  16.047  0.0668  0.7374 -0.9289
 4737TIP3    H235627   3.410   5.076  15.965 -1.0675  0.5230  0.5240
 4738TIP3   OH235628   0.977   3.591   1.876 -0.1959  0.0806 -0.2389
 4738TIP3    H135629   0.884   3.613   1.890 -0.8244 -1.9186 -0.9997
 4738TIP3    H235630   0.975   3.506   1.832  2.0071  0.2782 -0.8063
 4739TIP3   OH235631   0.390   2.751   4.087 -0.0467  0.1300 -0.0675
 4739TIP3    H135632   0.429   2.703   4.159 -0.4819 -2.8257 -1.6327
 4739TIP3    H235633   0.305   2.781   4.121 -2.4041 -5.1405 -0.3816
 4740TIP3   OH235634   6.512   4.666  16.297 -0.0651  0.7233  0.2626
 4740TIP3    H135635   6.566   4.664  16.218  0.8506  0.7137  0.8672
 4740TIP3    H235636   6.499   4.759  16.315 -1.2580  0.7297 -0.5343
 4741TIP3   OH235637   4.583   1.922   3.186 -0.1630 -0.3138  0.0491
 4741TIP3    H135638   4.656   1.983   3.197 -0.2225  0.6505 -3.8069
 4741TIP3    H235639   4.506   1.972   3.211  0.0842  0.1492 -0.1067
 4742TIP3   OH235640   4.254   1.279  17.054 -0.3455  0.0256  0.3856
 4742TIP3    H135641   4.230   1.188  17.039  1.8813 -0.3563 -1.2325
 4742TIP3    H235642   4.192   1.329  17.001 -1.3022 -0.5316  0.9415
 4743TIP3   OH235643   1.159   6.062  13.474  0.3590 -0.3727  0.1499
 4743TIP3    H135644   1.080   6.075  13.421  1.4806 -0.0378 -1.5308
 4743TIP3    H235645   1.206   5.992  13.429  1.7683  0.5288  0.1561
 4744TIP3   OH235646   2.806   5.975  15.684  0.3285  0.0891  0.2258
 4744TIP3    H135647   2.840   5.954  15.771 -0.7062  0.9066  0.8560
 4744TIP3    H235648   2.835   5.902  15.629  0.7275 -0.6105  1.3200
 4745TIP3   OH235649   3.604   3.369  14.952  0.2802 -0.2570 -0.3165
 4745TIP3    H135650   3.612   3.361  15.047 -1.0954  0.7249 -0.0786
 4745TIP3    H235651   3.616   3.280  14.919  0.8458 -0.5939  0.7656
 4746TIP3   OH235652   2.602   1.739   4.555  0.0028  0.3877 -0.1399
 4746TIP3    H135653   2.644   1.666   4.601  0.7819  0.8398 -0.1019
 4746TIP3    H235654   2.632   1.817   4.603 -1.6758  0.6839  0.4913
 4747TIP3   OH235655   2.867   6.683   0.699 -0.0915 -0.2454 -0.2951
 4747TIP3    H135656   2.802   6.613   0.701 -2.1673  1.6245  0.9107
 4747TIP3    H235657   2.835   6.748   0.761  2.1104  1.5115 -0.8699
 4748TIP3   OH235658   2.570   0.439  12.640 -0.2800  0.1650 -0.2943
 4748TIP3    H135659   2.590   0.404  12.727  0.0756 -0.1965 -0.5227
 4748TIP3    H235660   2.651   0.428  12.590 -0.9238 -1.0064 -1.1319
 4749TIP3   OH235661   5.675   0.530  17.235  0.2323 -0.1704  0.0120
 4749TIP3    H135662   5.734   0.581  17.180  0.0516 -2.3436 -2.3817
 4749TIP3    H235663   5.699   0.439  17.219 -0.9391 -0.9843  2.3601
 4750TIP3   OH235664   5.189   4.003  13.813  0.0769  0.3759  0.3799
 4750TIP3    H135665   5.269   3.952  13.804  0.9007  1.4322  1.4490
 4750TIP3    H235666   5.119   3.939  13.803  1.0272 -0.5305 -0.8231
 4751TIP3   OH235667   0.525   1.788   2.846  0.3665  0.1455 -0.1877
 4751TIP3    H135668   0.595   1.753   2.900  0.4347  0.9980  0.2953
 4751TIP3    H235669   0.458   1.720   2.847  0.0676  0.4167  1.5679
 4752TIP3   OH235670   6.107   4.380  11.501 -0.3392  0.3919  0.3087
 4752TIP3    H135671   6.176   4.327  11.462 -1.8269 -0.5051 -1.2533
 4752TIP3    H235672   6.133   4.470  11.483  1.1451  0.1666  1.1107
 4753TIP3   OH235673   3.310   2.510  13.291 -0.5247  0.2101  0.2079
 4753TIP3    H135674   3.286   2.575  13.357 -0.3922 -0.9189  1.4092
 4753TIP3    H235675   3.375   2.554  13.236 -1.9966  1.7982 -0.3554
 4754TIP3   OH235676   1.983   5.458   3.294  0.6571  0.1643 -0.2299
 4754TIP3    H135677   2.041   5.437   3.220  2.3632  0.5339  0.9419
 4754TIP3    H235678   1.908   5.400   3.283  1.6518 -0.9616 -1.3504
 4755TIP3   OH235679   4.612   4.983  11.682 -0.2397 -0.0267 -0.2540
 4755TIP3    H135680   4.659   5.001  11.763  1.7414  0.7345 -1.5042
 4755TIP3    H235681   4.521   4.971  11.709 -0.1156  2.7122  1.8336
 4756TIP3   OH235682   5.696   0.853  13.343 -0.2864 -0.2060  0.4896
 4756TIP3    H135683   5.756   0.783  13.319 -0.4881  0.1879 -1.2956
 4756TIP3    H235684   5.752   0.925  13.371  0.0808  0.0774 -0.9380
 4757TIP3   OH235685   3.247   0.433   3.496 -0.6841 -0.7399  0.3394
 4757TIP3    H135686   3.319   0.370   3.504 -1.3880 -1.5292  0.6720
 4757TIP3    H235687   3.213   0.441   3.585  0.9772  2.0957  0.8425
 4758TIP3   OH235688   3.024   0.552  11.991 -0.2415 -0.4191 -0.6342
 4758TIP3    H135689   3.041   0.618  11.923  1.4986 -1.3804 -1.1751
 4758TIP3    H235690   3.103   0.499  11.993 -0.2827 -0.4967  2.0912
 4759TIP3   OH235691   6.372   4.744  12.595  0.4027  0.6700 -0.1655
 4759TIP3    H135692   6.358   4.657  12.557  0.0023  0.2149  0.9643
 4759TIP3    H235693   6.466   4.745  12.617 -0.1684 -0.8831  2.9547
 4760TIP3   OH235694   2.062   3.806   4.560  0.1589 -0.7249  0.9074
 4760TIP3    H135695   2.019   3.853   4.632  1.3397  1.4636  0.2611
 4760TIP3    H235696   2.138   3.859   4.538  1.3629 -2.7629 -0.1898
 4761TIP3   OH235697   1.581   5.449   1.890 -0.5137 -0.2981 -0.7217
 4761TIP3    H135698   1.610   5.540   1.900  0.2559 -0.6846  0.8562
 4761TIP3    H235699   1.634   5.400   1.952 -4.5567 -1.0639  2.5286
 4762TIP3   OH235700   0.399   1.412   4.524  0.3173 -0.1474 -0.1640
 4762TIP3    H135701   0.480   1.460   4.538  0.1485  0.2749 -0.5873
 4762TIP3    H235702   0.375   1.379   4.611  1.3910 -1.0272 -0.1786
 4763TIP3   OH235703   1.069   4.133   1.779  0.7276  0.0048 -0.0204
 4763TIP3    H135704   1.054   4.092   1.694 -1.3975 -0.7934  0.6638
 4763TIP3    H235705   1.132   4.076   1.822  0.7676 -0.3540 -0.5395
 4764TIP3   OH235706   4.091   6.028   5.481  0.0477  0.0309 -0.1142
 4764TIP3    H135707   4.039   6.023   5.561 -0.1224  1.5995 -0.0960
 4764TIP3    H235708   4.092   6.121   5.459  1.1277 -0.2269 -1.2608
 4765TIP3   OH235709   4.486   0.296   6.209  0.3401 -0.1355  0.0587
 4765TIP3    H135710   4.507   0.388   6.229 -0.4709 -0.0688  0.6242
 4765TIP3    H235711   4.559   0.247   6.247  1.6464  0.3596 -1.6856
 4766TIP3   OH235712   3.575   4.240   6.791 -0.9209  0.4711  0.0637
 4766TIP3    H135713   3.667   4.264   6.779 -1.2461  1.6210 -0.3407
 4766TIP3    H235714   3.552   4.275   6.877 -0.6339 -1.0438  0.7927
 4767TIP3   OH235715   4.320   4.172  15.460  0.4644  0.4055 -0.6667
 4767TIP3    H135716   4.306   4.227  15.383 -1.4286  0.5710 -0.2523
 4767TIP3    H235717   4.254   4.201  15.522  1.1095 -0.6192  0.5348
 4768TIP3   OH235718   3.270   5.818   4.373  0.0595 -0.2180 -0.4809
 4768TIP3    H135719   3.198   5.861   4.326  0.8753  1.1816 -0.5291
 4768TIP3    H235720   3.299   5.883   4.437 -0.4624 -1.7800  1.4029
 4769TIP3   OH235721   6.440   0.537  13.097  0.0174 -0.3173 -0.3625
 4769TIP3    H135722   6.503   0.485  13.048 -0.3073 -1.4215  0.3493
 4769TIP3    H235723   6.454   0.627  13.068  0.5713 -0.8065 -1.6414
 4770TIP3   OH235724   2.911   2.358  15.818  0.9231 -0.0476 -0.6390
 4770TIP3    H135725   2.851   2.430  15.836  0.5460  0.3868 -3.2615
 4770TIP3    H235726   2.994   2.400  15.795  1.2426 -0.5260 -0.3911
 4771TIP3   OH235727   5.049   2.341  15.620  0.0939  0.5063  0.2730
 4771TIP3    H135728   5.069   2.277  15.552  0.5796 -0.3060  1.1660
 4771TIP3    H235729   5.102   2.418  15.597 -0.8042  0.7644 -1.0311
 4772TIP3   OH235730   3.696   5.870  16.530  0.0659 -0.3658 -0.0613
 4772TIP3    H135731   3.750   5.794  16.508  0.1602  0.0691 -1.4250
 4772TIP3    H235732   3.635   5.879  16.457 -0.3291  0.5329  0.3562
 4773TIP3   OH235733   5.265   5.316  15.570 -0.1866  0.1307  0.0946
 4773TIP3    H135734   5.317   5.257  15.517 -1.5443 -1.7321  0.7092
 4773TIP3    H235735   5.208   5.361  15.508  1.4177  1.4923 -0.4690
 4774TIP3   OH235736   1.083   2.488   6.071 -0.0848  0.5998 -0.2508
 4774TIP3    H135737   1.013   2.539   6.031  0.0276  0.8231 -0.1674
 4774TIP3    H235738   1.144   2.471   5.998 -0.0124  0.7767 -0.2328
 4775TIP3   OH235739   1.127   0.203  15.144  0.2402 -0.0088  0.1641
 4775TIP3    H135740   1.179   0.186  15.065 -0.7056  1.0164 -0.6966
 4775TIP3    H235741   1.149   0.293  15.168  0.8681 -0.4570  1.3628
 4776TIP3   OH235742   6.125   4.842  14.256 -0.2612  0.6443 -0.2076
 4776TIP3    H135743   6.195   4.886  14.303 -0.6207  2.4324 -1.2734
 4776TIP3    H235744   6.070   4.912  14.222 -1.6241 -0.6651 -0.8536
 4777TIP3   OH235745   2.546   1.778   2.003  0.0883 -0.1660  0.0151
 4777TIP3    H135746   2.583   1.692   1.984  0.8554 -0.2553  1.7701
 4777TIP3    H235747   2.451   1.763   2.003  0.2280 -1.4731  2.0615
 4778TIP3   OH235748   5.533   0.019  14.720 -0.0198  0.2759  0.2614
 4778TIP3    H135749   5.479   0.098  14.716 -0.1341  0.3208  1.8015
 4778TIP3    H235750   5.473  -0.052  14.696 -0.9414  0.2878  2.2518
 4779TIP3   OH235751   1.071   0.732   1.102 -0.0617 -0.0052  0.0211
 4779TIP3    H135752   1.013   0.807   1.092 -0.8877 -0.5717  0.4929
 4779TIP3    H235753   1.042   0.689   1.182  2.1366  0.6956  1.2950
 4780TIP3   OH235754   6.321   6.645  15.440 -0.2551 -0.3281  0.0274
 4780TIP3    H135755   6.307   6.608  15.353 -0.5255  1.5934 -0.7848
 4780TIP3    H235756   6.309   6.571  15.500  0.2935 -1.7673 -1.5660
 4781TIP3   OH235757   4.557   4.666  14.280 -0.3946  1.0427  0.3404
 4781TIP3    H135758   4.547   4.707  14.194 -0.3818  0.1325 -0.1094
 4781TIP3    H235759   4.473   4.679  14.323 -0.8988  0.2459 -0.3817
 4782TIP3   OH235760   4.496   0.539  13.343  0.0498  0.1123  0.6024
 4782TIP3    H135761   4.580   0.567  13.307  0.7682 -3.3349 -0.7098
 4782TIP3    H235762   4.515   0.518  13.435  0.2930  0.5922  0.6646
 4783TIP3   OH235763   1.771   6.482  14.805 -0.2292  0.0632 -0.0448
 4783TIP3    H135764   1.772   6.428  14.727  0.1216  0.6927 -0.4778
 4783TIP3    H235765   1.772   6.419  14.878 -1.8246 -0.5635 -0.5221
 4784TIP3   OH235766   6.000   5.069  12.519  0.0465  0.1115  0.0655
 4784TIP3    H135767   5.962   5.003  12.576 -0.2612 -0.8404 -1.1906
 4784TIP3    H235768   6.094   5.068  12.540  0.4167 -2.2513 -1.3398
 4785TIP3   OH235769   1.771   2.790  10.443  0.3031 -0.2802  0.2263
 4785TIP3    H135770   1.854   2.767  10.485 -0.3660 -1.8759  0.7430
 4785TIP3    H235771   1.706   2.733  10.484 -0.9847  0.5927 -0.5096
 4786TIP3   OH235772   0.589   0.020   0.157 -0.2220  1.1433 -0.2457
 4786TIP3    H135773   0.594  -0.014   0.068 -1.0525 -0.6309  0.3399
 4786TIP3    H235774   0.679   0.045   0.180  0.1847  0.5285 -1.1611
 4787TIP3   OH235775   0.127   2.902  13.240  0.4098  0.4629 -0.3678
 4787TIP3    H135776   0.120   2.806  13.236  1.3328  0.2244  2.0777
 4787TIP3    H235777   0.118   2.930  13.149  1.5197 -2.0576 -1.3534
 4788TIP3   OH235778   6.532   1.497   5.302  0.2763  0.5714  0.4182
 4788TIP3    H135779   6.492   1.439   5.366 -1.0958  0.9063 -0.1098
 4788TIP3    H235780   6.493   1.583   5.320 -0.2694  0.6363 -0.9513
 4789TIP3   OH235781   6.544   4.261  15.493 -0.0868  0.3267  0.5613
 4789TIP3    H135782   6.495   4.327  15.444 -0.4897 -0.5079 -0.1981
 4789TIP3    H235783   6.562   4.302  15.578 -1.7131  0.8257  0.6988
 4790TIP3   OH235784   5.305   4.452   3.696 -0.3845  0.4247  0.1921
 4790TIP3    H135785   5.284   4.544   3.713  3.4531  1.2895  1.2797
 4790TIP3    H235786   5.283   4.407   3.777  1.0122  1.1173  0.9863
 4791TIP3   OH235787   3.640   4.194  17.221 -0.6624 -0.2385 -0.8409
 4791TIP3    H135788   3.642   4.167  17.312 -0.4850  0.2563 -0.6972
 4791TIP3    H235789   3.670   4.117  17.172 -1.2004 -0.6537 -0.5218
 4792TIP3   OH235790   4.729   5.073   4.242 -0.2076  0.6434 -0.1289
 4792TIP3    H135791   4.737   4.984   4.206 -0.1683 -0.5895  2.7112
 4792TIP3    H235792   4.642   5.102   4.215  0.5175  0.6508 -2.7912
 4793TIP3   OH235793   2.691   1.951  15.993 -0.3699 -0.0456 -0.1023
 4793TIP3    H135794   2.761   2.012  15.969 -0.7670  0.1742 -0.6950
 4793TIP3    H235795   2.718   1.918  16.079 -0.4076  1.3506  0.4768
 4794TIP3   OH235796   3.148   1.819  11.935  0.2919  0.0869 -0.0129
 4794TIP3    H135797   3.133   1.798  11.843  0.5985  1.7294 -0.4726
 4794TIP3    H235798   3.124   1.739  11.982 -0.6131 -0.5362 -1.4504
 4795TIP3   OH235799   5.311   1.831  14.034 -0.1444  0.2150 -0.3388
 4795TIP3    H135800   5.270   1.750  14.065  0.0094 -0.0746 -0.8833
 4795TIP3    H235801   5.267   1.852  13.952  1.4701 -0.6857 -1.5050
 4796TIP3   OH235802   4.366   3.150   0.888 -0.6927  0.3535  0.0270
 4796TIP3    H135803   4.422   3.228   0.891 -1.3121  0.8302 -0.4912
 4796TIP3    H235804   4.377   3.109   0.974 -2.5368  2.5745  1.4528
 4797TIP3   OH235805   2.486   5.720   0.175  0.4705 -0.0761 -0.3145
 4797TIP3    H135806   2.528   5.710   0.090  0.4406  0.1554 -0.3567
 4797TIP3    H235807   2.553   5.760   0.230  0.5459 -0.3793 -0.1819
 4798TIP3   OH235808   0.112   6.114  14.297  1.0835 -0.2072 -0.3660
 4798TIP3    H135809   0.091   6.194  14.250  0.2281 -0.0815  0.2044
 4798TIP3    H235810   0.182   6.074  14.247  2.4801  1.5729  0.0624
 4799TIP3   OH235811   3.382   5.643  14.777 -0.1010 -0.5799  0.2780
 4799TIP3    H135812   3.433   5.705  14.724 -0.2475 -0.1989  0.5743
 4799TIP3    H235813   3.342   5.698  14.844 -1.9102 -0.6723 -0.6856
 4800TIP3   OH235814   0.157   2.160   0.541 -0.0335 -0.3785  0.3124
 4800TIP3    H135815   0.181   2.219   0.469  1.4487 -2.0025 -0.6094
 4800TIP3    H235816   0.089   2.103   0.504  0.0610 -0.6188  0.5036
 4801TIP3   OH235817   5.730   6.271   5.234  0.7576 -0.0820  0.0427
 4801TIP3    H135818   5.651   6.232   5.198  0.5864  1.5693 -1.5498
 4801TIP3    H235819   5.728   6.248   5.327 -1.8928  0.3653  0.1852
 4802TIP3   OH235820   4.673   4.834   4.454 -0.2767 -0.3556 -0.0253
 4802TIP3    H135821   4.662   4.770   4.383 -2.0075 -0.4350  0.2711
 4802TIP3    H235822   4.735   4.792   4.514  2.2235  0.2494 -2.0296
 4803TIP3   OH235823   3.270   1.699  15.819 -0.0443  0.1001  0.5288
 4803TIP3    H135824   3.341   1.756  15.848  2.0489 -0.7165 -2.4508
 4803TIP3    H235825   3.229   1.747  15.746 -2.1659  0.2338  1.7206
 4804TIP3   OH235826   3.145   0.065   0.839 -0.0584  0.6325  0.0859
 4804TIP3    H135827   3.206  -0.007   0.825  0.1885  1.1334 -1.6177
 4804TIP3    H235828   3.067   0.042   0.788 -0.8297  0.5906  1.2372
 4805TIP3   OH235829   0.027   5.773  16.119  0.7124 -0.0398 -0.3047
 4805TIP3    H135830   0.047   5.864  16.098  1.6875  0.0092  0.7574
 4805TIP3    H235831   0.111   5.727  16.114  0.0361 -1.2209 -2.2570
 4806TIP3   OH235832   2.393   0.126   2.584 -0.1375 -0.6023 -0.2350
 4806TIP3    H135833   2.340   0.098   2.659  0.8647  1.0668  1.1736
 4806TIP3    H235834   2.481   0.136   2.619  0.3172  0.4260 -1.5777
 4807TIP3   OH235835   0.709   4.707   4.073  0.1681  0.1193 -0.2126
 4807TIP3    H135836   0.801   4.695   4.047 -0.4645 -0.5934 -2.3564
 4807TIP3    H235837   0.678   4.618   4.093 -0.0914  0.3403  0.3733
 4808TIP3   OH235838   5.244   0.013   2.264 -0.1457 -0.2932 -0.7469
 4808TIP3    H135839   5.284   0.100   2.263  0.7800 -0.6958 -1.8280
 4808TIP3    H235840   5.243  -0.013   2.356  2.6497 -0.4823 -0.6866
 4809TIP3   OH235841   1.697   4.589   4.520  0.2497 -0.1899 -0.4362
 4809TIP3    H135842   1.712   4.683   4.511  3.5664 -0.4535  0.8540
 4809TIP3    H235843   1.775   4.548   4.482 -1.1892 -2.4685 -1.1584
 4810TIP3   OH235844   3.719   6.635  13.966  0.0790  0.0723 -0.2025
 4810TIP3    H135845   3.769   6.697  14.018 -1.0246 -0.2181  1.2615
 4810TIP3    H235846   3.728   6.667  13.876  0.9080  1.3732  0.3120
 4811TIP3   OH235847   1.283   2.173  15.517 -0.2873  0.7720  0.0498
 4811TIP3    H135848   1.279   2.225  15.436 -0.8375 -2.7068 -2.3539
 4811TIP3    H235849   1.206   2.201  15.567 -0.9094  1.8390 -1.4239
 4812TIP3   OH235850   5.997   0.974  13.363 -0.0299  0.3383  0.3041
 4812TIP3    H135851   6.033   0.890  13.334 -1.3281 -0.4104  0.7535
 4812TIP3    H235852   6.000   1.030  13.286 -2.8266 -1.4129 -1.2269
 4813TIP3   OH235853   4.918   0.505  16.342 -0.1078  0.2426  0.4935
 4813TIP3    H135854   4.976   0.455  16.285  2.5228  1.5251  1.8618
 4813TIP3    H235855   4.975   0.571  16.382 -2.7270  2.1936  1.2803
 4814TIP3   OH235856   3.036   4.116  11.474 -0.5762  0.0856 -0.2616
 4814TIP3    H135857   3.015   4.049  11.409 -0.3282 -1.3389  1.0431
 4814TIP3    H235858   2.951   4.156  11.495 -0.6407  0.6221 -1.5004
 4815TIP3   OH235859   1.683   4.152   3.646  0.2931  0.5438  0.7409
 4815TIP3    H135860   1.695   4.156   3.741  0.8023  0.0468  0.7058
 4815TIP3    H235861   1.746   4.215   3.611  0.6331  0.1897  0.7038
 4816TIP3   OH235862   2.710   5.307   6.078 -0.3801 -1.0834  0.0338
 4816TIP3    H135863   2.760   5.324   6.158  1.1910 -0.9156 -0.9408
 4816TIP3    H235864   2.627   5.271   6.109 -0.4957  0.5493  1.7912
 4817TIP3   OH235865   3.761   5.258  11.875  0.1743 -0.0816 -0.1738
 4817TIP3    H135866   3.725   5.345  11.857 -1.6832 -0.6790  0.3832
 4817TIP3    H235867   3.852   5.274  11.900  0.0501  1.6295 -0.6931
 4818TIP3   OH235868   5.146   0.910  13.898  0.6041  0.1022 -0.0529
 4818TIP3    H135869   5.142   0.885  13.806  1.7479  1.4173 -0.5034
 4818TIP3    H235870   5.091   0.846  13.944  1.7384 -1.9046 -1.3565
 4819TIP3   OH235871   4.493   4.271  12.595 -0.2324 -0.2232 -0.5169
 4819TIP3    H135872   4.526   4.360  12.598  1.4896 -0.7436 -1.7613
 4819TIP3    H235873   4.478   4.255  12.501  0.0074 -1.3795 -0.3739
 4820TIP3   OH235874   1.218   4.663  16.652  0.2235  0.4282 -0.3483
 4820TIP3    H135875   1.243   4.723  16.722  0.7757 -0.8248  0.5631
 4820TIP3    H235876   1.294   4.661  16.594 -0.6672  2.3886 -1.7124
 4821TIP3   OH235877   6.678   2.582  14.901 -0.1855  0.3084  0.3790
 4821TIP3    H135878   6.741   2.559  14.834 -1.3581  0.5837 -0.8708
 4821TIP3    H235879   6.670   2.503  14.955  1.5733  0.4381  0.8990
 4822TIP3   OH235880   1.872   1.008   5.516 -0.2065  0.0889 -0.5862
 4822TIP3    H135881   1.952   1.021   5.567  0.3832 -0.5565 -1.3210
 4822TIP3    H235882   1.815   1.081   5.542  0.0871 -0.1956  0.9477
 4823TIP3   OH235883   3.246   0.382  11.985 -0.4190 -0.1500 -0.3490
 4823TIP3    H135884   3.275   0.367  12.075 -0.9781 -1.7385 -0.4010
 4823TIP3    H235885   3.309   0.444  11.949  0.7799 -0.7676  0.6355
 4824TIP3   OH235886   6.230   2.323   6.526  0.2974 -0.7320 -0.1656
 4824TIP3    H135887   6.303   2.268   6.557  1.6512  0.6978 -0.6765
 4824TIP3    H235888   6.265   2.367   6.449 -0.8224  0.6503  0.0823
 4825TIP3   OH235889   4.705   0.144   6.012 -0.2758  0.1827 -0.2865
 4825TIP3    H135890   4.756   0.133   5.932  0.4961  1.4909  0.0163
 4825TIP3    H235891   4.616   0.163   5.981  0.1794  1.4799 -0.8657
 4826TIP3   OH235892   5.128   2.407   6.660 -0.4560  0.2459 -0.0705
 4826TIP3    H135893   5.219   2.429   6.679 -0.5910 -0.6943  1.9851
 4826TIP3    H235894   5.132   2.345   6.588  0.6000 -0.4328  0.5597
 4827TIP3   OH235895   0.303   4.638  16.139  0.6456  0.3744  0.2563
 4827TIP3    H135896   0.295   4.559  16.194 -0.3981 -0.3057 -0.8192
 4827TIP3    H235897   0.372   4.616  16.076 -1.5782 -0.9435 -1.9288
 4828TIP3   OH235898   3.272   4.944   4.857  0.3160 -0.0973  0.5011
 4828TIP3    H135899   3.282   5.019   4.915 -1.9597  3.3914 -3.0553
 4828TIP3    H235900   3.179   4.921   4.862  0.3450 -0.6024 -0.7352
 4829TIP3   OH235901   3.878   4.555   1.762  0.2011  0.2202 -0.4614
 4829TIP3    H135902   3.906   4.646   1.772  0.5784  0.2663 -1.6746
 4829TIP3    H235903   3.949   4.504   1.801  0.6571  0.4246 -0.9946
 4830TIP3   OH235904   1.328   1.129   3.229  0.2881  0.5020 -0.0499
 4830TIP3    H135905   1.379   1.054   3.261 -0.0608 -0.4797 -1.6867
 4830TIP3    H235906   1.368   1.150   3.145 -1.0717  0.6445 -0.6873
 4831TIP3   OH235907   6.471   5.278   2.659  0.4307  0.8798  0.6791
 4831TIP3    H135908   6.481   5.229   2.577 -2.3028 -2.0514  1.8671
 4831TIP3    H235909   6.536   5.240   2.717 -0.4973 -0.2002  1.0619
 4832TIP3   OH235910   2.632   3.911   4.101  0.2284  0.4024  0.1412
 4832TIP3    H135911   2.602   3.962   4.026  0.4693  0.0016 -0.2345
 4832TIP3    H235912   2.623   3.819   4.073 -0.6510  0.2126  0.9814
 4833TIP3   OH235913   4.995   0.935  12.016 -0.8678 -0.2428  0.0173
 4833TIP3    H135914   5.027   0.862  11.963 -1.4943  0.1302 -0.9003
 4833TIP3    H235915   4.997   1.010  11.957 -0.3246  0.4774  0.9176
 4834TIP3   OH235916   0.557   6.288   4.098  1.2674  0.1490 -0.2940
 4834TIP3    H135917   0.577   6.259   4.187 -1.4041 -2.1049 -0.2897
 4834TIP3    H235918   0.597   6.222   4.041 -1.5224 -1.5991 -0.4341
 4835TIP3   OH235919   1.037   3.214   0.677  0.1375  0.1655 -0.3540
 4835TIP3    H135920   0.967   3.149   0.671  1.8450 -1.6893 -1.3982
 4835TIP3    H235921   1.067   3.209   0.768 -0.5024  0.3747 -0.1237
 4836TIP3   OH235922   3.504   4.660   6.864  0.3739  1.1156  0.5751
 4836TIP3    H135923   3.595   4.677   6.886  0.0411  0.3290  2.8328
 4836TIP3    H235924   3.506   4.630   6.773  2.4252  0.6370  0.7359
 4837TIP3   OH235925   2.318   3.737  12.221  0.3277  0.0525  0.1687
 4837TIP3    H135926   2.363   3.776  12.296 -0.4190  0.0962  0.6036
 4837TIP3    H235927   2.240   3.696  12.258  1.2996 -2.2982 -0.1966
 4838TIP3   OH235928   1.133   4.407  10.851 -0.0945 -0.3975  0.0478
 4838TIP3    H135929   1.085   4.332  10.887 -0.8856  0.2858  0.4340
 4838TIP3    H235930   1.173   4.373  10.771  0.3186 -1.4796  0.6941
 4839TIP3   OH235931   2.384   2.533  12.111 -0.3370  0.6069 -0.1083
 4839TIP3    H135932   2.479   2.526  12.101 -0.2424  2.1580 -0.6763
 4839TIP3    H235933   2.360   2.607  12.055 -1.8674  0.3221  0.1360
 4840TIP3   OH235934   1.959   6.231  15.597 -0.4411 -0.0704  0.0177
 4840TIP3    H135935   2.036   6.275  15.561 -0.0042 -1.1737 -0.4377
 4840TIP3    H235936   1.976   6.229  15.692  0.2716 -0.6109 -0.1089
 4841TIP3   OH235937   4.327   2.722  14.355 -0.4880 -0.2800  0.1189
 4841TIP3    H135938   4.351   2.630  14.344 -2.8619 -0.9852  0.1081
 4841TIP3    H235939   4.348   2.742  14.446  0.2249 -0.7764  0.0692
 4842TIP3   OH235940   1.561   5.612  16.946 -0.1959  0.3502  0.0720
 4842TIP3    H135941   1.536   5.685  17.002 -0.4504  0.5019 -0.2379
 4842TIP3    H235942   1.530   5.636  16.859  1.9350  1.0222 -0.5505
 4843TIP3   OH235943   6.721   6.701   3.601  0.2811  0.1108  0.2612
 4843TIP3    H135944   6.765   6.774   3.557 -0.7799  0.8819  0.4269
 4843TIP3    H235945   6.630   6.706   3.570  0.3978 -1.7891 -0.5368
 4844TIP3   OH235946   5.885   5.226  16.039 -0.8653 -0.5691  0.0648
 4844TIP3    H135947   5.934   5.265  16.112 -1.8753 -1.5878  1.3241
 4844TIP3    H235948   5.876   5.298  15.977  1.1970 -0.0246  0.2883
 4845TIP3   OH235949   5.877   5.497   0.213  0.3269  0.0706  0.0150
 4845TIP3    H135950   5.844   5.576   0.171 -1.1878 -0.7948 -0.4969
 4845TIP3    H235951   5.938   5.460   0.149  1.4922  1.0818  0.4934
 4846TIP3   OH235952   6.759   0.920  12.564  0.0530 -0.3565  0.0556
 4846TIP3    H135953   6.765   0.856  12.493 -0.6686 -0.3039 -0.0558
 4846TIP3    H235954   6.797   0.875  12.640  0.6035 -0.4989 -0.2980
 4847TIP3   OH235955   0.127   1.276   0.995 -0.2329 -0.2648 -0.2731
 4847TIP3    H135956   0.082   1.193   1.013 -0.6000 -0.1193 -0.5137
 4847TIP3    H235957   0.093   1.337   1.060 -0.5534 -0.0953 -0.5981
 4848TIP3   OH235958   0.758   3.846   3.667  0.0530 -0.2134 -0.1188
 4848TIP3    H135959   0.795   3.915   3.612  0.4642 -0.8284 -0.6312
 4848TIP3    H235960   0.801   3.765   3.636 -0.9929 -0.8090 -0.0627
 4849TIP3   OH235961   0.877   5.500  13.682  0.5757  0.4073  0.0017
 4849TIP3    H135962   0.915   5.548  13.609  0.0817 -0.9120 -1.1504
 4849TIP3    H235963   0.804   5.556  13.712  1.5776  1.5632  0.3608
 4850TIP3   OH235964   1.463   2.114  13.197  0.2537  0.5283  0.3811
 4850TIP3    H135965   1.441   2.030  13.159  2.0282  1.4346 -2.9765
 4850TIP3    H235966   1.400   2.124  13.269 -0.9057 -2.9743  0.0530
 4851TIP3   OH235967   3.087   5.794   4.999  0.3181 -0.0682 -0.3391
 4851TIP3    H135968   3.054   5.808   4.910 -0.4077 -1.0295 -0.2505
 4851TIP3    H235969   3.033   5.851   5.054  1.7769  1.6768 -0.6497
 4852TIP3   OH235970   6.368   3.001  12.519 -0.2156 -0.4078  0.9069
 4852TIP3    H135971   6.275   2.983  12.531 -0.0253 -1.2136  1.2491
 4852TIP3    H235972   6.372   3.092  12.491 -1.2275 -0.8724 -0.8424
 4853TIP3   OH235973   5.645   1.210   6.166  0.1063  0.0279 -0.4325
 4853TIP3    H135974   5.604   1.158   6.235 -2.9023  1.7096 -0.7915
 4853TIP3    H235975   5.716   1.258   6.210  2.0793 -3.1117  0.1759
 4854TIP3   OH235976   6.066   6.351  14.741 -0.0825 -0.8378  0.0696
 4854TIP3    H135977   6.045   6.273  14.793  1.6409  0.3979  2.8505
 4854TIP3    H235978   6.161   6.359  14.747 -0.2935  2.3080  1.3142
 4855TIP3   OH235979   3.689   2.810   4.190 -0.5224 -0.1026 -0.3810
 4855TIP3    H135980   3.604   2.769   4.171 -1.0096  0.9238 -0.4848
 4855TIP3    H235981   3.682   2.840   4.280 -1.1538  2.0280 -1.0913
 4856TIP3   OH235982   6.139   3.720  15.212 -0.2630 -0.6059  0.2138
 4856TIP3    H135983   6.085   3.650  15.247  0.6010 -0.7776  1.2336
 4856TIP3    H235984   6.223   3.679  15.193 -0.1982 -0.1527 -0.5340
 4857TIP3   OH235985   3.787   6.589  16.474  0.4313  0.1403 -0.3325
 4857TIP3    H135986   3.702   6.628  16.453  0.7243  1.6175  1.0613
 4857TIP3    H235987   3.848   6.631  16.414  0.6065  1.1928  0.5702
 4858TIP3   OH235988   5.759   2.183   0.683  0.2200 -0.1884  0.5791
 4858TIP3    H135989   5.679   2.159   0.730  0.3308 -0.2193  0.7532
 4858TIP3    H235990   5.800   2.249   0.739  1.2995 -1.5556  1.4739
 4859TIP3   OH235991   0.734   5.188   5.229 -0.1915  0.7458 -0.4404
 4859TIP3    H135992   0.685   5.258   5.272  0.1010  0.2321  0.7600
 4859TIP3    H235993   0.774   5.139   5.300  2.6784  1.5311 -1.3663
 4860TIP3   OH235994   1.696   6.357   0.629 -0.0398 -0.2715 -0.0752
 4860TIP3    H135995   1.621   6.414   0.616  1.0797  1.0958 -0.8267
 4860TIP3    H235996   1.703   6.309   0.546 -0.6108 -1.0804  0.3312
 4861TIP3   OH235997   2.589   5.477   0.642 -0.3770 -0.2700  1.4027
 4861TIP3    H135998   2.523   5.425   0.689 -0.3377 -1.4743  0.1992
 4861TIP3    H235999   2.541   5.553   0.609 -1.7963 -2.1823 -1.3137
 4862TIP3   OH236000   0.935   1.397  12.037  0.0699  0.1867 -0.0815
 4862TIP3    H136001   0.988   1.327  11.998  0.8693  0.4355  0.5522
 4862TIP3    H236002   0.996   1.447  12.091 -0.6633  0.9041  0.1036
 4863TIP3   OH236003   2.232   5.662  12.636 -0.1885 -0.4967  0.1684
 4863TIP3    H136004   2.214   5.751  12.664 -1.4401 -1.1838  1.7072
 4863TIP3    H236005   2.279   5.623  12.709  1.0666 -0.8860 -0.8203
 4864TIP3   OH236006   3.664   2.872   5.948  0.1280 -0.1682 -0.3764
 4864TIP3    H136007   3.681   2.779   5.964  0.0274  0.0341  0.9559
 4864TIP3    H236008   3.590   2.873   5.887  0.6531 -0.9576 -1.0549
 4865TIP3   OH236009   4.656   5.017  12.907  0.4048  0.2463 -1.0101
 4865TIP3    H136010   4.689   5.100  12.942  2.2314 -0.6164 -0.5297
 4865TIP3    H236011   4.575   5.001  12.955  1.5440  0.3472  1.0988
 4866TIP3   OH236012   1.291   4.961   3.659  0.0374  0.1801 -0.2653
 4866TIP3    H136013   1.369   4.920   3.696 -1.3822 -1.1280  1.4690
 4866TIP3    H236014   1.282   5.043   3.707 -0.5613 -0.4701  0.7683
 4867TIP3   OH236015   2.610   1.948   5.989 -0.2419  0.4947  0.4859
 4867TIP3    H136016   2.600   2.043   5.999 -0.5293  0.4341  0.7960
 4867TIP3    H236017   2.523   1.913   6.005 -0.0533  0.1455  0.7659
 4868TIP3   OH236018   6.228   4.236   6.497  0.4405 -0.2421  0.1407
 4868TIP3    H136019   6.297   4.302   6.494 -0.0133  0.2441 -2.6363
 4868TIP3    H236020   6.154   4.279   6.540  0.4746  0.7688 -0.7750
 4869TIP3   OH236021   1.045   5.368  13.089 -0.6816  0.9603 -0.0476
 4869TIP3    H136022   1.008   5.447  13.128 -2.3860  0.1556  0.0882
 4869TIP3    H236023   0.984   5.298  13.115  1.3900 -0.6156  0.8099
 4870TIP3   OH236024   6.057   4.968   5.037  0.4312 -0.3073  0.3315
 4870TIP3    H136025   6.128   4.948   5.097 -1.5805 -1.5972  2.4570
 4870TIP3    H236026   6.030   4.883   5.003 -0.5538  0.0664  0.1526
 4871TIP3   OH236027   3.444   2.636  16.676  0.4312 -0.0748 -0.1641
 4871TIP3    H136028   3.435   2.591  16.592 -0.3975 -0.0305 -0.1058
 4871TIP3    H236029   3.396   2.718  16.664 -2.1334 -1.2545  1.2106
 4872TIP3   OH236030   2.347   1.926   6.151  0.5269  0.7373  0.3618
 4872TIP3    H136031   2.323   1.836   6.174  0.2406  1.0185  1.1838
 4872TIP3    H236032   2.264   1.968   6.128  0.7318  0.6358 -0.6022
 4873TIP3   OH236033   2.244   4.999  14.471  0.0129 -0.1272  0.4125
 4873TIP3    H136034   2.195   5.075  14.502  0.5865  1.0533 -1.3852
 4873TIP3    H236035   2.304   5.035  14.406  0.3544 -2.1300 -0.4430
 4874TIP3   OH236036   5.963   1.682  13.688 -0.1055  0.4264  0.3487
 4874TIP3    H136037   5.993   1.621  13.621 -0.1490  0.3674  0.3827
 4874TIP3    H236038   5.880   1.717  13.654 -0.1572  0.3524  0.3977
 4875TIP3   OH236039   3.103   4.210  12.500  0.3340 -0.7385  0.2347
 4875TIP3    H136040   3.099   4.241  12.410 -0.8305 -0.5127  0.3502
 4875TIP3    H236041   3.033   4.145  12.507 -0.5913  0.3280  1.3506
 4876TIP3   OH236042   3.945   4.120   1.576  0.4227 -0.6306  0.1196
 4876TIP3    H136043   4.004   4.053   1.612  0.3900 -0.5360  0.3476
 4876TIP3    H236044   3.890   4.145   1.650  0.8277  0.0787  0.1853
 4877TIP3   OH236045   1.354   5.073  17.163 -0.1571 -0.3019  0.1944
 4877TIP3    H136046   1.298   5.025  17.102  0.4041 -0.9760  0.1970
 4877TIP3    H236047   1.439   5.030  17.157  0.3626  0.6995  0.2124
 4878TIP3   OH236048   5.511   5.423  16.934  0.1766 -0.4377  0.3353
 4878TIP3    H136049   5.504   5.382  17.019  0.5627  0.1154  0.6449
 4878TIP3    H236050   5.603   5.452  16.929  0.0779 -0.1908 -0.1334
 4879TIP3   OH236051   3.373   4.303   1.356  0.0306  0.0482  0.4145
 4879TIP3    H136052   3.306   4.244   1.324 -0.9856  2.2516 -1.9030
 4879TIP3    H236053   3.349   4.321   1.447 -5.2221  3.7814 -1.2192
 4880TIP3   OH236054   1.885   3.009  15.266  0.3343 -0.2406 -0.0203
 4880TIP3    H136055   1.957   2.950  15.244 -0.7244 -1.3444 -0.7264
 4880TIP3    H236056   1.861   3.049  15.182 -0.0715 -0.1333  0.1447
 4881TIP3   OH236057   1.718   2.633   2.258  0.0070 -0.2192 -0.1317
 4881TIP3    H136058   1.675   2.696   2.316 -0.5348 -1.9225  1.4048
 4881TIP3    H236059   1.798   2.677   2.229 -0.7135  1.4311  0.3189
 4882TIP3   OH236060   3.411   0.913  15.476  0.2592  0.1735  0.5335
 4882TIP3    H136061   3.487   0.929  15.421  0.1437 -4.0742 -1.2050
 4882TIP3    H236062   3.361   0.995  15.472  1.6950  1.0719 -3.3991
 4883TIP3   OH236063   3.639   0.934   1.818  0.1616  0.3289 -0.4022
 4883TIP3    H136064   3.572   0.867   1.835 -0.2998  0.3374 -2.0437
 4883TIP3    H236065   3.667   0.962   1.906  0.0089 -1.6324  0.3309
 4884TIP3   OH236066   1.865   5.261  14.407  0.2029  0.1952  0.5053
 4884TIP3    H136067   1.852   5.321  14.480 -1.5533  0.9403 -0.3274
 4884TIP3    H236068   1.797   5.194  14.418 -2.0716  1.8912 -1.8473
 4885TIP3   OH236069   2.175   4.222  13.992 -0.6015  0.4665  0.8446
 4885TIP3    H136070   2.112   4.294  14.000 -2.0062 -0.7181  0.7722
 4885TIP3    H236071   2.123   4.143  14.007  0.7947 -0.5789  0.3526
 4886TIP3   OH236072   5.946   5.999  15.972 -0.0781 -0.6753 -0.4897
 4886TIP3    H136073   5.973   5.920  15.924  0.9117 -0.4257 -0.3607
 4886TIP3    H236074   5.955   5.974  16.064  0.6752 -0.2752 -0.4490
 4887TIP3   OH236075   2.666   4.563  14.581  0.3174  0.8857 -0.7543
 4887TIP3    H136076   2.742   4.601  14.536  0.1445  1.2419 -0.7474
 4887TIP3    H236077   2.591   4.613  14.548  0.2283  1.3948  0.1906
 4888TIP3   OH236078   6.416   4.778   0.351 -0.1333 -0.2312 -0.0905
 4888TIP3    H136079   6.389   4.691   0.320  1.6251 -1.5996  1.9250
 4888TIP3    H236080   6.382   4.783   0.440  0.8760  0.6127  0.2581
 4889TIP3   OH236081   2.568   1.902   1.341 -0.0976  0.2314 -0.6438
 4889TIP3    H136082   2.656   1.937   1.354  0.1905 -0.3477 -1.0023
 4889TIP3    H236083   2.530   1.900   1.429  0.0613  0.9475 -0.5529
 4890TIP3   OH236084   0.719   0.385   4.539  0.0011  0.0120  0.4242
 4890TIP3    H136085   0.758   0.445   4.476  0.6458  0.1536  0.9451
 4890TIP3    H236086   0.633   0.421   4.558 -0.9659 -0.9677 -1.6987
 4891TIP3   OH236087   1.476   1.911  12.987  0.5847  0.0614  0.0631
 4891TIP3    H136088   1.465   1.963  12.907  2.4609 -2.2639 -1.8739
 4891TIP3    H236089   1.569   1.891  12.989  0.1867 -1.8805  1.5506
 4892TIP3   OH236090   0.248   6.240  15.443 -0.0847  0.0325  0.5029
 4892TIP3    H136091   0.155   6.233  15.420 -0.3394  0.4308  1.3553
 4892TIP3    H236092   0.264   6.335  15.446  0.5689 -0.0337 -0.4421
 4893TIP3   OH236093   6.546   3.662  14.931 -0.1375 -0.4948 -0.5199
 4893TIP3    H136094   6.564   3.727  14.863 -0.7578  0.7993  0.4949
 4893TIP3    H236095   6.633   3.637  14.964  0.1013  0.9400  0.0455
 4894TIP3   OH236096   5.224   3.300   2.968  0.4648  0.3108 -0.4498
 4894TIP3    H136097   5.134   3.304   2.936 -0.2510 -1.1902  1.2335
 4894TIP3    H236098   5.233   3.377   3.024 -0.0142  0.0912 -0.0643
 4895TIP3   OH236099   0.575   3.103   5.793 -0.5136  0.1294 -0.1242
 4895TIP3    H136100   0.600   3.089   5.701 -2.2530 -1.2830 -0.4303
 4895TIP3    H236101   0.619   3.032   5.840 -2.2935 -1.2358 -0.4056
 4896TIP3   OH236102   1.684   6.267  10.553 -0.0460  0.5503 -0.1834
 4896TIP3    H136103   1.755   6.291  10.613  0.8532 -1.6214 -0.3009
 4896TIP3    H236104   1.607   6.310  10.590  0.8956  1.0874  1.2663
 4897TIP3   OH236105   5.908   3.374   0.713 -0.3168 -0.6565  0.3515
 4897TIP3    H136106   5.998   3.382   0.745 -0.9781  0.7516  1.9930
 4897TIP3    H236107   5.906   3.290   0.668  2.0655 -0.2973 -0.5745
 4898TIP3   OH236108   5.776   4.309  12.641 -0.3564  0.3899  0.0562
 4898TIP3    H136109   5.779   4.360  12.560 -0.8803 -1.9059 -1.5247
 4898TIP3    H236110   5.768   4.218  12.612 -2.6455 -0.4154  2.6764
 4899TIP3   OH236111   5.770   5.268   0.331  0.4732 -0.1438  0.3170
 4899TIP3    H136112   5.816   5.338   0.286 -2.0748  0.4237 -1.5986
 4899TIP3    H236113   5.788   5.284   0.424  2.4502  1.1598 -0.2266
 4900TIP3   OH236114   4.997   1.865   1.931  0.2327  0.4487  0.0800
 4900TIP3    H136115   5.084   1.843   1.897  0.2656 -0.6262  0.7968
 4900TIP3    H236116   4.983   1.803   2.003 -0.6615  1.3451  0.7109
 4901TIP3   OH236117   3.749   4.637   2.778 -0.2653 -0.5170  0.0632
 4901TIP3    H136118   3.668   4.684   2.797 -0.1474  0.1085 -0.9179
 4901TIP3    H236119   3.811   4.705   2.754  0.5111 -1.0093  0.6102
 4902TIP3   OH236120   5.018   1.488   1.667 -0.1142  0.0922 -0.2747
 4902TIP3    H136121   4.958   1.561   1.655 -0.0336  0.3705  0.9024
 4902TIP3    H236122   5.029   1.480   1.762  1.3588 -0.2374 -0.4382
 4903TIP3   OH236123   4.853   6.566  11.494 -0.1690  0.4051 -0.3734
 4903TIP3    H136124   4.840   6.577  11.588  1.1379 -2.2561  0.2409
 4903TIP3    H236125   4.774   6.523  11.464 -0.3689  0.7778 -0.3809
 4904TIP3   OH236126   0.599   4.885  11.471  0.7478 -0.8137 -0.0582
 4904TIP3    H136127   0.515   4.874  11.427  0.5780 -2.6991  0.6108
 4904TIP3    H236128   0.623   4.796  11.498  2.6522 -0.2235  0.3245
 4905TIP3   OH236129   0.024   0.493   2.143  0.6274  0.3969 -0.3865
 4905TIP3    H136130  -0.058   0.466   2.102 -0.3972  0.4535  1.4796
 4905TIP3    H236131   0.013   0.586   2.161 -0.2210 -0.1458  2.5043
 4906TIP3   OH236132   1.880   4.654  14.223 -0.6000  0.9003  0.1441
 4906TIP3    H136133   1.833   4.681  14.144  0.8537  2.4526 -0.2451
 4906TIP3    H236134   1.868   4.559  14.227 -1.0388  0.8430 -1.7109
 4907TIP3   OH236135   6.730   4.293  17.357 -0.3127  0.0474 -0.5183
 4907TIP3    H136136   6.664   4.362  17.363  0.8367  1.1405 -0.1330
 4907TIP3    H236137   6.780   4.314  17.278  2.4437  1.9228  1.5440
 4908TIP3   OH236138   1.479   6.212   1.901 -0.3860  0.6017 -0.5087
 4908TIP3    H136139   1.564   6.224   1.945  0.5470  0.0583 -2.0651
 4908TIP3    H236140   1.439   6.139   1.948  0.4149  0.2791 -0.2921
 4909TIP3   OH236141   1.161   6.641  14.541 -0.3569  0.2385  0.0445
 4909TIP3    H136142   1.120   6.713  14.494 -0.7318  0.5199  0.7748
 4909TIP3    H236143   1.121   6.644  14.628 -2.2043 -2.3529 -0.5925
 4910TIP3   OH236144   0.252   2.152  11.549  0.4733 -0.0160  0.1818
 4910TIP3    H136145   0.285   2.234  11.512 -1.3263  0.5321 -0.3243
 4910TIP3    H236146   0.169   2.137  11.503 -1.1445 -0.1061  2.9027
 4911TIP3   OH236147   1.984   0.386  15.581  0.4816 -0.2650 -0.8027
 4911TIP3    H136148   1.978   0.382  15.485 -0.9915 -0.3797 -0.7388
 4911TIP3    H236149   1.951   0.474  15.602  0.6761 -0.2923 -0.3873
 4912TIP3   OH236150   6.597   1.501   0.484 -0.4433 -0.9322  0.0016
 4912TIP3    H136151   6.581   1.511   0.390  1.0911  0.7634 -0.1239
 4912TIP3    H236152   6.618   1.408   0.495 -1.4733 -1.3426 -1.1576
 4913TIP3   OH236153   1.854   5.759  17.310 -0.3671 -0.0867  0.1781
 4913TIP3    H136154   1.852   5.665  17.324  1.0395 -0.2315 -0.3797
 4913TIP3    H236155   1.843   5.797  17.397  1.0949 -0.8194  0.7158
 4914TIP3   OH236156   3.143   5.027  13.271  0.6329 -0.1079 -0.2556
 4914TIP3    H136157   3.215   4.989  13.221 -0.1354  0.1929 -1.6442
 4914TIP3    H236158   3.079   4.957  13.278  1.3178 -0.5915  1.5842
 4915TIP3   OH236159   3.138   4.384  16.890  0.0417 -0.2862 -0.3839
 4915TIP3    H136160   3.140   4.387  16.985  1.0002 -1.7706 -0.3223
 4915TIP3    H236161   3.231   4.383  16.864 -0.2058 -0.6084 -1.2916
 4916TIP3   OH236162   6.541   5.217   0.680  0.2832  0.1231  0.4702
 4916TIP3    H136163   6.496   5.271   0.745 -1.1813 -0.0192 -0.3886
 4916TIP3    H236164   6.628   5.256   0.673 -0.5631  2.0716  0.2324
 4917TIP3   OH236165   2.061   0.862   4.803  0.3379  0.5415 -0.1193
 4917TIP3    H136166   1.990   0.869   4.868  0.3192  0.6449 -0.1500
 4917TIP3    H236167   2.026   0.804   4.736 -0.4974  2.1602 -1.1335
 4918TIP3   OH236168   4.689   2.882  12.244 -0.6982  0.0220 -0.1078
 4918TIP3    H136169   4.748   2.822  12.198 -0.6671  0.4935 -0.6948
 4918TIP3    H236170   4.739   2.912  12.320  0.1414  1.0264 -1.0205
 4919TIP3   OH236171   0.072   4.588   2.819 -0.2351  0.0309 -0.7403
 4919TIP3    H136172   0.059   4.527   2.891  0.4414 -1.2077 -1.6237
 4919TIP3    H236173  -0.015   4.622   2.800 -0.4114  0.4716  0.6998
 4920TIP3   OH236174   0.711   0.341   5.788 -0.2234  0.5363 -0.9825
 4920TIP3    H136175   0.770   0.335   5.863 -0.8040  1.3038 -0.4498
 4920TIP3    H236176   0.746   0.277   5.725  0.7738  0.4996 -0.4170
 4921TIP3   OH236177   3.313   3.393  16.492 -0.0829  0.0373 -0.1686
 4921TIP3    H136178   3.262   3.321  16.530  2.2514 -1.3468  0.5575
 4921TIP3    H236179   3.277   3.472  16.533 -1.7914 -0.8215  0.0867
 4922TIP3   OH236180   3.914   5.382  15.346  0.0545 -0.3794  0.8317
 4922TIP3    H136181   3.907   5.438  15.423 -0.3922  2.0314 -0.8474
 4922TIP3    H236182   4.008   5.374  15.330  0.1053  0.9945  0.3705
 4923TIP3   OH236183   3.128   2.861   2.261  0.3809 -0.0867 -0.4277
 4923TIP3    H136184   3.036   2.839   2.246  0.0642 -1.2065  2.4625
 4923TIP3    H236185   3.126   2.916   2.340  2.1834  0.1508 -0.5136
 4924TIP3   OH236186   2.000   3.516   2.127 -0.0655 -0.0951  0.0388
 4924TIP3    H136187   1.928   3.458   2.152 -0.3700  0.0336 -0.5297
 4924TIP3    H236188   2.077   3.458   2.125  0.0060 -0.0804  1.3998
 4925TIP3   OH236189   4.716   4.214   4.116  0.2776 -0.0906 -0.3182
 4925TIP3    H136190   4.701   4.203   4.023 -1.1880 -1.2108  0.0084
 4925TIP3    H236191   4.636   4.257   4.149 -0.1017 -1.4538  0.6789
 4926TIP3   OH236192   3.227   1.608  15.123  0.2873 -0.1106  0.1977
 4926TIP3    H136193   3.265   1.666  15.056  0.5171 -0.3497  0.1215
 4926TIP3    H236194   3.141   1.585  15.088  0.8534 -1.1565 -0.5707
 4927TIP3   OH236195   5.737   6.572  14.728 -0.4917  0.2456  0.2177
 4927TIP3    H136196   5.821   6.598  14.691 -1.4383  1.0915 -1.4515
 4927TIP3    H236197   5.672   6.623  14.679 -1.8630  1.4470  3.0441
 4928TIP3   OH236198   1.488   6.346  11.014 -0.0739 -0.3929 -0.0740
 4928TIP3    H136199   1.443   6.431  11.016  0.8191  0.0929  0.0583
 4928TIP3    H236200   1.479   6.312  11.103 -0.2639 -0.3495 -0.0751
 4929TIP3   OH236201   6.300   1.021  15.700 -0.4090 -0.3388  0.4874
 4929TIP3    H136202   6.376   1.048  15.648 -0.2498 -1.1037  0.3022
 4929TIP3    H236203   6.304   1.075  15.779 -1.2250  1.5778 -0.7086
 4930TIP3   OH236204   4.769   2.681   2.854 -0.1066 -0.9195  0.6658
 4930TIP3    H136205   4.714   2.619   2.901  0.8264 -2.0948  0.2458
 4930TIP3    H236206   4.800   2.742   2.921 -1.1572 -0.7973  1.0543
 4931TIP3   OH236207   4.002   3.886   5.042  0.4724  0.1563 -0.0737
 4931TIP3    H136208   4.023   3.821   4.975 -1.7250 -0.5963 -0.1145
 4931TIP3    H236209   4.074   3.880   5.105  1.2927 -0.9311 -1.0802
 4932TIP3   OH236210   0.435   0.157   0.837  0.4874 -0.1751  0.2446
 4932TIP3    H136211   0.429   0.063   0.821 -1.9764 -0.1906  0.9243
 4932TIP3    H236212   0.472   0.164   0.925 -0.1696 -0.5430  0.5533
 4933TIP3   OH236213   4.134   4.152  16.036 -0.0709 -0.0976  0.3467
 4933TIP3    H136214   4.201   4.120  16.096  0.2107  0.6011  0.4178
 4933TIP3    H236215   4.156   4.245  16.023 -1.5270  0.3695  1.0645
 4934TIP3   OH236216   6.620   1.450   3.446  0.3522 -0.2550 -0.1151
 4934TIP3    H136217   6.528   1.457   3.424  0.4374  0.4829 -0.2825
 4934TIP3    H236218   6.661   1.414   3.368  0.9097  3.8848 -2.0363
 4935TIP3   OH236219   1.064   0.942  14.221  0.0665  0.4579 -0.0763
 4935TIP3    H136220   1.032   0.855  14.197  2.3632 -0.7962  1.1373
 4935TIP3    H236221   1.138   0.957  14.163  1.6029  0.2050  1.7275
 4936TIP3   OH236222   3.382   2.007   0.216 -0.3020  0.4421  0.1561
 4936TIP3    H136223   3.301   2.008   0.165 -0.0958  2.4095 -0.2082
 4936TIP3    H236224   3.425   2.091   0.196  1.3388 -0.1111  1.1160
 4937TIP3   OH236225   0.053   4.945   1.907  0.1881  0.1216  0.1895
 4937TIP3    H136226   0.055   4.919   1.815  0.4655 -2.8110  0.9213
 4937TIP3    H236227   0.144   4.961   1.930  0.1584  0.4803  0.0676
 4938TIP3   OH236228   0.183   0.360   0.599  0.1393  0.4022  0.1024
 4938TIP3    H136229   0.187   0.414   0.519 -0.0438  0.1432 -0.0836
 4938TIP3    H236230   0.180   0.270   0.567 -1.2258  0.3320  0.3565
 4939TIP3   OH236231   2.903   3.780  14.958  0.0488 -0.2305 -0.4066
 4939TIP3    H136232   2.811   3.805  14.960  0.3512  1.0208 -1.2189
 4939TIP3    H236233   2.906   3.697  15.005 -1.5373 -0.4411 -0.6228
 4940TIP3   OH236234   0.889   2.214   3.187  0.6263 -0.0432 -0.7372
 4940TIP3    H136235   0.875   2.143   3.123  1.6337 -1.6731  0.7632
 4940TIP3    H236236   0.979   2.243   3.172  0.2447  0.9157 -1.2900
 4941TIP3   OH236237   4.850   3.049  16.489 -0.4692 -0.6039 -0.3612
 4941TIP3    H136238   4.790   3.048  16.414 -0.4524 -1.2515 -0.3694
 4941TIP3    H236239   4.894   2.965  16.486  0.3952 -0.1599 -0.3019
 4942TIP3   OH236240   3.048   2.209  13.524 -0.2194  0.4186  0.2110
 4942TIP3    H136241   3.091   2.151  13.460 -2.4798  0.9775 -1.9722
 4942TIP3    H236242   2.998   2.149  13.580 -2.0074  0.0884 -1.6115
 4943TIP3   OH236243   3.653   2.898   4.449  0.7412  0.0690 -0.4506
 4943TIP3    H136244   3.602   2.977   4.433  3.4670  1.9033 -0.8071
 4943TIP3    H236245   3.713   2.922   4.520  0.8844 -2.0708  0.2226
 4944TIP3   OH236246   4.168   1.667   1.447 -0.1437 -0.2222  0.8697
 4944TIP3    H136247   4.222   1.718   1.386 -1.0316 -0.5709 -0.2550
 4944TIP3    H236248   4.087   1.717   1.454 -0.4244 -0.6898  0.9817
 4945TIP3   OH236249   1.441   0.403   3.614 -0.2366 -0.5014  0.0560
 4945TIP3    H136250   1.497   0.332   3.582  0.3206 -0.3636  0.7013
 4945TIP3    H236251   1.476   0.482   3.572 -0.3557 -0.5007 -0.0427
 4946TIP3   OH236252   0.324   1.960   3.331 -0.6116  0.2767 -0.2523
 4946TIP3    H136253   0.380   1.882   3.326 -0.2915  0.2751  2.3508
 4946TIP3    H236254   0.332   2.000   3.244 -0.5203 -2.3736 -1.5513
 4947TIP3   OH236255   3.756   2.362  13.566 -0.7546 -0.1916  0.4568
 4947TIP3    H136256   3.791   2.392  13.482  0.8708 -1.7531  0.5335
 4947TIP3    H236257   3.734   2.443  13.613  2.7738  0.9617  0.3856
 4948TIP3   OH236258   1.145   3.776   3.099  0.2664  0.1668 -1.0161
 4948TIP3    H136259   1.135   3.825   3.017 -1.4981  2.1240  0.2709
 4948TIP3    H236260   1.223   3.814   3.139  1.0365 -0.6812 -1.6490
 4949TIP3   OH236261   4.530   2.798  14.200 -0.0214 -0.2100 -0.6338
 4949TIP3    H136262   4.536   2.710  14.162  0.7886 -0.7972  0.8065
 4949TIP3    H236263   4.468   2.788  14.273  1.2404  0.0289  0.5042
 4950TIP3   OH236264   0.478   3.271  16.250 -0.4764 -0.3425  0.3657
 4950TIP3    H136265   0.553   3.276  16.190 -0.9569 -1.8727 -0.3933
 4950TIP3    H236266   0.508   3.315  16.329  1.3639 -1.2217  0.2054
 4951TIP3   OH236267   2.593   1.224   5.180  0.7184 -0.2267  0.5141
 4951TIP3    H136268   2.645   1.300   5.153 -0.0343  0.2605  0.3803
 4951TIP3    H236269   2.655   1.152   5.185  1.5208  0.4843  0.9996
 4952TIP3   OH236270   2.235   2.765   3.895 -0.2338  0.5120  0.1112
 4952TIP3    H136271   2.268   2.695   3.839 -4.1193 -2.5489  1.1732
 4952TIP3    H236272   2.173   2.813   3.840  0.6497  1.6680  0.0825
 4953TIP3   OH236273   0.702   2.250   5.183 -0.2061 -0.2286 -0.4102
 4953TIP3    H136274   0.783   2.294   5.156 -0.6898 -0.0080 -1.6035
 4953TIP3    H236275   0.635   2.319   5.176 -0.7672 -0.8332 -1.0729
 4954TIP3   OH236276   2.045   3.410   0.386 -0.2811 -0.0978  0.0429
 4954TIP3    H136277   1.971   3.371   0.433  0.5808  1.1977  2.7195
 4954TIP3    H236278   2.023   3.502   0.379  1.1927  0.4152  1.3473
 4955TIP3   OH236279   5.027   6.485  12.404 -0.1405  0.4369 -0.7694
 4955TIP3    H136280   5.069   6.541  12.339 -0.1528  1.2698 -0.0685
 4955TIP3    H236281   4.991   6.545  12.468 -0.9238 -0.3391 -0.4589
 4956TIP3   OH236282   1.251   6.232  17.102  0.6822 -0.1515  0.4062
 4956TIP3    H136283   1.321   6.271  17.050  0.6519  0.4886  0.8376
 4956TIP3    H236284   1.290   6.154  17.140  1.5124  0.7841  1.5322
 4957TIP3   OH236285   2.893   3.858   0.414  0.2441  0.4355  0.0194
 4957TIP3    H136286   2.956   3.875   0.485 -0.6199 -1.4725  1.3485
 4957TIP3    H236287   2.811   3.895   0.446  0.3321  1.5579 -1.0225
 4958TIP3   OH236288   6.437   5.696  17.287  0.7083  0.5962  0.4838
 4958TIP3    H136289   6.385   5.623  17.323  1.8616 -0.4459  0.1148
 4958TIP3    H236290   6.402   5.710  17.199  1.7329 -0.8549 -0.1913
 4959TIP3   OH236291   5.550   3.758   0.778 -0.3952 -0.3775  0.3979
 4959TIP3    H136292   5.641   3.729   0.775 -0.6602 -1.4126  1.7316
 4959TIP3    H236293   5.548   3.822   0.849 -0.7856 -0.6331  0.6162
 4960TIP3   OH236294   2.030   1.863   3.429  0.3928 -0.4767 -0.3369
 4960TIP3    H136295   1.987   1.869   3.344  0.2580 -1.5072 -0.3472
 4960TIP3    H236296   2.104   1.804   3.415  2.4613  1.9697 -0.5624
 4961TIP3   OH236297   5.441   3.758   3.304  0.2707 -0.4054 -0.5308
 4961TIP3    H136298   5.441   3.676   3.353 -1.4715  0.0684  0.3318
 4961TIP3    H236299   5.471   3.824   3.367 -2.2972  0.2626  0.1129
 4962TIP3   OH236300   0.755   1.444   4.415 -0.2736  0.1398  0.2616
 4962TIP3    H136301   0.826   1.503   4.390 -0.0106 -0.0123  0.6453
 4962TIP3    H236302   0.799   1.371   4.459 -0.7619  0.5990  1.5476
 4963TIP3   OH236303   6.439   0.495  17.266  0.4146  0.0155  0.3177
 4963TIP3    H136304   6.397   0.411  17.285 -1.0147  0.6405  0.0816
 4963TIP3    H236305   6.514   0.473  17.212 -0.4386 -1.0486 -0.4786
 4964TIP3   OH236306   3.643   2.289  12.363 -0.4140  0.2062 -0.5061
 4964TIP3    H136307   3.548   2.283  12.373 -0.3292  1.8735  3.3497
 4964TIP3    H236308   3.673   2.199  12.369 -1.6760 -0.2267 -0.3355
 4965TIP3   OH236309   4.169   0.003  11.078  0.2985 -0.3029 -0.3771
 4965TIP3    H136310   4.116   0.045  11.010 -0.2861 -0.6375 -0.1326
 4965TIP3    H236311   4.126  -0.081  11.093  0.3512 -0.1821  0.4956
 4966TIP3   OH236312   4.345   6.178  11.142 -0.3832  0.0227  0.6669
 4966TIP3    H136313   4.322   6.271  11.138  0.7888  0.3546  1.2202
 4966TIP3    H236314   4.379   6.166  11.231  0.6764 -0.6473  0.1866
 4967TIP3   OH236315   6.610   4.372  15.735 -0.1086  0.2741  0.1217
 4967TIP3    H136316   6.535   4.376  15.794  0.0348  1.0368  0.2579
 4967TIP3    H236317   6.654   4.456  15.747  0.0338  0.3554 -0.9233
 4968TIP3   OH236318   6.529   2.109  16.824 -0.4358  0.2872  0.4108
 4968TIP3    H136319   6.536   2.197  16.786  0.0464  0.9997  2.0752
 4968TIP3    H236320   6.601   2.061  16.785 -0.4502  0.7471 -0.2024
 4969TIP3   OH236321   0.698   4.411   6.208 -0.6667  0.2708 -0.2867
 4969TIP3    H136322   0.672   4.345   6.144 -3.5781  1.0254 -0.0122
 4969TIP3    H236323   0.761   4.466   6.161  0.2457 -1.4631 -1.1638
 4970TIP3   OH236324   6.128   5.569   3.395 -0.0260 -0.3296 -0.1648
 4970TIP3    H136325   6.107   5.476   3.384 -0.3455 -0.2668 -0.1234
 4970TIP3    H236326   6.125   5.605   3.306  0.3672 -0.4132 -0.2107
 4971TIP3   OH236327   0.799   4.019   2.437 -0.1842  0.0517 -0.2275
 4971TIP3    H136328   0.790   4.038   2.530  0.8361  0.8228 -0.2639
 4971TIP3    H236329   0.775   4.101   2.393  0.2858 -0.0049 -0.5954
 4972TIP3   OH236330   0.195   2.016  11.163 -0.2651 -0.1567 -0.0369
 4972TIP3    H136331   0.232   1.962  11.233  0.3641 -0.3640 -0.5166
 4972TIP3    H236332   0.124   1.964  11.127 -2.2177  0.9330  2.0005
 4973TIP3   OH236333   3.566   1.386   3.718  0.1054  0.1803  0.0848
 4973TIP3    H136334   3.643   1.433   3.686  1.0419 -1.6219 -0.4213
 4973TIP3    H236335   3.514   1.453   3.762  1.7654  1.5215  0.1021
 4974TIP3   OH236336   1.835   4.635  15.827 -0.4792 -0.0534  0.2471
 4974TIP3    H136337   1.782   4.687  15.766 -1.5322 -0.5217  0.7392
 4974TIP3    H236338   1.873   4.566  15.772  0.3539  0.8041 -0.2757
 4975TIP3   OH236339   6.327   1.869  12.357  0.3099 -0.1267 -0.1477
 4975TIP3    H136340   6.292   1.786  12.390 -0.7258  0.4188  0.1802
 4975TIP3    H236341   6.304   1.869  12.264 -1.2575  0.5371  0.2066
 4976TIP3   OH236342   0.902   0.890  11.812 -0.0325 -0.1894  0.5172
 4976TIP3    H136343   0.939   0.968  11.770 -0.0248  0.0488  0.9640
 4976TIP3    H236344   0.903   0.910  11.905 -2.5017  0.3692  0.4926
 4977TIP3   OH236345   4.761   6.200   3.263 -0.0334  0.9757 -0.3277
 4977TIP3    H136346   4.668   6.204   3.286 -0.0537  1.6366 -0.5044
 4977TIP3    H236347   4.770   6.118   3.215 -0.2069  0.1049  1.0740
 4978TIP3   OH236348   3.871   1.888  14.646  0.4772  0.2093 -0.3995
 4978TIP3    H136349   3.921   1.967  14.664  0.5311  0.1880 -0.4564
 4978TIP3    H236350   3.807   1.914  14.580  1.7133 -0.2451 -1.8369
 4979TIP3   OH236351   5.175   4.975   1.283 -0.4720  0.2021 -0.8896
 4979TIP3    H136352   5.226   4.985   1.202  0.6454 -0.4511 -0.2986
 4979TIP3    H236353   5.241   4.961   1.351 -1.4341 -0.4504 -0.0507
 4980TIP3   OH236354   5.143   2.613  13.406 -0.1697 -0.4131  0.4547
 4980TIP3    H136355   5.052   2.601  13.378 -0.2809  1.1905  0.0485
 4980TIP3    H236356   5.181   2.669  13.339  1.0026 -0.7027  0.8619
 4981TIP3   OH236357   4.565   3.889  16.847  0.4202  0.7915  0.2060
 4981TIP3    H136358   4.494   3.824  16.850  0.1091  1.1407  0.5159
 4981TIP3    H236359   4.644   3.839  16.869  0.1034  0.6181  0.9974
 4982TIP3   OH236360   0.276   1.760  13.426  0.5564  0.0425  0.6286
 4982TIP3    H136361   0.327   1.712  13.360  1.6031  0.1610  1.3418
 4982TIP3    H236362   0.335   1.827  13.459 -1.5635  3.5014 -1.9917
 4983TIP3   OH236363   4.118   3.112  14.944 -0.1153  0.0944 -0.1172
 4983TIP3    H136364   4.208   3.088  14.923  0.2102 -0.5659  1.8478
 4983TIP3    H236365   4.092   3.171  14.873  1.2998 -0.9545 -1.5738
 4984TIP3   OH236366   6.200   4.529   1.789  0.2756 -0.0357 -0.7363
 4984TIP3    H136367   6.141   4.488   1.852  1.5173 -1.4643 -0.4514
 4984TIP3    H236368   6.217   4.616   1.825 -1.6569  0.4525 -0.8643
 4985TIP3   OH236369   3.721   1.028   0.195  0.6646 -0.1427 -0.1665
 4985TIP3    H136370   3.664   1.033   0.119  0.8258 -0.2167 -0.2921
 4985TIP3    H236371   3.679   1.084   0.260  0.5184 -0.0934 -0.3032
 4986TIP3   OH236372   6.465   6.585  12.042  0.0361 -0.0795  0.2080
 4986TIP3    H136373   6.499   6.602  11.954 -0.7884 -0.4237 -0.1928
 4986TIP3    H236374   6.371   6.573  12.029 -0.3770  1.5318  1.3707
 4987TIP3   OH236375   4.775   2.286  13.035 -0.4740  0.5490 -0.3999
 4987TIP3    H136376   4.781   2.207  12.982 -0.8379 -1.3543  2.2180
 4987TIP3    H236377   4.864   2.322  13.035  0.5895 -1.8508  1.1220
 4988TIP3   OH236378   0.059   4.202  11.240 -0.1598 -0.5508 -0.5286
 4988TIP3    H136379   0.066   4.126  11.298 -0.8995 -0.8249 -0.7750
 4988TIP3    H236380   0.002   4.263  11.287  0.6771 -0.0189 -0.2017
 4989TIP3   OH236381   2.324   1.322  16.009 -0.0405  0.6039 -0.1212
 4989TIP3    H136382   2.321   1.418  16.011  1.5611  0.6705  1.5243
 4989TIP3    H236383   2.414   1.301  15.984 -0.2866 -0.4668 -0.1352
 4990TIP3   OH236384   5.419   4.458  14.537 -0.4293 -0.9372 -0.6776
 4990TIP3    H136385   5.484   4.412  14.590  1.7435  2.3916 -0.1494
 4990TIP3    H236386   5.350   4.482  14.598 -0.3453 -1.3287 -0.4247
 4991TIP3   OH236387   0.082   1.543  11.593  0.7244 -0.3999 -0.4504
 4991TIP3    H136388   0.002   1.523  11.543 -0.8011  1.2344  1.2121
 4991TIP3    H236389   0.096   1.465  11.647  0.3206 -0.7299 -0.8074
 4992TIP3   OH236390   0.475   2.335  14.778  0.4740 -0.1925 -0.3967
 4992TIP3    H136391   0.461   2.422  14.817  0.4640 -1.0182  1.5671
 4992TIP3    H236392   0.396   2.318  14.728 -0.7312 -0.1474  1.4052
 4993TIP3   OH236393   3.726   5.935   1.678 -0.0176  0.3096 -0.0509
 4993TIP3    H136394   3.778   5.990   1.619 -0.5988  0.6027 -0.3075
 4993TIP3    H236395   3.645   5.985   1.691  0.2104  0.3838  1.2259
 4994TIP3   OH236396   5.463   3.379  16.654  0.6768 -0.0747  0.0901
 4994TIP3    H136397   5.517   3.457  16.639  0.1211  0.0994 -1.1077
 4994TIP3    H236398   5.454   3.340  16.567  1.0504 -1.5548  0.6862
 4995TIP3   OH236399   5.420   0.834   2.929  0.2644 -0.5631  0.2990
 4995TIP3    H136400   5.508   0.805   2.953  0.0325 -0.6432  1.0826
 4995TIP3    H236401   5.374   0.842   3.013 -0.5049 -0.6224 -0.1101
 4996TIP3   OH236402   0.586   2.396  14.520 -0.3431 -0.4072  0.2608
 4996TIP3    H136403   0.546   2.429  14.600  0.4974 -1.7854  1.2971
 4996TIP3    H236404   0.545   2.447  14.450 -2.0796 -0.0733  1.4427
 4997TIP3   OH236405   4.477   6.168   1.157  0.5345 -0.2992  0.1754
 4997TIP3    H136406   4.516   6.083   1.138  0.5378  0.1501 -2.1735
 4997TIP3    H236407   4.393   6.148   1.197  1.1832 -1.3475  1.0706
 4998TIP3   OH236408   0.977   2.146  11.707 -0.1828  0.0984  0.0126
 4998TIP3    H136409   0.908   2.079  11.711 -0.0542 -0.0395 -0.0957
 4998TIP3    H236410   1.051   2.102  11.668  0.1747  0.0696  0.7042
 4999TIP3   OH236411   4.443   4.603  12.930 -0.0287  0.0860 -0.0639
 4999TIP3    H136412   4.486   4.527  12.967 -0.0766 -0.8978 -1.9037
 4999TIP3    H236413   4.430   4.663  13.004 -0.2101 -1.7740  1.4629
 5000TIP3   OH236414   3.974   5.395   0.558 -0.5758 -0.8465  0.0213
 5000TIP3    H136415   4.010   5.345   0.631 -0.9611 -0.5624  0.4110
 5000TIP3    H236416   3.914   5.334   0.515 -0.8288 -0.8207  0.3262
 5001TIP3   OH236417   6.601   1.007   1.281 -0.3093 -0.2660  0.2289
 5001TIP3    H136418   6.560   1.042   1.202 -0.4472 -0.3036  0.2839
 5001TIP3    H236419   6.651   0.931   1.251  0.1706  0.1082  0.0743
 5002TIP3   OH236420   1.146   4.265  16.783 -0.5982  0.1358  0.1081
 5002TIP3    H136421   1.095   4.197  16.740 -1.0091  1.2127 -1.1816
 5002TIP3    H236422   1.236   4.234  16.779 -0.7656 -0.2733 -0.5677
 5003TIP3   OH236423   6.324   3.656   1.554  0.8445  0.3240  0.2139
 5003TIP3    H136424   6.243   3.694   1.590  0.6133 -1.2569  1.4836
 5003TIP3    H236425   6.359   3.604   1.626  1.9737 -0.5800 -0.9528
 5004TIP3   OH236426   6.629   0.667   5.349  0.4616 -0.7118 -0.3021
 5004TIP3    H136427   6.724   0.662   5.358  0.2215 -1.1460  3.3017
 5004TIP3    H236428   6.598   0.689   5.437 -2.6639  2.0020 -1.8819
 5005TIP3   OH236429   1.270   6.524  15.806 -0.2629 -0.1327  0.1733
 5005TIP3    H136430   1.203   6.580  15.843 -0.9258 -1.1944  0.6215
 5005TIP3    H236431   1.248   6.436  15.837 -0.0417 -0.8606 -1.6107
 5006TIP3   OH236432   5.618   6.731  12.498  0.7131 -0.2114  0.3950
 5006TIP3    H136433   5.673   6.783  12.440 -0.3719 -0.8454 -1.2835
 5006TIP3    H236434   5.674   6.660  12.528  1.1574 -0.1489 -0.2857
 5007TIP3   OH236435   1.253   2.642  11.448 -0.3789 -0.6627 -0.2489
 5007TIP3    H136436   1.229   2.629  11.540 -1.3026 -0.5600 -0.4742
 5007TIP3    H236437   1.170   2.645  11.401  0.0425  0.3260 -0.9596
 5008TIP3   OH236438   0.261   1.038   2.047 -0.4907  0.3246 -0.1604
 5008TIP3    H136439   0.271   1.130   2.021  0.6093  0.1135 -0.5524
 5008TIP3    H236440   0.321   0.990   1.989  0.9048 -0.3426  1.7287
 5009TIP3   OH236441   1.813   1.588   4.388 -0.1300  0.4339 -0.3813
 5009TIP3    H136442   1.839   1.497   4.399  0.1468  0.3244 -1.6883
 5009TIP3    H236443   1.848   1.633   4.464 -1.1345 -0.7068  0.7972
 5010TIP3   OH236444   6.652   6.185   4.297  0.1478 -0.7556  0.3486
 5010TIP3    H136445   6.660   6.208   4.390 -0.3510 -2.6662  0.9120
 5010TIP3    H236446   6.651   6.089   4.297 -0.8437 -0.7721 -1.5629
 5011TIP3   OH236447   2.130   1.854   6.790 -0.2729 -0.0255  0.2175
 5011TIP3    H136448   2.118   1.859   6.695 -0.1809  1.6555  0.2636
 5011TIP3    H236449   2.041   1.851   6.826 -0.3638  1.0830  0.1229
 5012TIP3   OH236450   0.282   2.372   2.991 -0.7065  0.4364 -0.2711
 5012TIP3    H136451   0.215   2.308   2.966 -3.3843  2.6375  0.7587
 5012TIP3    H236452   0.264   2.448   2.936  0.8381  1.1961  0.2304
 5013TIP3   OH236453   1.953   3.663   4.345 -0.3248 -0.6565 -0.1983
 5013TIP3    H136454   1.981   3.661   4.253  0.2047 -1.5504 -0.0269
 5013TIP3    H236455   2.029   3.696   4.392  1.2086 -4.5816  0.4716
 5014TIP3   OH236456   5.467   3.369   0.086 -0.3633 -0.4415 -0.1596
 5014TIP3    H136457   5.517   3.292   0.111 -2.6708 -1.6996  0.8165
 5014TIP3    H236458   5.528   3.442   0.099  1.3516 -1.9192  0.4712
 5015TIP3   OH236459   0.806   6.465  14.082  0.1470  0.7582  0.4352
 5015TIP3    H136460   0.817   6.514  14.164 -0.0806  1.0698  0.2867
 5015TIP3    H236461   0.781   6.377  14.110  0.2862  0.8023  0.7053
 5016TIP3   OH236462   2.068   0.171   5.232 -0.2154  0.0861  1.0557
 5016TIP3    H136463   2.053   0.265   5.229 -0.3286  0.0695  1.1360
 5016TIP3    H236464   2.148   0.158   5.180 -1.1729  0.0244 -0.4435
 5017TIP3   OH236465   0.047   6.459  16.367  0.3912 -0.0941 -0.3446
 5017TIP3    H136466   0.068   6.369  16.393 -1.0894  0.2409  2.2971
 5017TIP3    H236467  -0.047   6.466  16.382  0.2133  1.4924 -1.9539
 5018TIP3   OH236468   3.848   4.657  17.172 -0.3701 -0.3123  0.2029
 5018TIP3    H136469   3.828   4.740  17.130  1.2030  0.0454  0.1063
 5018TIP3    H236470   3.811   4.665  17.260  0.8312  1.0023  0.6221
 5019TIP3   OH236471   3.574   1.796   0.195  0.2920 -0.4018 -0.0732
 5019TIP3    H136472   3.508   1.861   0.172  2.3103  1.9118  0.2860
 5019TIP3    H236473   3.633   1.794   0.119  1.8932  0.4758  1.0899
 5020TIP3   OH236474   1.830   0.105   0.411 -0.5862  0.4484  0.3030
 5020TIP3    H136475   1.754   0.157   0.437 -0.2817  0.6678  0.7579
 5020TIP3    H236476   1.792   0.030   0.364 -1.0142  1.2180 -0.6356
 5021TIP3   OH236477   5.144   6.119   4.680  0.1988 -0.2346 -0.3147
 5021TIP3    H136478   5.097   6.041   4.713  0.9401 -0.5665 -0.0236
 5021TIP3    H236479   5.080   6.190   4.689  0.2035 -0.3989  1.4260
 5022TIP3   OH236480   4.779   5.476   2.442  0.3559 -0.0202 -0.0409
 5022TIP3    H136481   4.862   5.513   2.412  0.3503 -0.7789 -1.0304
 5022TIP3    H236482   4.777   5.388   2.404 -0.0795 -0.6937  1.4537
 5023TIP3   OH236483   1.892   0.629  17.214  0.3137 -0.2661  0.5190
 5023TIP3    H136484   1.877   0.565  17.284  2.0972  0.5044  1.6669
 5023TIP3    H236485   1.935   0.703  17.257 -1.2964  1.5804 -0.8427
 5024TIP3   OH236486   6.205   5.875   4.148  0.5068 -0.5989 -0.2132
 5024TIP3    H136487   6.227   5.929   4.224  0.8779 -1.0784  0.0227
 5024TIP3    H236488   6.110   5.864   4.153  0.1085  1.6255 -1.3352
 5025TIP3   OH236489   0.489   6.694  13.172 -0.6316  0.1270 -0.3994
 5025TIP3    H136490   0.508   6.773  13.222 -0.4662  0.3921 -0.8790
 5025TIP3    H236491   0.394   6.696  13.159 -0.6096  0.3241 -0.5359
 5026TIP3   OH236492   0.794   3.993  12.765 -0.2609 -0.6707  0.6620
 5026TIP3    H136493   0.737   3.927  12.804 -0.3110 -0.9114  0.1850
 5026TIP3    H236494   0.812   4.054  12.837 -0.3833 -1.0849  1.0493
 5027TIP3   OH236495   5.439   0.193  17.015  0.9549  0.0164  0.3262
 5027TIP3    H136496   5.384   0.251  16.963  0.8816 -0.7558 -0.4712
 5027TIP3    H236497   5.517   0.246  17.034  1.1212  0.2204 -0.8353
 5028TIP3   OH236498   2.366   1.583  15.929 -0.4812  0.0655  0.2447
 5028TIP3    H136499   2.420   1.660  15.914  0.6478 -0.9829 -1.3912
 5028TIP3    H236500   2.279   1.608  15.898 -0.1014  0.6496 -0.3613
 5029TIP3   OH236501   2.036   5.968  14.995  0.1663  0.2538  0.0020
 5029TIP3    H136502   1.966   5.906  14.974 -0.9709  1.4099  0.1882
 5029TIP3    H236503   1.998   6.023  15.064  0.6767  1.8941 -0.9839
 5030TIP3   OH236504   0.059   5.142   4.661  0.2565  0.1603  0.8645
 5030TIP3    H136505   0.140   5.116   4.703  0.8879  0.6113 -0.0351
 5030TIP3    H236506   0.005   5.179   4.732  0.9720  0.1825  1.4019
 5031TIP3   OH236507   3.224   1.019   2.740 -0.2223 -0.2556  0.2135
 5031TIP3    H136508   3.265   1.099   2.707 -1.8615  0.9809  1.0378
 5031TIP3    H236509   3.286   0.950   2.719  1.7675  1.3672  0.4538
 5032TIP3   OH236510   4.991   4.382  13.438  0.1528 -0.5777  0.5740
 5032TIP3    H136511   5.048   4.306  13.449 -1.2917 -1.5449  1.9035
 5032TIP3    H236512   5.042   4.456  13.470  1.4694 -1.0222 -0.4383
 5033TIP3   OH236513   1.224   1.109  12.872  0.3768  0.1847 -0.4216
 5033TIP3    H136514   1.254   1.176  12.934 -0.1381  0.6039 -0.6172
 5033TIP3    H236515   1.228   1.027  12.922  1.2832  0.3157 -0.2685
 5034TIP3   OH236516   6.020   3.994  13.878  0.1422  0.2997 -0.0243
 5034TIP3    H136517   6.080   3.919  13.881  0.3829  0.4967  0.0686
 5034TIP3    H236518   5.969   3.986  13.959 -0.6452 -0.4338 -0.5783
 5035TIP3   OH236519   4.167   4.588   1.060 -0.6220 -0.0746 -0.2765
 5035TIP3    H136520   4.113   4.561   1.135 -0.2539 -0.2933 -0.0900
 5035TIP3    H236521   4.122   4.552   0.984 -0.7124 -0.2957 -0.1194
 5036TIP3   OH236522   2.254   0.225  15.323  0.0251  0.0365  0.4516
 5036TIP3    H136523   2.318   0.228  15.252  1.0879  0.8284  1.4052
 5036TIP3    H236524   2.235   0.132  15.335 -2.4934 -0.0681 -2.8173
 5037TIP3   OH236525   2.707   2.170  14.712 -0.8042  0.1340  0.7855
 5037TIP3    H136526   2.645   2.231  14.671 -0.3123 -1.1172 -2.0953
 5037TIP3    H236527   2.657   2.090  14.723 -0.3384 -0.1877  0.5970
 5038TIP3   OH236528   4.232   0.471   3.044  0.2541 -0.3017  0.1030
 5038TIP3    H136529   4.315   0.513   3.064  0.2257  0.2464 -0.8969
 5038TIP3    H236530   4.171   0.507   3.108  0.7937 -0.8227  0.9470
 5039TIP3   OH236531   3.595   6.240   4.778 -0.4473  0.4673 -0.3246
 5039TIP3    H136532   3.663   6.282   4.830 -1.2043  1.6421 -0.2673
 5039TIP3    H236533   3.642   6.201   4.704  0.4637 -0.0419  0.4985
 5040TIP3   OH236534   6.688   3.618   0.314 -0.3825 -0.2435  0.1635
 5040TIP3    H136535   6.662   3.554   0.381 -1.6937  0.2245  0.1258
 5040TIP3    H236536   6.611   3.626   0.257 -0.7965  2.4193  0.9826
 5041TIP3   OH236537   6.234   0.900  16.964 -0.5406  0.1508 -0.1975
 5041TIP3    H136538   6.244   0.851  16.883 -0.8297 -0.8518  0.3666
 5041TIP3    H236539   6.268   0.843  17.032 -1.0110  0.6681  0.4901
 5042TIP3   OH236540   4.205   5.591  12.867  0.2903  0.1618  0.3902
 5042TIP3    H136541   4.196   5.500  12.896  2.8537 -0.0207  0.8390
 5042TIP3    H236542   4.210   5.641  12.948 -0.8619  0.7187  0.1409
 5043TIP3   OH236543   0.705   4.373  16.420  0.0312 -0.0897  0.0389
 5043TIP3    H136544   0.796   4.350  16.439  0.0081  0.3484  0.7224
 5043TIP3    H236545   0.709   4.418  16.336  0.2260 -1.4759 -0.7300
 5044TIP3   OH236546   1.474   2.605   4.575 -0.4983 -0.2163 -0.8639
 5044TIP3    H136547   1.554   2.576   4.617 -1.1034 -1.9943 -0.8549
 5044TIP3    H236548   1.500   2.630   4.486  0.3896  1.3253 -0.2113
 5045TIP3   OH236549   5.686   2.480  13.783  0.6710  0.1640 -0.5236
 5045TIP3    H136550   5.706   2.388  13.803 -1.7495  0.0095  1.8718
 5045TIP3    H236551   5.637   2.476  13.701  0.0510 -0.7978 -0.1240
 5046TIP3   OH236552   5.868   5.881  15.457 -0.2070 -0.4249 -0.0220
 5046TIP3    H136553   5.794   5.869  15.516 -0.7706  0.3195 -0.5641
 5046TIP3    H236554   5.850   5.822  15.384  0.8884 -1.9500  0.8810
 5047TIP3   OH236555   5.234   4.964  15.280  0.2670  0.2150 -0.3254
 5047TIP3    H136556   5.246   4.918  15.196  0.7224  0.6840 -0.5224
 5047TIP3    H236557   5.139   4.967  15.292  0.1188  1.3661 -1.5290
 5048TIP3   OH236558   1.052   0.915  14.775 -0.0392 -0.3609 -0.0016
 5048TIP3    H136559   0.969   0.962  14.768  2.1909  4.0595 -0.0986
 5048TIP3    H236560   1.078   0.923  14.867  0.9466 -0.3485 -0.2633
 5049TIP3   OH236561   5.106   5.944   0.470 -0.0936  0.5274 -0.2154
 5049TIP3    H136562   5.094   5.871   0.410  1.9230 -1.4501  1.5724
 5049TIP3    H236563   5.112   5.903   0.557 -1.9873  3.1494  1.3020
 5050TIP3   OH236564   2.436   2.497  12.866 -0.1803 -0.3698  0.5259
 5050TIP3    H136565   2.414   2.426  12.927 -1.0179  0.3296  1.0598
 5050TIP3    H236566   2.530   2.485  12.848  0.2791 -0.1111  2.5816
 5051TIP3   OH236567   3.823   2.720  12.537 -0.1721  0.4846 -0.0413
 5051TIP3    H136568   3.755   2.759  12.592  0.5687  0.1656  1.1448
 5051TIP3    H236569   3.775   2.677  12.466 -1.2703 -0.1920  1.0661
 5052TIP3   OH236570   1.736   2.273  12.747 -0.4812  0.2690  0.2539
 5052TIP3    H136571   1.665   2.263  12.811 -0.7016  1.0042  0.1335
 5052TIP3    H236572   1.742   2.188  12.704 -2.4953  0.7055 -0.9772
 5053TIP3   OH236573   4.206   1.236  13.342 -0.4674  0.8604 -0.0178
 5053TIP3    H136574   4.203   1.247  13.247  0.5630  1.5658  0.0121
 5053TIP3    H236575   4.298   1.215  13.360 -1.1869 -2.3871  0.5363
 5054TIP3   OH236576   4.571   0.624   3.979  0.4202 -0.5732  0.3387
 5054TIP3    H136577   4.608   0.569   4.048  0.7567  0.2322  0.8145
 5054TIP3    H236578   4.646   0.660   3.933  0.1928 -1.4063 -0.6995
 5055TIP3   OH236579   4.632   4.653   2.516 -0.0757 -0.2869  0.6089
 5055TIP3    H136580   4.698   4.714   2.549 -0.8575  0.5313  0.6916
 5055TIP3    H236581   4.659   4.636   2.426 -1.3756  2.4825 -0.4165
 5056TIP3   OH236582   4.025   5.980  16.333  0.2091  0.2888  0.7765
 5056TIP3    H136583   4.028   6.004  16.241 -0.0997 -0.3789  0.5877
 5056TIP3    H236584   4.047   6.061  16.380  2.6884  0.1234  0.0746
 5057TIP3   OH236585   6.401   4.510  12.467  0.1116 -0.5948  0.2763
 5057TIP3    H136586   6.330   4.504  12.403  0.5634  1.1964 -0.4614
 5057TIP3    H236587   6.418   4.419  12.493 -1.6379 -1.1472 -0.4097
 5058TIP3   OH236588   1.331   5.577   3.080 -0.3745  0.3140 -0.2665
 5058TIP3    H136589   1.325   5.542   3.168  0.1765 -0.3277 -0.4747
 5058TIP3    H236590   1.403   5.528   3.039 -1.1137  0.0549 -1.3150
 5059TIP3   OH236591   5.032   6.215   1.475 -0.0519  0.5068 -0.4179
 5059TIP3    H136592   4.942   6.243   1.491  0.0016  0.1352  0.6590
 5059TIP3    H236593   5.026   6.120   1.469  0.0128  0.5876 -2.3110
 5060TIP3   OH236594   3.848   0.735  15.146  0.7302 -0.3869  0.7963
 5060TIP3    H136595   3.879   0.721  15.056 -0.5904 -0.2498  0.2970
 5060TIP3    H236596   3.799   0.655  15.167  0.1047  0.0407  0.9808
 5061TIP3   OH236597   0.347   4.117   4.300 -0.1243 -0.3505 -0.2083
 5061TIP3    H136598   0.270   4.110   4.243  1.0304 -1.3229 -1.7177
 5061TIP3    H236599   0.421   4.096   4.243  1.4520  1.9378  0.8452
 5062TIP3   OH236600   0.552   2.534  15.207 -0.3146 -0.1524 -0.4068
 5062TIP3    H136601   0.469   2.576  15.186 -1.2059 -1.2370  0.7691
 5062TIP3    H236602   0.612   2.606  15.225 -1.1033  0.6366 -0.8918
 5063TIP3   OH236603   5.521   4.391  14.094  0.5251  0.6781 -0.3241
 5063TIP3    H136604   5.456   4.434  14.150  0.9288  1.8372 -0.7246
 5063TIP3    H236605   5.524   4.301  14.127  0.3983  1.2035  1.2022
 5064TIP3   OH236606   1.066   0.599   5.424  0.4862 -0.1779  0.3742
 5064TIP3    H136607   1.102   0.550   5.350  1.1746 -0.3268  0.8053
 5064TIP3    H236608   1.129   0.670   5.439  0.5621 -0.3881  1.0763
 5065TIP3   OH236609   2.716   5.379   2.387  0.2537 -0.1536 -0.4780
 5065TIP3    H136610   2.623   5.381   2.412  0.7518 -0.4560  1.5579
 5065TIP3    H236611   2.754   5.311   2.441  2.1892  1.7523  0.7264
 5066TIP3   OH236612   2.907   2.741   3.717  0.2215 -0.5392  0.2612
 5066TIP3    H136613   2.933   2.810   3.656 -1.7262 -0.0479 -0.0797
 5066TIP3    H236614   2.859   2.787   3.787 -1.1300 -1.5027  0.0199
 5067TIP3   OH236615   1.288   0.568   0.345 -0.2745 -0.1896 -0.0122
 5067TIP3    H136616   1.295   0.531   0.257 -1.0853  0.4214 -0.3402
 5067TIP3    H236617   1.338   0.649   0.341 -2.4057  1.1620 -0.6743
 5068TIP3   OH236618   3.973   2.619  13.052  0.5842 -0.6930 -0.2254
 5068TIP3    H136619   3.953   2.584  12.965 -0.6200  0.7174 -0.5613
 5068TIP3    H236620   4.066   2.638  13.049  0.8934 -2.1697 -0.6375
 5069TIP3   OH236621   1.747   3.206  12.975  0.3050  0.3386  0.2919
 5069TIP3    H136622   1.668   3.162  12.942 -0.1727  1.6099 -0.3141
 5069TIP3    H236623   1.719   3.296  12.993  1.2635  0.4253  1.4932
 5070TIP3   OH236624   0.800   5.753  15.598 -0.1737  0.3324 -0.0211
 5070TIP3    H136625   0.844   5.835  15.621  0.1912 -0.2278  1.3615
 5070TIP3    H236626   0.733   5.779  15.535 -1.0026  1.9198  1.4294
 5071TIP3   OH236627   4.479   2.871   1.797 -0.0075 -0.0776  0.1583
 5071TIP3    H136628   4.450   2.860   1.887 -3.7404  0.4742 -0.8101
 5071TIP3    H236629   4.449   2.959   1.773  0.1135 -0.5334 -1.8567
 5072TIP3   OH236630   3.336   3.770  12.676 -0.6634  0.4937 -0.4966
 5072TIP3    H136631   3.350   3.698  12.613 -1.7690 -1.2966  1.1722
 5072TIP3    H236632   3.253   3.809  12.648 -1.5545 -0.8003  0.2416
 5073TIP3   OH236633   5.972   0.356  12.903  0.0336 -0.2414 -0.1644
 5073TIP3    H136634   5.926   0.313  12.830  0.1564 -0.7713  0.0615
 5073TIP3    H236635   6.062   0.363  12.873  0.1200 -0.6134 -0.0074
 5074TIP3   OH236636   6.622   5.901   0.459  0.1434  0.4890 -0.6837
 5074TIP3    H136637   6.651   5.962   0.391  1.3674 -0.1963 -0.8160
 5074TIP3    H236638   6.585   5.956   0.527  1.8498  1.4725 -0.4931
 5075TIP3   OH236639   4.324   0.232  13.833  0.4425 -1.0594 -0.3608
 5075TIP3    H136640   4.368   0.151  13.860 -0.1544 -1.4258 -0.4848
 5075TIP3    H236641   4.249   0.239  13.890  1.4761  0.3848  0.8863
 5076TIP3   OH236642   0.262   1.201   1.298 -0.2406  0.0915 -0.5097
 5076TIP3    H136643   0.211   1.142   1.242 -0.9572  1.1296 -0.9742
 5076TIP3    H236644   0.236   1.177   1.387 -0.8232 -0.0363 -0.7091
 5077TIP3   OH236645   0.842   6.476   6.682 -0.2436  0.8703  0.5740
 5077TIP3    H136646   0.906   6.412   6.715 -0.8177  0.1377  0.2993
 5077TIP3    H236647   0.792   6.428   6.616 -0.2874  1.7942 -0.0868
 5078TIP3   OH236648   5.409   3.876  11.938  0.2463  0.6346 -0.2970
 5078TIP3    H136649   5.477   3.812  11.960  0.2701  0.5947 -0.4802
 5078TIP3    H236650   5.449   3.961  11.958 -0.0144  0.5632  0.5439
 5079TIP3   OH236651   4.142   1.976  15.735 -0.2668  0.0045 -0.2637
 5079TIP3    H136652   4.196   2.054  15.723 -1.1125  0.5613 -0.5003
 5079TIP3    H236653   4.095   1.967  15.652 -2.1585  0.7906  0.6636
 5080TIP3   OH236654   6.448   5.724   3.802  0.4412 -0.2663  0.1291
 5080TIP3    H136655   6.423   5.713   3.710  0.4625 -3.6544  0.4037
 5080TIP3    H236656   6.531   5.772   3.798  0.7945 -0.9322 -1.6824
 5081TIP3   OH236657   5.127   5.150  14.533  0.5927  0.3031  0.7368
 5081TIP3    H136658   5.034   5.166  14.514  0.2991 -1.9955 -0.0394
 5081TIP3    H236659   5.154   5.227  14.584 -1.4335  1.5521  0.0636
 5082TIP3   OH236660   3.858   2.414   5.876 -0.6073  0.3920 -0.1507
 5082TIP3    H136661   3.934   2.433   5.932 -0.2441 -0.0148 -0.5007
 5082TIP3    H236662   3.817   2.338   5.917  0.3090 -0.6215 -1.0498
 5083TIP3   OH236663   3.137   5.883  12.225  0.2074 -0.2059 -0.1020
 5083TIP3    H136664   3.208   5.944  12.243  0.2738 -0.0897 -0.7455
 5083TIP3    H236665   3.058   5.929  12.254  0.1733  0.4944 -1.2309
 5084TIP3   OH236666   0.843   4.729   2.369  0.1670 -0.0681  0.2383
 5084TIP3    H136667   0.788   4.808   2.366  0.9175  0.4413 -1.7895
 5084TIP3    H236668   0.842   4.703   2.461 -0.1985  2.2486  0.9666
 5085TIP3   OH236669   2.504   3.079   4.551 -0.5299  0.1032  0.0216
 5085TIP3    H136670   2.434   3.030   4.594  0.0265  0.7243  1.7167
 5085TIP3    H236671   2.560   3.109   4.623  0.8430  0.5942 -1.2094
 5086TIP3   OH236672   1.995   4.448   0.450  0.6232  0.4287  0.0311
 5086TIP3    H136673   1.962   4.360   0.465 -0.1212  0.3236 -1.9844
 5086TIP3    H236674   1.965   4.498   0.526  0.5542 -0.9014  0.9020
 5087TIP3   OH236675   5.083   6.129   5.633  0.0112 -0.2985  0.6005
 5087TIP3    H136676   5.104   6.069   5.561  0.9884  0.7682 -0.0326
 5087TIP3    H236677   4.987   6.130   5.635 -0.0285 -0.8617 -0.2416
 5088TIP3   OH236678   1.391   1.100   4.420 -0.3619 -0.5968  0.5180
 5088TIP3    H136679   1.380   1.172   4.482  0.2016 -0.0556  0.0095
 5088TIP3    H236680   1.468   1.126   4.368  0.4421 -2.0116  0.9549
 5089TIP3   OH236681   1.171   4.177  16.077  0.8300  0.7536  0.1115
 5089TIP3    H136682   1.241   4.122  16.111 -0.0443 -1.3776 -1.3135
 5089TIP3    H236683   1.195   4.192  15.985 -0.0049  0.9618 -0.0850
 5090TIP3   OH236684   1.771   3.903   2.305 -0.0100 -0.1385  0.1073
 5090TIP3    H136685   1.774   3.923   2.212  0.2349 -1.1948 -0.1271
 5090TIP3    H236686   1.809   3.816   2.312 -2.3087 -1.1778  0.8597
 5091TIP3   OH236687   6.688   5.205  17.291  0.3969 -0.1345 -0.3172
 5091TIP3    H136688   6.617   5.160  17.245 -0.2453 -0.0129  0.5426
 5091TIP3    H236689   6.696   5.159  17.374 -0.2014  1.2606  0.5317
 5092TIP3   OH236690   2.731   6.396  11.316  0.3544 -0.1458  0.3247
 5092TIP3    H136691   2.708   6.417  11.226  0.2391  0.2893  0.4561
 5092TIP3    H236692   2.649   6.362  11.354  0.3301 -0.0586  0.3488
 5093TIP3   OH236693   4.706   4.612  13.303 -0.2903 -0.0621  0.6060
 5093TIP3    H136694   4.661   4.686  13.262  0.7827  0.4025  0.2239
 5093TIP3    H236695   4.799   4.630  13.288 -0.0414 -1.9469 -0.3118
 5094TIP3   OH236696   3.621   5.419  14.697 -0.1652  1.0898 -0.1632
 5094TIP3    H136697   3.661   5.359  14.634 -0.2700  1.9880 -1.1207
 5094TIP3    H236698   3.637   5.506  14.660 -0.2518  1.6405  1.0488
 5095TIP3   OH236699   1.905   1.154   4.720  0.1362  0.0521 -0.6125
 5095TIP3    H136700   1.922   1.062   4.697  0.3344 -0.5742  1.7737
 5095TIP3    H236701   1.953   1.167   4.802 -1.3681  1.7480  0.0487
 5096TIP3   OH236702   0.631   1.227   0.426  0.1090 -0.0269 -0.2486
 5096TIP3    H136703   0.685   1.157   0.391 -1.5477 -1.9472  0.8467
 5096TIP3    H236704   0.600   1.275   0.349  2.7782  0.8007 -0.9382
 5097TIP3   OH236705   5.177   6.474  14.423 -0.3334 -0.0611  0.2201
 5097TIP3    H136706   5.236   6.516  14.361 -0.1889  1.1419  1.1202
 5097TIP3    H236707   5.227   6.402  14.460  0.9274  1.4476  1.5815
 5098TIP3   OH236708   5.138   6.403   1.089  0.2729 -0.3885 -0.2600
 5098TIP3    H136709   5.049   6.409   1.124  0.7828 -1.1149  1.2542
 5098TIP3    H236710   5.178   6.330   1.137  1.8917  0.3438 -0.4180
 5099TIP3   OH236711   3.240   2.709  14.463 -0.5709  0.4539 -0.4537
 5099TIP3    H136712   3.333   2.720  14.440 -0.6817 -0.8344 -1.6153
 5099TIP3    H236713   3.193   2.748  14.389 -1.0000  2.2294  0.7009
 5100TIP3   OH236714   4.275   3.417  13.311  0.0671  0.2767 -0.2334
 5100TIP3    H136715   4.237   3.412  13.224 -0.0182 -2.7150 -0.1387
 5100TIP3    H236716   4.227   3.352  13.362  1.0674  0.9397  1.6606
 5101TIP3   OH236717   0.000   3.093  12.365  0.4462 -0.3556 -0.2156
 5101TIP3    H136718   0.045   3.168  12.405 -3.8224  2.2162  0.3541
 5101TIP3    H236719   0.044   3.017  12.401  3.7218  1.7913  0.8133
 5102TIP3   OH236720   6.138   6.225   3.163 -0.2786  0.1094  0.6770
 5102TIP3    H136721   6.114   6.259   3.248 -0.5517  0.4096  0.4811
 5102TIP3    H236722   6.204   6.286   3.130 -1.6748  1.1795 -0.2130
 5103TIP3   OH236723   0.781   2.681   0.764  0.0143 -0.1058 -0.5050
 5103TIP3    H136724   0.801   2.648   0.852  0.6298 -1.8500 -1.2444
 5103TIP3    H236725   0.783   2.603   0.709 -1.2182  0.8363 -1.9398
 5104TIP3   OH236726   3.280   6.643  13.448  0.2767  0.0031  0.2523
 5104TIP3    H136727   3.341   6.575  13.476  0.7070  0.1310 -0.3545
 5104TIP3    H236728   3.193   6.604  13.458  0.5653 -1.4549 -2.0784
 5105TIP3   OH236729   0.996   5.742  17.368  0.0809 -0.4380  0.0448
 5105TIP3    H136730   0.954   5.809  17.423 -1.4137 -0.2807 -1.2120
 5105TIP3    H236731   0.965   5.761  17.279  2.0065 -1.0074 -0.8076
 5106TIP3   OH236732   4.159   2.281  16.425 -0.0487  0.5484 -0.6543
 5106TIP3    H136733   4.165   2.267  16.520  0.9315  0.8557 -0.6575
 5106TIP3    H236734   4.117   2.366  16.416  0.6168  0.9036 -0.4667
 5107TIP3   OH236735   1.524   0.492  15.691 -0.0775 -0.3625  0.2100
 5107TIP3    H136736   1.577   0.413  15.687  1.8315  0.6580  2.5539
 5107TIP3    H236737   1.471   0.490  15.611 -0.5690 -4.2358  0.4386
 5108TIP3   OH236738   2.784   0.911  14.288  0.3958 -0.3786 -0.0258
 5108TIP3    H136739   2.795   0.866  14.204 -0.5677  1.3349 -1.1350
 5108TIP3    H236740   2.691   0.903  14.307  0.3890  0.3196  0.2386
 5109TIP3   OH236741   2.951   1.731   1.420 -0.6513  0.1939  0.5494
 5109TIP3    H136742   3.027   1.697   1.372 -2.8509 -1.1485 -2.2577
 5109TIP3    H236743   2.878   1.675   1.392 -2.5658  0.7539  3.9009
 5110TIP3   OH236744   1.436   0.700   5.704 -0.3573  0.8512  0.1299
 5110TIP3    H136745   1.400   0.644   5.773 -0.7342  1.3559  0.3457
 5110TIP3    H236746   1.498   0.757   5.749  0.8869 -0.1332 -0.2666
 5111TIP3   OH236747   6.002   1.403  15.092 -0.0123 -0.5278  0.3657
 5111TIP3    H136748   6.092   1.426  15.070 -0.2742  0.9294  0.7149
 5111TIP3    H236749   5.957   1.398  15.008  0.5495 -2.0250  0.1373
 5112TIP3   OH236750   6.095   5.656  17.175  0.1913 -0.0714 -0.0193
 5112TIP3    H136751   6.015   5.624  17.135 -0.4783 -0.9033  1.8664
 5112TIP3    H236752   6.071   5.743  17.209 -0.2455 -0.6966  1.3594
 5113TIP3   OH236753   3.264   3.210   1.387 -0.0590  0.1942 -0.1357
 5113TIP3    H136754   3.274   3.178   1.298 -0.5946  0.8047 -0.4187
 5113TIP3    H236755   3.322   3.154   1.439 -1.2065 -1.4800 -0.5550
 5114TIP3   OH236756   2.417   2.112   2.605  0.4268 -0.0798 -0.3673
 5114TIP3    H136757   2.459   2.047   2.660  1.7584 -0.2012 -1.4685
 5114TIP3    H236758   2.484   2.180   2.592 -0.6158  1.0536 -0.0029
 5115TIP3   OH236759   5.733   4.685   5.894  0.0264 -0.0058  0.2729
 5115TIP3    H136760   5.708   4.597   5.920 -0.2596  0.2562  0.9221
 5115TIP3    H236761   5.804   4.673   5.831  3.0173 -0.6824  3.4301
 5116TIP3   OH236762   5.276   6.038   4.208  0.1743 -0.2329  0.2510
 5116TIP3    H136763   5.275   6.061   4.301 -0.5413  0.0397  0.1883
 5116TIP3    H236764   5.247   6.117   4.163  3.2168  0.5829 -0.4730
 5117TIP3   OH236765   1.767   1.756  15.972 -0.1432 -0.2407 -0.1513
 5117TIP3    H136766   1.781   1.714  15.887 -0.0988  1.0081 -0.7839
 5117TIP3    H236767   1.675   1.783  15.971 -0.0191  0.2052 -0.0126
 5118TIP3   OH236768   4.847   4.680   4.619  0.4924 -0.2364 -0.2268
 5118TIP3    H136769   4.897   4.693   4.539 -0.9770  0.9064 -0.9972
 5118TIP3    H236770   4.841   4.584   4.628 -1.0082 -0.4507 -2.6242
 5119TIP3   OH236771   1.518   4.265   1.964 -0.4557  0.0007 -0.3414
 5119TIP3    H136772   1.508   4.192   2.026  0.3999  0.4931  0.4182
 5119TIP3    H236773   1.445   4.256   1.904 -1.6673 -0.1728  1.0820
 5120TIP3   OH236774   4.289   2.214   2.976 -0.1034  0.1996 -0.2253
 5120TIP3    H136775   4.275   2.207   2.882 -0.2626 -0.8176 -0.1326
 5120TIP3    H236776   4.300   2.308   2.991  0.2182  0.3481 -1.2931
 5121TIP3   OH236777   1.937   2.051  14.040 -0.0875 -0.1181  0.5349
 5121TIP3    H136778   1.934   1.983  13.973 -1.4120 -0.4100  0.8573
 5121TIP3    H236779   2.028   2.054  14.068  0.4940  0.0025 -1.2531
 5122TIP3   OH236780   2.712   3.472   3.379 -0.4457 -0.3762 -0.2732
 5122TIP3    H136781   2.741   3.540   3.440 -0.4799  0.6818 -1.3980
 5122TIP3    H236782   2.723   3.390   3.427  0.9819  0.2937  0.6150
 5123TIP3   OH236783   0.957   3.746   0.623  0.2382  0.0996  0.7131
 5123TIP3    H136784   1.046   3.726   0.654 -0.2960 -2.2002  0.9283
 5123TIP3    H236785   0.970   3.812   0.555  1.9424  1.0210  1.8502
 5124TIP3   OH236786   1.376   0.534   6.043  0.6728 -0.0420  0.0337
 5124TIP3    H136787   1.469   0.513   6.033  0.2956 -1.7473 -0.1798
 5124TIP3    H236788   1.334   0.450   6.056 -1.0760  0.5085 -1.5915
 5125TIP3   OH236789   5.400   4.899   2.876  0.1954 -0.1843  0.6196
 5125TIP3    H136790   5.435   4.914   2.788  0.6268 -3.0232  0.2048
 5125TIP3    H236791   5.314   4.942   2.875 -0.4672 -1.3686 -1.7412
 5126TIP3   OH236792   4.267   0.599  15.648 -0.5618 -0.9688 -0.0313
 5126TIP3    H136793   4.266   0.503  15.659  0.0968 -0.9711  0.0660
 5126TIP3    H236794   4.176   0.625  15.661 -0.3708 -1.3018  2.5477
 5127TIP3   OH236795   4.173   4.163  12.343  0.0317  0.4688 -0.3054
 5127TIP3    H136796   4.096   4.178  12.287 -0.0675  0.7425 -0.0968
 5127TIP3    H236797   4.233   4.234  12.320  0.1844  0.3096 -0.4006
 5128TIP3   OH236798   5.287   0.773  11.571 -0.1189  0.3189  0.1074
 5128TIP3    H136799   5.355   0.734  11.625  0.2708 -0.5011 -0.9376
 5128TIP3    H236800   5.206   0.756  11.619  0.0606 -1.6101 -0.1920
 5129TIP3   OH236801   4.392   5.896  16.493  0.2398 -0.0112  0.3427
 5129TIP3    H136802   4.436   5.861  16.415  0.1986  2.9902 -1.1748
 5129TIP3    H236803   4.329   5.829  16.518  0.3407 -1.1435 -2.1673
 5130TIP3   OH236804   2.143   4.360  14.286 -0.5293 -0.0559 -0.3903
 5130TIP3    H136805   2.078   4.299  14.321  0.2363 -0.1915  0.8571
 5130TIP3    H236806   2.223   4.307  14.279 -0.5653  0.0536 -2.0892
 5131TIP3   OH236807   6.629   2.402   6.213 -0.3227  0.5040  0.2727
 5131TIP3    H136808   6.545   2.447   6.215 -0.7223 -0.0892 -1.4998
 5131TIP3    H236809   6.607   2.309   6.204  0.5128  0.2988  0.2595
 5132TIP3   OH236810   5.523   5.519  14.720 -0.2458 -0.1836 -0.0101
 5132TIP3    H136811   5.474   5.560  14.649  0.4804 -0.2368 -0.5519
 5132TIP3    H236812   5.588   5.584  14.745 -1.4239  0.4418  1.6459
 5133TIP3   OH236813   4.914   4.537   4.901  0.3424 -0.1778 -0.6669
 5133TIP3    H136814   4.903   4.469   4.833  0.3973  0.6028 -1.4722
 5133TIP3    H236815   4.841   4.522   4.961 -0.4512 -0.1084 -1.5856
 5134TIP3   OH236816   6.441   6.272   1.267  0.5622  0.1878  0.4937
 5134TIP3    H136817   6.377   6.342   1.258  0.1886 -0.3784 -1.9641
 5134TIP3    H236818   6.398   6.194   1.230  1.8690 -0.7252  0.8088
 5135TIP3   OH236819   3.381   0.172  10.940 -0.3274 -0.5621 -0.5920
 5135TIP3    H136820   3.323   0.188  11.014 -0.4913 -0.3071 -0.7771
 5135TIP3    H236821   3.375   0.251  10.887 -0.7161 -1.0028 -1.2156
 5136TIP3   OH236822   2.554   5.752   6.458  0.2611 -0.5985 -0.2290
 5136TIP3    H136823   2.591   5.665   6.442  1.2908 -0.4071  1.0032
 5136TIP3    H236824   2.491   5.765   6.386  2.3299 -1.0747 -2.2289
 5137TIP3   OH236825   6.454   1.078   2.232  0.5635 -0.4515  0.7273
 5137TIP3    H136826   6.449   1.155   2.288  4.1672  0.0758  0.5807
 5137TIP3    H236827   6.459   1.004   2.294  2.6369 -0.0274  1.1430
 5138TIP3   OH236828   3.934   0.392  17.199  0.9161 -0.3118 -0.2296
 5138TIP3    H136829   3.975   0.479  17.201 -0.0334  0.1488  2.1702
 5138TIP3    H236830   3.841   0.409  17.211  0.5859 -1.6223 -0.7400
 5139TIP3   OH236831   1.653   3.957  13.117  0.0466 -0.1825 -0.0947
 5139TIP3    H136832   1.673   3.920  13.030  0.4174 -1.3498  0.4623
 5139TIP3    H236833   1.611   3.885  13.164 -0.5334  0.5791  0.5561
 5140TIP3   OH236834   1.352   2.737   0.466  0.2624  0.3192  0.1005
 5140TIP3    H136835   1.337   2.702   0.554  1.3399  0.8360  0.5014
 5140TIP3    H236836   1.278   2.795   0.450 -0.6172 -0.7524  0.1352
 5141TIP3   OH236837   5.147   0.518  15.813 -0.3918  0.0252 -0.0171
 5141TIP3    H136838   5.140   0.563  15.728 -1.8419  1.1474  0.6648
 5141TIP3    H236839   5.057   0.496  15.836  0.0258 -0.6064  1.0653
 5142TIP3   OH236840   6.028   4.173   6.835  0.2439 -0.0902  0.0752
 5142TIP3    H136841   6.009   4.226   6.758  0.8173 -0.9988 -0.7153
 5142TIP3    H236842   6.098   4.221   6.881  1.7391 -0.7956 -1.3654
 5143TIP3   OH236843   3.645   4.747  11.695  0.3347  0.6249  1.0413
 5143TIP3    H136844   3.666   4.815  11.631 -1.6168 -0.1609 -0.5225
 5143TIP3    H236845   3.608   4.795  11.769  1.8759  1.4796  1.3087
 5144TIP3   OH236846   1.732   5.522   0.079 -0.5648 -0.0435 -0.2302
 5144TIP3    H136847   1.768   5.455   0.137  0.3120  1.0262  0.5002
 5144TIP3    H236848   1.708   5.593   0.137  0.6663  1.2062 -1.1831
 5145TIP3   OH236849   2.261   1.879   7.046  0.2275  0.4022  0.1630
 5145TIP3    H136850   2.274   1.784   7.050  1.1546  0.5627  1.9973
 5145TIP3    H236851   2.248   1.897   6.953 -1.4823 -1.6839 -0.0797
 5146TIP3   OH236852   6.188   6.408  11.031  0.1898 -0.4781 -0.6627
 5146TIP3    H136853   6.157   6.399  10.940 -0.0269 -0.4243 -0.5944
 5146TIP3    H236854   6.249   6.482  11.028 -0.2969 -0.0654 -0.6454
 5147TIP3   OH236855   1.705   4.366   4.833  1.0935 -0.0807  0.2138
 5147TIP3    H136856   1.743   4.356   4.921 -0.8799 -1.0277  1.0273
 5147TIP3    H236857   1.756   4.307   4.778 -0.0813 -2.5791  1.6134
 5148TIP3   OH236858   5.938   3.942  11.567  0.1493 -0.0530 -0.2884
 5148TIP3    H136859   6.021   3.973  11.603  0.0449  0.1945 -0.2610
 5148TIP3    H236860   5.875   4.010  11.591  0.0861  0.1302 -0.9684
 5149TIP3   OH236861   1.759   4.179  11.771  0.0721 -0.5308 -0.2535
 5149TIP3    H136862   1.687   4.150  11.828 -0.2517 -0.6287 -0.7047
 5149TIP3    H236863   1.756   4.274  11.776 -0.3243 -0.5255 -0.5539
 5150TIP3   OH236864   1.389   1.300   4.616  0.4964  0.0102 -0.1170
 5150TIP3    H136865   1.476   1.291   4.578  0.3244  2.8539 -1.4574
 5150TIP3    H236866   1.396   1.376   4.674 -0.9271 -0.1791  0.3453
 5151TIP3   OH236867   2.273   4.752   1.127  0.2031  0.1363 -0.0400
 5151TIP3    H136868   2.316   4.741   1.212  0.9072  0.3548 -0.3593
 5151TIP3    H236869   2.345   4.765   1.065 -0.3432  1.2636 -0.4748
 5152TIP3   OH236870   4.447   2.767   0.333  0.1325  0.2006  0.4225
 5152TIP3    H136871   4.509   2.697   0.351  0.6510  0.6978  0.5933
 5152TIP3    H236872   4.430   2.760   0.239 -0.1799 -0.4414  0.5232
 5153TIP3   OH236873   5.435   6.316  13.843  0.8672  0.2236  0.6263
 5153TIP3    H136874   5.404   6.236  13.799  1.3039 -0.0323  0.7788
 5153TIP3    H236875   5.501   6.351  13.784  0.5662  0.5657  0.4845
 5154TIP3   OH236876   3.938   5.398  16.161  0.0048  0.2057 -0.0741
 5154TIP3    H136877   3.845   5.377  16.168  0.3063 -0.9150  0.9962
 5154TIP3    H236878   3.965   5.413  16.251  0.5432  2.0794 -0.5207
 5155TIP3   OH236879   3.263   4.255   0.587  0.5309  0.2023  0.4949
 5155TIP3    H136880   3.238   4.274   0.677 -0.0886  1.7835  0.0132
 5155TIP3    H236881   3.194   4.293   0.534  2.0274  1.3328 -0.7375
 5156TIP3   OH236882   5.929   1.711   3.422 -0.8030 -0.0628 -0.3401
 5156TIP3    H136883   5.854   1.675   3.374 -0.6807 -0.8382  0.0386
 5156TIP3    H236884   5.966   1.636   3.469  0.2547  0.2905 -0.5769
 5157TIP3   OH236885   0.697   1.236  12.560  0.3800  0.2383  0.5798
 5157TIP3    H136886   0.605   1.252  12.542 -0.0130 -2.2927 -0.0198
 5157TIP3    H236887   0.698   1.187  12.642  1.2450  0.6550  0.8377
 5158TIP3   OH236888   3.686   4.771   0.711 -0.2741  0.0739  0.1214
 5158TIP3    H136889   3.703   4.678   0.730  0.5824  0.4584  1.3527
 5158TIP3    H236890   3.591   4.779   0.715 -0.4538 -0.9533 -1.0810
 5159TIP3   OH236891   6.485   0.178  15.738 -0.1353 -0.3706  0.2245
 5159TIP3    H136892   6.535   0.191  15.818  2.2894  0.0931 -1.2747
 5159TIP3    H236893   6.537   0.117  15.686 -1.4962 -0.4360 -1.1347
 5160TIP3   OH236894   2.672   1.079   2.938  0.2697  0.1475 -0.1969
 5160TIP3    H136895   2.688   1.073   3.032 -1.0065  0.9386  0.0912
 5160TIP3    H236896   2.740   1.138   2.906 -0.8300  2.0082  0.6990
 5161TIP3   OH236897   6.399   5.655   0.993  0.1937  0.2484  0.2678
 5161TIP3    H136898   6.406   5.708   1.072 -0.9437  0.3901  0.2866
 5161TIP3    H236899   6.408   5.718   0.921 -0.0922  0.3070  0.2851
 5162TIP3   OH236900   1.154   3.007   2.271 -0.2519  0.7064 -0.0161
 5162TIP3    H136901   1.138   2.978   2.361 -0.3089  3.0095  0.7870
 5162TIP3    H236902   1.069   3.040   2.241  0.1559  1.6173 -0.2190
 5163TIP3   OH236903   3.593   5.092  12.749 -0.5447  0.2411  0.4571
 5163TIP3    H136904   3.597   5.002  12.715 -0.7488  0.1212  0.7478
 5163TIP3    H236905   3.538   5.139  12.687  0.5374  0.4732 -0.3765
 5164TIP3   OH236906   2.731   5.132   3.647 -0.3253  0.2306  0.0596
 5164TIP3    H136907   2.657   5.148   3.704  0.2387 -1.9792  1.5432
 5164TIP3    H236908   2.808   5.155   3.700  0.1482  0.3919 -0.6742
 5165TIP3   OH236909   1.660   5.625   3.398  0.2908  0.0914 -0.8716
 5165TIP3    H136910   1.576   5.614   3.353 -0.0590  1.6556 -0.6300
 5165TIP3    H236911   1.689   5.713   3.374 -0.3875  1.4264  2.6876
 5166TIP3   OH236912   1.068   1.528  13.027 -0.1828  0.3916 -0.1991
 5166TIP3    H136913   1.021   1.582  13.090  1.0757  1.8705 -0.4730
 5166TIP3    H236914   1.018   1.536  12.946 -2.1776 -2.0287  0.6347
 5167TIP3   OH236915   5.952   5.640  14.253  0.1171  0.2526 -0.6891
 5167TIP3    H136916   5.903   5.562  14.228 -0.1669  0.5721 -1.1309
 5167TIP3    H236917   5.891   5.712  14.240 -0.5502  0.3450  2.2102
 5168TIP3   OH236918   4.463   2.861   1.037 -0.3135  0.1864  0.4786
 5168TIP3    H136919   4.453   2.850   0.943  0.7723 -0.2662  0.4066
 5168TIP3    H236920   4.483   2.773   1.069  0.0346  0.4629  1.0342
 5169TIP3   OH236921   4.904   1.663   6.585 -0.2143 -0.2887 -0.5544
 5169TIP3    H136922   4.824   1.703   6.618  0.7763 -0.2631  2.0571
 5169TIP3    H236923   4.972   1.729   6.603  0.6490 -1.0083 -1.1133
 5170TIP3   OH236924   6.191   3.782  13.826 -0.2048 -0.4818 -0.1984
 5170TIP3    H136925   6.286   3.791  13.817 -0.3586  1.0959 -0.5640
 5170TIP3    H236926   6.167   3.714  13.763  0.8466 -2.0795  1.0385
 5171TIP3   OH236927   4.971   4.965  15.346  0.0328 -0.5412 -0.5409
 5171TIP3    H136928   4.994   4.935  15.434 -0.2721  0.0524 -0.2539
 5171TIP3    H236929   4.891   5.015  15.358 -2.0023 -3.2943 -1.6513
 5172TIP3   OH236930   5.781   5.957  11.188 -0.3488 -0.8503  0.3153
 5172TIP3    H136931   5.730   6.038  11.191  0.0112 -0.6488  1.8556
 5172TIP3    H236932   5.843   5.971  11.116 -1.4961 -0.5181 -0.6349
 5173TIP3   OH236933   4.022   1.848   5.338  0.4232 -0.1104 -0.2483
 5173TIP3    H136934   4.039   1.900   5.417 -1.5026  0.4487 -0.1604
 5173TIP3    H236935   4.061   1.899   5.267 -0.2735  0.8178  0.0127
 5174TIP3   OH236936   6.020   0.025   2.695 -0.1969 -0.1875 -0.0413
 5174TIP3    H136937   5.991  -0.042   2.757  0.5986  0.9158  1.6011
 5174TIP3    H236938   5.966   0.012   2.618 -1.5607 -1.3243  1.0647
 5175TIP3   OH236939   3.750   4.179   4.555 -0.0148  0.1499  0.3841
 5175TIP3    H136940   3.668   4.162   4.508 -0.3475  1.5564  0.4126
 5175TIP3    H236941   3.760   4.103   4.613 -1.5349  0.1646  0.7089
 5176TIP3   OH236942   2.041   3.322   2.827  0.5028  0.2220 -0.2278
 5176TIP3    H136943   2.058   3.244   2.773 -0.1455 -0.2287  0.2024
 5176TIP3    H236944   2.118   3.377   2.813 -0.3816  0.9236 -2.9817
 5177TIP3   OH236945   3.066   5.339   1.508 -0.2186  0.0327 -0.0210
 5177TIP3    H136946   3.100   5.409   1.564  0.9646 -0.4666 -0.0880
 5177TIP3    H236947   3.144   5.294   1.475 -0.9257 -2.2819  1.2294
 5178TIP3   OH236948   2.818   6.111  11.164 -0.3716 -0.1714  0.4139
 5178TIP3    H136949   2.758   6.108  11.090  1.1827  2.6161 -1.1200
 5178TIP3    H236950   2.889   6.169  11.136  1.2613 -0.4756  3.4269
 5179TIP3   OH236951   2.035   3.766  15.536 -0.3131 -0.3078 -0.2341
 5179TIP3    H136952   2.034   3.833  15.605 -0.3091  1.5078 -1.9205
 5179TIP3    H236953   2.107   3.708  15.560  2.0130  2.2782 -0.4604
 5180TIP3   OH236954   1.872   4.191  12.849  0.0766 -0.4456  0.2313
 5180TIP3    H136955   1.883   4.284  12.866 -0.0684 -0.3745 -0.0499
 5180TIP3    H236956   1.893   4.148  12.932 -1.4248 -0.0543  0.8537
 5181TIP3   OH236957   1.814   0.700  13.906 -0.0909  0.2269 -0.2462
 5181TIP3    H136958   1.762   0.780  13.899  0.0520  0.1827 -2.6656
 5181TIP3    H236959   1.882   0.721  13.971 -1.2484  1.3452  0.6497
 5182TIP3   OH236960   4.789   1.382  15.270 -0.1931  0.1673  0.7220
 5182TIP3    H136961   4.734   1.402  15.195 -1.8944 -2.7039  1.0554
 5182TIP3    H236962   4.845   1.310  15.240  0.3989  0.2051  1.6851
 5183TIP3   OH236963   3.134   6.064   2.611 -0.5694 -0.0036  0.5582
 5183TIP3    H136964   3.167   6.124   2.678 -1.2254  0.1822  0.7225
 5183TIP3    H236965   3.040   6.083   2.606 -0.3213  0.9536 -1.3774
 5184TIP3   OH236966   4.173   2.827  15.814 -0.0297 -0.5819  0.3004
 5184TIP3    H136967   4.230   2.851  15.741  1.1855  0.2004  1.4704
 5184TIP3    H236968   4.195   2.736  15.833  0.8834 -0.2772  0.7617
 5185TIP3   OH236969   0.809   6.283   3.703 -0.1803  0.4448 -0.3331
 5185TIP3    H136970   0.860   6.205   3.684  0.7044  0.5608  1.3685
 5185TIP3    H236971   0.867   6.338   3.756 -2.3923  0.0530  2.7695
 5186TIP3   OH236972   2.145   4.063   1.967 -0.5933  0.0750 -0.6695
 5186TIP3    H136973   2.084   3.992   1.950  0.7455 -1.0485 -0.9179
 5186TIP3    H236974   2.147   4.071   2.063  2.0560 -2.8612 -0.3325
 5187TIP3   OH236975   1.493   5.917   4.011 -0.3577 -0.2342  0.7246
 5187TIP3    H136976   1.425   5.877   4.065 -0.7391 -0.4486  0.1048
 5187TIP3    H236977   1.445   5.965   3.944  0.1007 -0.1153  0.4793
 5188TIP3   OH236978   4.077   3.992   6.406 -0.3717  0.0422  0.2004
 5188TIP3    H136979   4.147   3.955   6.352 -0.4507 -0.2954  0.3222
 5188TIP3    H236980   4.123   4.032   6.480 -0.2966 -0.0472  0.2032
 5189TIP3   OH236981   4.555   4.576  14.572 -0.4179 -0.3294 -0.5347
 5189TIP3    H136982   4.556   4.487  14.537 -2.4186 -0.0346 -1.5189
 5189TIP3    H236983   4.508   4.569  14.655  3.2681 -0.8246  1.7080
 5190TIP3   OH236984   6.421   4.557   2.231  0.4047 -0.4142 -0.2118
 5190TIP3    H136985   6.337   4.520   2.258  0.7772 -1.8176 -0.8478
 5190TIP3    H236986   6.400   4.645   2.201 -0.5221 -0.0418  1.4148
 5191TIP3   OH236987   5.237   4.697  16.405  0.3130  0.0422  0.1316
 5191TIP3    H136988   5.170   4.737  16.349  0.1653  2.7313  2.0378
 5191TIP3    H236989   5.316   4.748  16.387  2.0974 -3.1395 -2.1528
 5192TIP3   OH236990   2.924   6.147   4.346  0.6750  0.4221  0.0833
 5192TIP3    H136991   2.873   6.219   4.381 -0.7266  0.5470 -2.0553
 5192TIP3    H236992   2.936   6.168   4.253  1.1120 -1.5753 -0.3715
 5193TIP3   OH236993   1.211   4.675  13.685 -0.2873 -0.3459 -0.5228
 5193TIP3    H136994   1.172   4.756  13.654  0.0477 -0.7517 -2.0948
 5193TIP3    H236995   1.302   4.678  13.655  0.0233 -0.8417  0.3160
 5194TIP3   OH236996   4.829   3.926   5.644  0.0111 -0.1105 -0.0448
 5194TIP3    H136997   4.921   3.899   5.634  0.6292  1.3196  1.2687
 5194TIP3    H236998   4.795   3.867   5.712  0.6920  0.8643  1.1908
 5195TIP3   OH236999   3.888   4.121   5.132  0.0847 -0.4452  0.1696
 5195TIP3    H137000   3.839   4.184   5.080 -0.5369 -0.7480  0.3743
 5195TIP3    H237001   3.920   4.057   5.068  0.6514  0.0319 -0.0275
 5196TIP3   OH237002   0.616   4.184  13.413 -0.4760 -0.6122 -0.0341
 5196TIP3    H137003   0.543   4.156  13.358  0.9848 -2.2491 -1.2589
 5196TIP3    H237004   0.681   4.216  13.351  0.7129 -1.2772  0.8300
 5197TIP3   OH237005   5.402   1.800  13.421  0.2331 -0.0224  0.3708
 5197TIP3    H137006   5.415   1.782  13.515 -0.6002 -0.9824  0.3176
 5197TIP3    H237007   5.353   1.882  13.419 -1.3163 -0.8921  0.8660
 5198TIP3   OH237008   1.609   3.025   4.721 -0.2984  0.4334 -0.5015
 5198TIP3    H137009   1.556   3.100   4.692  0.7094  1.0121 -0.9035
 5198TIP3    H237010   1.694   3.038   4.678  0.7632  0.5002  1.4850
 5199TIP3   OH237011   4.358   4.374  15.258  0.0906  0.5211 -0.0814
 5199TIP3    H137012   4.306   4.454  15.263 -0.0321  0.3933  0.9278
 5199TIP3    H237013   4.447   4.404  15.238  0.1011  0.9416  0.5509
 5200TIP3   OH237014   3.611   2.925  12.299 -0.4653  0.2757  0.1240
 5200TIP3    H137015   3.695   2.968  12.284 -1.0798  1.3647 -0.3682
 5200TIP3    H237016   3.550   2.971  12.240 -1.0688 -1.6040 -0.7895
 5201TIP3   OH237017   4.220   3.341  17.328 -0.1526  0.4634  0.3529
 5201TIP3    H137018   4.134   3.301  17.337 -0.5129  0.8090 -1.3082
 5201TIP3    H237019   4.203   3.435  17.326  0.4804  0.6597  1.9170
 5202TIP3   OH237020   2.203   4.072   3.401  0.5515  0.3942 -0.3401
 5202TIP3    H137021   2.237   4.129   3.470 -0.2356  1.2854 -0.6613
 5202TIP3    H237022   2.264   3.999   3.398  1.4834  1.1220  0.2300
 5203TIP3   OH237023   0.342   3.381   1.008  0.8417 -0.4567 -1.0939
 5203TIP3    H137024   0.316   3.390   0.916  1.1243  1.3822 -1.0224
 5203TIP3    H237025   0.297   3.452   1.053  1.0125 -1.1115  0.1341
 5204TIP3   OH237026   0.816   2.006   3.013 -0.5181 -0.3990 -0.4623
 5204TIP3    H137027   0.725   2.021   2.987 -0.5838 -3.0932 -2.1496
 5204TIP3    H237028   0.865   2.007   2.930  0.7394 -0.6420  0.2493
 5205TIP3   OH237029   4.459   5.464   4.054  0.3758  0.3883 -0.3576
 5205TIP3    H137030   4.434   5.427   4.138  1.9800  0.2172  0.0727
 5205TIP3    H237031   4.479   5.388   4.000  1.8547  0.5521 -0.0639
 5206TIP3   OH237032   0.292   0.415  16.068 -0.8694 -0.1608 -0.3413
 5206TIP3    H137033   0.231   0.459  16.128  0.3194  0.5603  0.3816
 5206TIP3    H237034   0.358   0.378  16.126 -1.2164 -1.9416 -1.0317
 5207TIP3   OH237035   3.384   1.646  11.693 -0.0115 -0.1191  0.6638
 5207TIP3    H137036   3.297   1.668  11.659  0.4283  1.0408  0.2628
 5207TIP3    H237037   3.394   1.552  11.673 -1.7170 -0.6324  1.9703
 5208TIP3   OH237038   2.026   3.958   3.657 -0.3952  0.4129  0.4092
 5208TIP3    H137039   1.940   3.965   3.617  0.6243 -0.6586 -2.2659
 5208TIP3    H237040   2.055   4.048   3.668 -1.9436  0.7909  1.6739
 5209TIP3   OH237041   1.284   1.954   2.030 -0.6940 -0.1297 -0.6114
 5209TIP3    H137042   1.242   1.869   2.040 -1.0784  0.2122  1.0086
 5209TIP3    H237043   1.377   1.936   2.037 -0.8043 -0.3533  0.4480
 5210TIP3   OH237044   3.417   6.188  14.773 -0.1820  0.4589 -0.1180
 5210TIP3    H137045   3.421   6.267  14.827  0.4355  0.2176  0.2046
 5210TIP3    H237046   3.390   6.120  14.834  0.5911  0.1713 -0.0831
 5211TIP3   OH237047   3.598   3.527  11.541  0.1167 -0.0586 -0.8801
 5211TIP3    H137048   3.608   3.443  11.585  1.8351 -0.2078 -1.4843
 5211TIP3    H237049   3.531   3.573  11.591  0.4700 -1.0621  0.5691
 5212TIP3   OH237050   5.685   4.628   6.703 -0.3798  0.1227 -0.6742
 5212TIP3    H137051   5.662   4.611   6.794 -0.4489 -0.9749 -0.8809
 5212TIP3    H237052   5.671   4.544   6.659  2.1174 -0.1027 -1.1993
 5213TIP3   OH237053   4.399   5.270   4.951  0.3819 -0.2004  0.6729
 5213TIP3    H137054   4.370   5.274   5.043  1.0128 -1.1956  0.9278
 5213TIP3    H237055   4.415   5.177   4.935 -1.2585 -0.2656 -0.9425
 5214TIP3   OH237056   5.628   0.043   0.246 -0.1445 -0.1581  0.2540
 5214TIP3    H137057   5.697   0.047   0.313  0.4981  0.6785 -0.4199
 5214TIP3    H237058   5.589   0.131   0.248 -0.0135 -0.0725 -0.5545
 5215TIP3   OH237059   6.076   2.999  12.041  0.1793  0.2356 -0.1400
 5215TIP3    H137060   6.147   2.968  12.098  0.1474  2.1407  1.0048
 5215TIP3    H237061   6.076   3.094  12.052 -0.8706  0.5208 -2.1511
 5216TIP3   OH237062   4.191   6.455  16.264 -0.1940 -0.6407  0.5594
 5216TIP3    H137063   4.234   6.402  16.331  1.7657  0.5583  0.3406
 5216TIP3    H237064   4.167   6.536  16.309  1.4567  0.3203 -0.2052
 5217TIP3   OH237065   0.991   6.634   1.671 -0.5953 -0.3517  0.0612
 5217TIP3    H137066   0.907   6.657   1.711 -0.6277  1.1740 -0.8099
 5217TIP3    H237067   1.045   6.713   1.680  1.7088 -2.0124  2.8262
 5218TIP3   OH237068   2.317   0.574  14.027  0.4293  0.3174 -0.3435
 5218TIP3    H137069   2.296   0.549  14.117  0.1684 -1.0830 -0.7752
 5218TIP3    H237070   2.409   0.601  14.031  0.3512  0.4934  0.3807
 5219TIP3   OH237071   2.197   1.587  12.811  0.0350  0.8299 -0.6900
 5219TIP3    H137072   2.284   1.577  12.849  0.5236  0.5664 -1.8411
 5219TIP3    H237073   2.179   1.504  12.767 -1.3368  0.4192  0.5582
 5220TIP3   OH237074   3.225   2.052   3.228  0.1935 -0.2013 -0.4842
 5220TIP3    H137075   3.199   2.135   3.269 -0.5247  0.3600 -2.0164
 5220TIP3    H237076   3.320   2.050   3.237  0.0400 -0.4053  1.7186
 5221TIP3   OH237077   5.822   6.034  13.729  0.5410 -0.0226  0.0852
 5221TIP3    H137078   5.889   6.030  13.798  0.2804 -0.4645  0.3160
 5221TIP3    H237079   5.861   6.091  13.662  1.7000 -1.2796 -0.3697
 5222TIP3   OH237080   2.099   0.687   4.053  0.0279  0.0943 -0.2014
 5222TIP3    H137081   2.157   0.759   4.030  0.8010 -1.0549 -2.1562
 5222TIP3    H237082   2.027   0.694   3.990  0.8322 -1.6068 -1.3941
 5223TIP3   OH237083   2.258   3.624   0.004 -0.2572  0.5678  0.0939
 5223TIP3    H137084   2.232   3.549   0.058 -0.7807  0.2209 -0.6135
 5223TIP3    H237085   2.188   3.688   0.017  0.1020  0.8735  0.5626
 5224TIP3   OH237086   0.323   3.953   1.618  0.2359 -0.3742 -0.2932
 5224TIP3    H137087   0.339   4.010   1.543 -0.2426 -0.2650 -0.3135
 5224TIP3    H237088   0.267   4.005   1.676 -0.8689 -1.0980 -0.6719
 5225TIP3   OH237089   3.775   1.262   4.234  0.2659  0.4336  0.4416
 5225TIP3    H137090   3.711   1.291   4.169 -1.9600 -1.3340  1.6923
 5225TIP3    H237091   3.859   1.295   4.201 -0.5462 -1.0676 -3.8460
 5226TIP3   OH237092   3.890   2.488   4.978  0.0911  0.7144 -0.1079
 5226TIP3    H137093   3.840   2.430   5.036  0.5312 -0.1836 -0.5914
 5226TIP3    H237094   3.960   2.522   5.033 -0.0266  0.5949  0.1193
 5227TIP3   OH237095   5.367   2.734   3.475 -0.3754  0.0613 -0.5192
 5227TIP3    H137096   5.393   2.748   3.384 -0.1230 -0.1066 -0.4772
 5227TIP3    H237097   5.380   2.640   3.489  1.3320  0.3518  0.2007
 5228TIP3   OH237098   5.720   4.307   5.453 -0.3125  0.1658  0.0182
 5228TIP3    H137099   5.684   4.370   5.390 -1.0033  0.3535  0.5773
 5228TIP3    H237100   5.656   4.236   5.456  0.0317 -0.1484  0.0357
 5229TIP3   OH237101   0.120   4.478   3.173 -0.1993  0.5326 -0.8056
 5229TIP3    H137102   0.060   4.433   3.113 -0.1454 -0.0213 -0.4492
 5229TIP3    H237103   0.206   4.441   3.153 -0.4467 -1.1596  0.9696
 5230TIP3   OH237104   0.609   3.918   4.281 -0.8624 -0.5241 -0.0486
 5230TIP3    H137105   0.565   3.930   4.197  0.3536 -1.2924 -0.8255
 5230TIP3    H237106   0.602   3.824   4.298 -0.0099 -0.5754  0.0719
 5231TIP3   OH237107   0.663   4.837   5.868  0.4238 -0.7703  0.0071
 5231TIP3    H137108   0.569   4.854   5.866  0.4021 -0.8947 -0.0826
 5231TIP3    H237109   0.704   4.924   5.868  0.3475 -0.6587 -2.3029
 5232TIP3   OH237110   4.947   0.916   3.417 -0.4099  0.0461 -0.8765
 5232TIP3    H137111   4.973   0.825   3.428 -1.0802 -0.0683 -0.1810
 5232TIP3    H237112   4.852   0.913   3.404 -0.4318  0.6409 -0.9029
 5233TIP3   OH237113   5.010   3.478  11.695  0.7605 -0.6999 -0.2158
 5233TIP3    H137114   5.015   3.469  11.600  1.7520  1.2619 -0.4033
 5233TIP3    H237115   5.081   3.424  11.728  1.5313 -0.0194 -0.7256
 5234TIP3   OH237116   4.095   6.242   4.621  0.1175  0.1034 -0.3207
 5234TIP3    H137117   4.183   6.228   4.586  0.4181  1.2697 -0.0901
 5234TIP3    H237118   4.107   6.245   4.716 -0.1411  0.4209 -0.2961
 5235TIP3   OH237119   6.498   3.329  11.703 -0.6614  0.3427 -0.1420
 5235TIP3    H137120   6.429   3.329  11.769 -1.0928 -0.0934 -0.5881
 5235TIP3    H237121   6.561   3.394  11.735  0.3632 -1.5283  1.9929
 5236TIP3   OH237122   2.462   3.611   2.424 -0.2141 -0.6513  0.1000
 5236TIP3    H137123   2.492   3.579   2.339 -0.0823 -0.6771  0.1575
 5236TIP3    H237124   2.485   3.542   2.486 -0.5901 -0.7732  0.1112
 5237TIP3   OH237125   5.614   5.419  12.429 -0.1175  0.6443  0.2785
 5237TIP3    H137126   5.602   5.513  12.418  0.8393  0.8235  0.7419
 5237TIP3    H237127   5.695   5.410  12.479 -0.4942 -0.4078  0.7309
 5238TIP3   OH237128   2.982   6.208  15.380 -0.3105 -0.4438 -0.2778
 5238TIP3    H137129   2.923   6.222  15.454  0.0524  0.5103 -0.1615
 5238TIP3    H237130   2.937   6.143  15.326 -2.1989  1.3203 -0.9477
 5239TIP3   OH237131   6.072   0.840  10.993  1.2663  0.0194  0.1762
 5239TIP3    H137132   6.136   0.770  10.980  2.5675  1.3901 -1.4728
 5239TIP3    H237133   6.003   0.821  10.930  2.2979  0.8801 -1.2879
 5240TIP3   OH237134   3.812   2.696  12.065  0.4522  0.3284 -0.7487
 5240TIP3    H137135   3.847   2.607  12.072  2.2298  0.9673 -0.9202
 5240TIP3    H237136   3.817   2.730  12.155  0.8293  0.6098 -0.8729
 5241TIP3   OH237137   0.152   0.956   2.702  0.1162 -0.7068 -0.7071
 5241TIP3    H137138   0.172   0.948   2.795  1.1112 -0.7450 -0.9149
 5241TIP3    H237139   0.124   0.868   2.675 -0.6578 -0.5795 -0.3466
 5242TIP3   OH237140   0.076   3.103  11.559  0.4768  0.0261 -0.4080
 5242TIP3    H137141   0.169   3.120  11.543  0.8180  0.4098  1.7377
 5242TIP3    H237142   0.074   3.049  11.638 -1.0663 -1.7781 -1.5921
 5243TIP3   OH237143   4.699   4.729  15.153 -0.5335 -0.4508 -0.3630
 5243TIP3    H137144   4.764   4.700  15.218 -0.6134  1.4046  0.6169
 5243TIP3    H237145   4.746   4.793  15.099 -0.2024 -2.6091 -2.8089
 5244TIP3   OH237146   4.289   3.456   6.146 -0.0423 -0.4028 -0.2477
 5244TIP3    H137147   4.203   3.415   6.137 -0.2459  0.1631 -0.9108
 5244TIP3    H237148   4.306   3.457   6.241 -1.6870  1.3738  0.0766
 5245TIP3   OH237149   0.733   3.921   5.648 -0.3506 -0.5996 -0.1244
 5245TIP3    H137150   0.728   3.831   5.615 -0.2395 -0.1157 -1.5538
 5245TIP3    H237151   0.826   3.936   5.664 -0.3624 -0.7251  0.0585
 5246TIP3   OH237152   3.773   0.197   4.994 -0.5093  0.1886  1.1653
 5246TIP3    H137153   3.778   0.256   4.919  1.2790 -0.5996  0.6275
 5246TIP3    H237154   3.685   0.212   5.030 -0.8150  1.7296 -0.1156
 5247TIP3   OH237155   4.982   3.588   5.642 -0.0336  0.1838 -0.3313
 5247TIP3    H137156   5.002   3.616   5.731 -0.5229 -1.1730  0.2320
 5247TIP3    H237157   4.970   3.493   5.649 -0.2046  0.0725 -1.8219
 5248TIP3   OH237158   5.404   6.394  15.761  0.2907  0.2070 -0.8386
 5248TIP3    H137159   5.363   6.477  15.784  1.3655  0.7868 -0.9772
 5248TIP3    H237160   5.402   6.391  15.666  0.2307  0.0648 -0.8331
 5249TIP3   OH237161   4.864   0.967   5.348 -0.6537 -0.3607 -0.2761
 5249TIP3    H137162   4.879   0.956   5.442 -0.4837  0.1209 -0.2458
 5249TIP3    H237163   4.785   0.915   5.331 -0.8646 -0.2020  0.1907
 5250TIP3   OH237164   4.864   2.293   6.489 -0.0016 -0.6702 -0.3537
 5250TIP3    H137165   4.846   2.326   6.401  1.5027  0.7855 -0.1511
 5250TIP3    H237166   4.789   2.322   6.541 -0.5245 -0.8736 -0.9743
 5251TIP3   OH237167   3.587   2.094   6.255  0.4370  0.2042  0.2565
 5251TIP3    H137168   3.644   2.022   6.228 -1.1111 -1.0199  0.1532
 5251TIP3    H237169   3.503   2.053   6.276 -0.5961  1.9966 -0.1034
 5252TIP3   OH237170   0.315   0.938   5.888  0.3984  0.4059  0.1932
 5252TIP3    H137171   0.220   0.939   5.896  0.2881 -1.9996 -0.1082
 5252TIP3    H237172   0.332   0.953   5.795  0.1451 -1.2469 -0.1614
 5253TIP3   OH237173   0.222   0.184  11.838  0.0577 -0.1158 -0.1151
 5253TIP3    H137174   0.308   0.173  11.879 -0.7197 -0.2953  1.5412
 5253TIP3    H237175   0.169   0.114  11.874 -1.1777  0.8454  0.0017
 5254TIP3   OH237176   3.620   6.571  14.485 -0.5445 -0.2707 -0.3776
 5254TIP3    H137177   3.639   6.514  14.559 -0.6930  1.2455  0.8972
 5254TIP3    H237178   3.524   6.572  14.479 -0.5188 -0.9231 -1.0525
 5255TIP3   OH237179   4.874   2.429   3.726  0.3923  0.7750  0.2945
 5255TIP3    H137180   4.782   2.429   3.752  0.3758  1.9547  0.2797
 5255TIP3    H237181   4.917   2.486   3.789  0.9816  0.8372 -0.1527
 5256TIP3   OH237182   4.395   3.403  12.358 -0.5831 -0.0629 -0.0527
 5256TIP3    H137183   4.485   3.372  12.343 -0.5853  0.3541 -0.9900
 5256TIP3    H237184   4.393   3.491  12.321 -1.7892 -0.6351 -1.4229
 5257TIP3   OH237185   0.286   3.821   2.850 -0.8333 -0.1142 -0.1113
 5257TIP3    H137186   0.311   3.814   2.942 -1.0807  0.3531 -0.0064
 5257TIP3    H237187   0.196   3.789   2.847 -0.9015  0.0843 -0.1554
 5258TIP3   OH237188   5.254   3.015  11.787  0.1028 -0.4572  0.0518
 5258TIP3    H137189   5.329   2.957  11.795  0.2813 -0.5997 -2.1216
 5258TIP3    H237190   5.188   2.963  11.743  0.2275  0.8926 -1.8409
 5259TIP3   OH237191   3.226   5.232  16.400 -0.5341 -0.1461  0.0278
 5259TIP3    H137192   3.139   5.255  16.431 -0.1517  1.3031  0.0892
 5259TIP3    H237193   3.268   5.189  16.474 -0.5524  0.8583  0.6288
 5260TIP3   OH237194   6.073   4.094  15.692  0.3188 -0.4576  0.0969
 5260TIP3    H137195   6.130   4.023  15.663 -0.4869 -1.2672  0.4338
 5260TIP3    H237196   6.097   4.169  15.637  0.8313 -1.1348 -0.6194
 5261TIP3   OH237197   3.267   2.081  16.704  0.0741 -0.2267  0.6049
 5261TIP3    H137198   3.230   2.047  16.786 -0.1680  0.9040  0.9805
 5261TIP3    H237199   3.339   2.137  16.732 -0.0560  0.2267  0.0434
 5262TIP3   OH237200   2.285   0.671   1.765 -0.4097  0.2249  0.5460
 5262TIP3    H137201   2.314   0.685   1.856  0.3325 -1.2068  0.5443
 5262TIP3    H237202   2.365   0.662   1.715 -0.8110  1.2330 -0.3212
 5263TIP3   OH237203   2.984   0.994   2.860  0.9295  0.5925  0.2682
 5263TIP3    H137204   2.975   1.079   2.903 -0.8482  1.4949 -1.7167
 5263TIP3    H237205   3.064   1.002   2.808  1.3334  0.6438  0.8822
 5264TIP3   OH237206   4.803   1.636  14.649  0.4083 -0.6560  0.1646
 5264TIP3    H137207   4.715   1.674  14.640  0.4625 -0.5959 -0.1189
 5264TIP3    H237208   4.832   1.620  14.559  1.5805  1.3629  0.1314
 5265TIP3   OH237209   1.865   2.523  11.953  0.3842  0.0844  0.1264
 5265TIP3    H137210   1.859   2.604  12.003  1.0318 -0.0021  0.3457
 5265TIP3    H237211   1.852   2.550  11.862  4.9367  1.1761 -0.4129
 5266TIP3   OH237212   4.193   3.203   3.701  0.0576 -0.1431 -0.0880
 5266TIP3    H137213   4.179   3.203   3.606 -0.6868  3.0300 -0.1023
 5266TIP3    H237214   4.286   3.218   3.711 -0.0256  0.6005 -0.3557
 5267TIP3   OH237215   3.718   6.462   3.113 -0.1535  0.0472 -0.1545
 5267TIP3    H137216   3.667   6.421   3.043 -2.3248  0.0248  1.3247
 5267TIP3    H237217   3.664   6.449   3.191  2.7127 -0.9695  1.7851
 5268TIP3   OH237218   6.174   1.902   1.453 -0.3070 -0.3652  0.4889
 5268TIP3    H137219   6.241   1.968   1.472  2.2461 -2.0927 -1.7970
 5268TIP3    H237220   6.153   1.915   1.361  0.1195 -2.5876  0.0309
 5269TIP3   OH237221   1.576   1.476   3.106 -0.0470  0.3003  0.4330
 5269TIP3    H137222   1.487   1.449   3.083  0.1772  0.3129 -0.4972
 5269TIP3    H237223   1.564   1.538   3.179 -0.9017  1.2405 -0.4605
 5270TIP3   OH237224   2.744   1.682  14.430  0.1331 -0.2298  0.1971
 5270TIP3    H137225   2.651   1.680  14.407  0.1555  0.5763  0.0377
 5270TIP3    H237226   2.776   1.596  14.404 -0.8764 -1.0882  1.5817
 5271TIP3   OH237227   0.152   4.097   4.081  0.7459  0.1470 -0.5927
 5271TIP3    H137228   0.177   4.128   3.993  0.2818  1.5165 -0.2563
 5271TIP3    H237229   0.063   4.128   4.093  0.4577 -0.8788 -0.0063
 5272TIP3   OH237230   5.692   6.088   4.391  0.2893 -0.5798 -0.3709
 5272TIP3    H137231   5.676   6.151   4.321  0.5906  1.0955  1.0104
 5272TIP3    H237232   5.608   6.078   4.436 -0.0131 -1.9791 -1.1742
 5273TIP3   OH237233   5.093   1.478   4.107  0.0108  0.1556 -0.3141
 5273TIP3    H137234   5.124   1.396   4.068  0.6461  0.6045 -0.7805
 5273TIP3    H237235   5.043   1.451   4.184  0.8316 -0.6374 -0.0463
 5274TIP3   OH237236   1.682   1.997  13.778  0.3699 -0.4924 -0.2675
 5274TIP3    H137237   1.667   1.945  13.699  1.1527 -0.7101 -0.2752
 5274TIP3    H237238   1.737   2.069  13.749  1.7098 -1.2511  0.3143
 5275TIP3   OH237239   4.681   3.791   5.824 -0.0845  0.2505  0.4082
 5275TIP3    H137240   4.714   3.800   5.913 -1.8128  0.2039  1.1069
 5275TIP3    H237241   4.674   3.696   5.810 -1.2036  0.2632  0.7999
 5276TIP3   OH237242   2.266   3.484   0.632  0.5008 -0.8477  0.1123
 5276TIP3    H137243   2.271   3.430   0.711 -0.4849  0.1860  0.9078
 5276TIP3    H237244   2.269   3.421   0.560 -0.5616 -1.9712  1.0129
 5277TIP3   OH237245   2.265   2.372  12.309  0.0125 -0.4747 -0.0980
 5277TIP3    H137246   2.176   2.404  12.297 -0.1193 -1.1146 -0.8805
 5277TIP3    H237247   2.320   2.431  12.258 -0.0202 -0.4084 -0.0563
 5278TIP3   OH237248   2.538   0.218   1.189  0.1104 -0.0691 -0.2255
 5278TIP3    H137249   2.455   0.190   1.228 -0.2535 -1.1847 -1.6843
 5278TIP3    H237250   2.513   0.257   1.106  1.0510 -0.8111 -0.8800
 5279TIP3   OH237251   3.713   2.123  13.747  0.1920  0.1273 -0.0823
 5279TIP3    H137252   3.698   2.043  13.696  0.4294 -0.2119  0.3723
 5279TIP3    H237253   3.683   2.194  13.689  0.8431 -0.2110 -0.8528
 5280TIP3   OH237254   3.929   0.757   5.786 -0.1210  0.1569 -0.2812
 5280TIP3    H137255   4.002   0.731   5.842  0.6312  0.1660 -1.2311
 5280TIP3    H237256   3.914   0.682   5.729 -1.4998 -0.2175  0.5173
 5281TIP3   OH237257   2.952   1.240  12.348 -0.0895 -0.1218  0.6553
 5281TIP3    H137258   2.888   1.284  12.404 -0.5518  0.9954 -0.6876
 5281TIP3    H237259   2.955   1.294  12.269  1.3467 -1.0438  0.0477
 5282TIP3   OH237260   6.314   1.890   0.822 -0.5186  0.2499  0.0812
 5282TIP3    H137261   6.361   1.864   0.743 -0.6865 -0.7476  0.2972
 5282TIP3    H237262   6.338   1.824   0.887  0.7330  1.8070  1.3081
 5283TIP3   OH237263   2.304   2.450   5.084 -0.0361 -0.1305  0.0030
 5283TIP3    H137264   2.379   2.450   5.143  0.3151  0.2017 -0.4325
 5283TIP3    H237265   2.229   2.430   5.140  0.3794 -0.4996  0.4373
 5284TIP3   OH237266   1.839   0.374  16.823  0.0197  0.4350 -0.0787
 5284TIP3    H137267   1.836   0.308  16.893  0.2185  0.3595 -0.1425
 5284TIP3    H237268   1.783   0.445  16.856  1.2890  1.0560  0.8168
 5285TIP3   OH237269   3.030   0.078   5.312 -0.4147 -0.1976 -0.7861
 5285TIP3    H137270   3.056   0.165   5.342 -0.1994 -0.1771 -1.0299
 5285TIP3    H237271   2.939   0.088   5.286 -0.9208 -0.4450  0.7777
 5286TIP3   OH237272   1.515   4.417   5.968  0.6351 -0.2680  0.0186
 5286TIP3    H137273   1.551   4.437   6.054  0.2528 -1.2102  0.4056
 5286TIP3    H237274   1.591   4.401   5.913  0.8495 -0.8542  0.4828
 5287TIP3   OH237275   6.494   5.525  11.751  0.4267 -0.3259  0.1226
 5287TIP3    H137276   6.510   5.440  11.710  0.6518 -0.2196 -0.0115
 5287TIP3    H237277   6.580   5.568  11.752  0.2282  0.0939 -0.2589
 5288TIP3   OH237278   1.909   1.139  11.645 -0.9582  0.0541  0.5910
 5288TIP3    H137279   1.822   1.139  11.684 -1.0587  1.4922  0.4486
 5288TIP3    H237280   1.900   1.087  11.565 -2.0003  1.1173 -0.0132
 5289TIP3   OH237281   5.033   2.904  11.211 -0.2178 -0.3772  0.4398
 5289TIP3    H137282   5.095   2.849  11.259 -2.2186 -2.3304  0.9649
 5289TIP3    H237283   5.013   2.853  11.133  0.2139  1.1055 -0.6906
 5290TIP3   OH237284   2.851   3.973   1.311 -0.0081 -0.1391  0.3979
 5290TIP3    H137285   2.767   4.004   1.345 -0.1724 -0.2925  0.1308
 5290TIP3    H237286   2.829   3.925   1.231  0.4760  1.1121 -0.5177
 5291TIP3   OH237287   0.302   1.945   1.583  0.0518  0.1513 -0.0776
 5291TIP3    H137288   0.228   1.980   1.532  0.5104 -1.9533 -2.3834
 5291TIP3    H237289   0.280   1.853   1.596  1.9830 -0.3781 -0.3140
 5292TIP3   OH237290   0.734   6.649  15.007 -0.3057 -0.3216  0.1785
 5292TIP3    H137291   0.684   6.633  14.926 -0.2595  1.8262 -0.3463
 5292TIP3    H237292   0.803   6.583  15.006 -0.8858 -0.9514 -1.0514
 5293TIP3   OH237293   0.017   4.555   0.191  0.3132 -0.1923 -0.3537
 5293TIP3    H137294  -0.041   4.557   0.267  0.5627 -0.6609 -0.1449
 5293TIP3    H237295   0.083   4.489   0.213  0.0700 -0.7401 -1.2000
 5294TIP3   OH237296   1.131   3.464  11.552  0.3606 -0.1347  0.2992
 5294TIP3    H137297   1.101   3.402  11.486  0.8643  0.7932 -0.8516
 5294TIP3    H237298   1.164   3.410  11.623  0.3437 -1.1815 -0.4671
 5295TIP3   OH237299   0.751   1.959  13.164  0.1973 -0.0543 -0.1264
 5295TIP3    H137300   0.843   1.966  13.137  0.2427 -0.2883 -0.0337
 5295TIP3    H237301   0.708   2.032  13.120  0.5470  0.4345  0.3389
 5296TIP3   OH237302   6.099   0.533   2.634 -0.1418  0.0573  0.1920
 5296TIP3    H137303   6.130   0.446   2.610  0.0533 -0.0804  0.8995
 5296TIP3    H237304   6.138   0.550   2.720 -0.3746  0.7421  0.1755
 5297TIP3   OH237305   6.331   1.038  16.418  0.3116  0.2962 -0.0364
 5297TIP3    H137306   6.338   1.129  16.446 -2.1038 -0.2944  3.0381
 5297TIP3    H237307   6.245   1.033  16.376  0.2213 -0.6641  0.2542
 5298TIP3   OH237308   1.141   1.811   1.653 -0.1812  0.4672 -0.3514
 5298TIP3    H137309   1.231   1.812   1.685 -0.6615 -1.1496  1.1474
 5298TIP3    H237310   1.089   1.851   1.723 -0.6272  1.7756 -1.3707
 5299TIP3   OH237311   2.318   1.560   4.617  0.0131  0.0710  0.4037
 5299TIP3    H137312   2.230   1.558   4.580  0.3702 -0.5256 -0.4220
 5299TIP3    H237313   2.333   1.653   4.636 -1.0104  0.1159  1.1141
 5300TIP3   OH237314   1.684   2.750   1.634  0.1904 -0.3893 -0.3384
 5300TIP3    H137315   1.632   2.811   1.687  0.0455 -0.4806 -0.3729
 5300TIP3    H237316   1.685   2.669   1.685 -1.0627 -0.8979 -1.0643
 5301TIP3   OH237317   0.261   0.879  13.027 -0.7138  0.1228 -0.0476
 5301TIP3    H137318   0.274   0.952  12.966 -3.1829 -0.5263 -1.5009
 5301TIP3    H237319   0.166   0.870  13.034 -0.5085 -2.6396  0.4534
 5302TIP3   OH237320   0.008   3.794   3.470 -0.6626  0.0007 -0.2822
 5302TIP3    H137321   0.085   3.751   3.435 -0.7010  0.4277 -0.9140
 5302TIP3    H237322   0.025   3.804   3.563 -0.5107 -1.0588 -0.1963
 5303TIP3   OH237323   6.329   4.604  16.029  0.2877  0.0129  0.1748
 5303TIP3    H137324   6.253   4.655  16.058  0.2695  0.8398 -1.2404
 5303TIP3    H237325   6.399   4.629  16.088 -0.1397  0.4574  0.5006
 5304TIP3   OH237326   5.460   2.677  15.540  0.0574  0.5680 -0.0051
 5304TIP3    H137327   5.428   2.721  15.618  3.8005  1.8821  0.9917
 5304TIP3    H237328   5.490   2.592  15.571 -2.6297 -0.8538 -1.0102
 5305TIP3   OH237329   6.507   1.787   5.169 -0.6969  0.4966 -0.3284
 5305TIP3    H137330   6.524   1.858   5.230  0.2286 -0.7264  0.9096
 5305TIP3    H237331   6.432   1.740   5.206  0.4059 -0.7657  0.4077
 5306TIP3   OH237332   5.213   0.650  17.293 -0.3251 -0.4577  0.2116
 5306TIP3    H137333   5.306   0.671  17.296 -0.2367 -0.8343  0.1303
 5306TIP3    H237334   5.191   0.648  17.200 -0.7514  1.0695  0.2480
 5307TIP3   OH237335   3.051   6.709   1.090 -0.8052 -0.8588 -0.1316
 5307TIP3    H137336   3.085   6.651   1.021  0.5154  0.6967 -0.8447
 5307TIP3    H237337   3.062   6.797   1.055 -1.8329 -0.1129  1.3373
 5308TIP3   OH237338   1.267   3.574  14.962  0.0455  0.4771  0.4944
 5308TIP3    H137339   1.234   3.564  15.052  2.2504 -0.4710  1.2584
 5308TIP3    H237340   1.298   3.487  14.938 -1.0255  0.5910 -1.4500
 5309TIP3   OH237341   1.106   6.454   0.453 -0.0906  0.5688  0.3386
 5309TIP3    H137342   1.047   6.528   0.448  0.8241  1.2604 -1.4735
 5309TIP3    H237343   1.130   6.437   0.361  2.2241  0.1256  0.9573
 5310TIP3   OH237344   3.909   3.883   1.243  0.4178 -0.5713  0.1156
 5310TIP3    H137345   3.894   3.867   1.336  0.9284 -0.5960  0.1935
 5310TIP3    H237346   3.826   3.920   1.211  1.4487  3.3032  1.4101
 5311TIP3   OH237347   2.508   2.968  17.188  0.2286 -0.7473 -0.1862
 5311TIP3    H137348   2.480   3.054  17.221  1.2419 -0.4613 -0.0455
 5311TIP3    H237349   2.558   2.930  17.261 -0.0761 -1.3959 -0.3067
 5312TIP3   OH237350   2.034   1.241  14.139 -0.5013 -0.2005 -0.3465
 5312TIP3    H137351   2.066   1.268  14.053 -1.3586 -0.1316 -0.6517
 5312TIP3    H237352   1.940   1.258  14.136 -0.9575 -2.4978 -0.2668
 5313TIP3   OH237353   1.213   0.532  11.976  0.1560 -0.1710  0.9516
 5313TIP3    H137354   1.153   0.536  11.901 -0.0685 -0.2540  1.1248
 5313TIP3    H237355   1.278   0.600  11.958  0.0859 -0.1710  0.6951
 5314TIP3   OH237356   3.436   5.321  15.975 -0.3032  0.3145 -0.2473
 5314TIP3    H137357   3.444   5.416  15.985 -0.2962  0.3802 -0.8347
 5314TIP3    H237358   3.349   5.309  15.938  1.0007  0.4022 -3.7333
 5315TIP3   OH237359   5.104   0.681  10.710  0.8099 -0.5059 -0.1397
 5315TIP3    H137360   5.034   0.744  10.693  0.7916 -0.6144 -0.4678
 5315TIP3    H237361   5.181   0.719  10.668  0.4982 -1.3490 -1.5274
 5316TIP3   OH237362   2.162   3.509   5.649 -0.5329 -0.1144  0.5412
 5316TIP3    H137363   2.114   3.577   5.602 -1.3668 -0.0344  1.4597
 5316TIP3    H237364   2.244   3.550   5.676  0.0159 -0.2075 -0.9295
 5317TIP3   OH237365   4.608   0.811  12.851  0.4390  0.1712  0.1813
 5317TIP3    H137366   4.700   0.785  12.845 -0.0439 -1.5360 -0.4261
 5317TIP3    H237367   4.563   0.734  12.884 -0.9734  0.4874 -0.8803
 5318TIP3   OH237368   2.732   2.743   1.519 -0.5576 -0.1086  0.1626
 5318TIP3    H137369   2.712   2.837   1.519 -0.2164 -0.0017 -1.3762
 5318TIP3    H237370   2.721   2.716   1.610 -1.4681  1.2461  0.4858
 5319TIP3   OH237371   6.176   5.419   4.920 -0.3501  0.3839  0.4213
 5319TIP3    H137372   6.260   5.438   4.961 -0.1415 -1.4334  0.9535
 5319TIP3    H237373   6.199   5.382   4.835 -0.7585  3.1702 -0.9964
 5320TIP3   OH237374   3.918   4.517   6.058  0.5977  0.5194  0.7134
 5320TIP3    H137375   3.887   4.526   6.148  0.1202 -1.2939  0.7658
 5320TIP3    H237376   3.895   4.428   6.033  1.3033  0.7710 -0.9987
 5321TIP3   OH237377   3.637   3.224  14.660 -0.4653 -0.8733  0.5086
 5321TIP3    H137378   3.638   3.128  14.663 -0.0383 -0.8457  2.6053
 5321TIP3    H237379   3.725   3.250  14.685 -0.8960  0.0691  1.1104
 5322TIP3   OH237380   5.446   5.902  15.731 -0.0020  0.2510 -0.1892
 5322TIP3    H137381   5.414   5.955  15.803 -0.4973  1.1509 -1.0541
 5322TIP3    H237382   5.395   5.821  15.735  0.2235  0.1481  0.6698
 5323TIP3   OH237383   2.772   6.376   4.386 -0.2390 -0.7117  0.1537
 5323TIP3    H137384   2.787   6.469   4.366 -2.6981 -0.1804  0.4913
 5323TIP3    H237385   2.692   6.354   4.339 -0.6170 -2.1956  1.4132
 5324TIP3   OH237386   3.717   6.237  12.652 -0.6479 -0.3724  0.0270
 5324TIP3    H137387   3.661   6.294  12.599 -1.1138 -0.7866  0.0677
 5324TIP3    H237388   3.678   6.150  12.643 -1.5740 -0.2398  2.1245
 5325TIP3   OH237389   2.509   5.367  15.684  0.1697 -0.0301 -0.3952
 5325TIP3    H137390   2.595   5.409  15.680 -1.0642  2.8867  0.9984
 5325TIP3    H237391   2.514   5.312  15.763  0.1439  1.8110  0.9503
 5326TIP3   OH237392   3.772   1.623  15.067  0.9320  0.4005  0.3420
 5326TIP3    H137393   3.732   1.700  15.025  1.6639 -0.0217 -1.2329
 5326TIP3    H237394   3.829   1.659  15.135 -0.5860  1.1009  1.2965
 5327TIP3   OH237395   3.928   1.509  13.702  0.0232 -0.2737  0.1559
 5327TIP3    H137396   3.968   1.528  13.787  0.5329  2.5123 -0.6229
 5327TIP3    H237397   4.001   1.505  13.641 -0.5634  2.0268 -0.8011
 5328TIP3   OH237398   1.166   1.623  17.297  0.3880  0.0905 -0.0980
 5328TIP3    H137399   1.189   1.670  17.217 -1.8065 -0.7590 -1.3377
 5328TIP3    H237400   1.085   1.665  17.326 -1.6695 -2.7121 -1.2572
 5329TIP3   OH237401   0.735   4.986  11.722 -0.1493 -0.5087 -0.1358
 5329TIP3    H137402   0.676   4.972  11.648  2.1824 -1.1749 -1.9774
 5329TIP3    H237403   0.745   4.899  11.762  1.6642 -1.0408 -1.5793
 5330TIP3   OH237404   3.086   5.954   4.238  0.2384 -0.0432 -0.0775
 5330TIP3    H137405   3.010   5.915   4.194  0.4590 -0.8116  0.2117
 5330TIP3    H237406   3.049   6.023   4.293 -0.0232  1.1082 -1.6311
 5331TIP3   OH237407   1.326   4.784   4.018 -0.5888  0.0641  0.1539
 5331TIP3    H137408   1.287   4.866   3.987 -0.5341 -0.0138 -0.1241
 5331TIP3    H237409   1.278   4.764   4.098 -0.1288  0.7346  0.6043
 5332TIP3   OH237410   1.994   5.510   0.825  0.1572  0.0691  0.4197
 5332TIP3    H137411   2.057   5.569   0.783 -0.5848  1.7448  1.5210
 5332TIP3    H237412   1.908   5.542   0.795 -0.2372 -2.2014 -1.0951
 5333TIP3   OH237413   0.126   5.502   4.227 -0.0723  0.0838  0.1249
 5333TIP3    H137414   0.191   5.437   4.254  0.7576  0.8224 -0.0524
 5333TIP3    H237415   0.041   5.459   4.241  0.4204 -0.5766  1.1938
 5334TIP3   OH237416   5.584   1.883  14.843  0.0706  0.6085 -0.1802
 5334TIP3    H137417   5.615   1.940  14.913  0.3087  1.5653 -1.0472
 5334TIP3    H237418   5.494   1.861  14.869  0.2802  0.6309  0.6055
 5335TIP3   OH237419   0.805   6.096  15.011 -0.3461 -0.2714  0.0311
 5335TIP3    H137420   0.760   6.012  15.004 -0.8968 -0.0827  1.0962
 5335TIP3    H237421   0.894   6.074  15.038  0.8201 -0.7665 -3.5964
 5336TIP3   OH237422   0.654   0.761  11.969 -0.1835  0.0758  0.5970
 5336TIP3    H137423   0.737   0.761  11.921 -0.4547  1.6882  0.0938
 5336TIP3    H237424   0.664   0.691  12.034 -0.5580 -3.7097 -3.0025
 5337TIP3   OH237425   5.315   5.150  12.869 -0.3490 -0.0774  0.2573
 5337TIP3    H137426   5.408   5.145  12.887 -0.5454  0.8555  1.6757
 5337TIP3    H237427   5.276   5.184  12.949 -1.9491 -0.6794 -0.2142
 5338TIP3   OH237428   2.382   1.414  12.458 -0.3490  0.1347 -0.4870
 5338TIP3    H137429   2.334   1.477  12.512 -0.3948  1.6375 -2.2285
 5338TIP3    H237430   2.440   1.370  12.520 -0.7272  1.4767  0.8858
 5339TIP3   OH237431   3.683   3.830   0.938  0.1359  0.4328 -0.5268
 5339TIP3    H137432   3.767   3.877   0.939  0.2768  0.1612  0.2088
 5339TIP3    H237433   3.669   3.810   0.845  0.4724  1.2137 -0.7589
 5340TIP3   OH237434   1.636   2.096   2.818  0.5706  0.2635 -0.3800
 5340TIP3    H137435   1.583   2.169   2.851  1.0131  1.9468 -3.0662
 5340TIP3    H237436   1.698   2.137   2.758  1.6113 -2.2423 -1.1401
 5341TIP3   OH237437   2.452   1.953  16.548 -0.2940 -0.0166 -0.1070
 5341TIP3    H137438   2.508   2.024  16.580 -1.7615  0.3475  1.8462
 5341TIP3    H237439   2.457   1.887  16.617 -2.9254  0.4309  0.5993
 5342TIP3   OH237440   6.386   2.129   0.956 -0.3097 -0.3747  0.1682
 5342TIP3    H137441   6.474   2.162   0.936  0.2995 -1.1024  1.5375
 5342TIP3    H237442   6.391   2.036   0.937 -1.0498 -0.2912 -0.5092
 5343TIP3   OH237443   4.096   0.317  12.997  0.4008  0.6906  0.4313
 5343TIP3    H137444   4.139   0.240  13.033 -0.9516  0.0186  0.6826
 5343TIP3    H237445   4.014   0.324  13.045 -0.6156  0.8423 -1.2415
 5344TIP3   OH237446   4.318   2.038  10.847 -0.1597 -0.2660  0.1264
 5344TIP3    H137447   4.328   2.125  10.807  3.5868  0.0439  1.3432
 5344TIP3    H237448   4.260   2.053  10.922  0.7824  1.3706  0.5941
 5345TIP3   OH237449   3.884   4.362  15.152 -0.2256  0.2034 -0.5981
 5345TIP3    H137450   3.794   4.370  15.183 -0.0932 -0.5839  0.0235
 5345TIP3    H237451   3.938   4.385  15.227  0.1346 -3.7322  0.6018
 5346TIP3   OH237452   1.787   3.643   2.336 -0.2133 -0.5283 -0.8501
 5346TIP3    H137453   1.832   3.607   2.413 -1.5155  0.8441  0.6241
 5346TIP3    H237454   1.765   3.566   2.284 -1.2855 -1.7666  1.2972
 5347TIP3   OH237455   1.582   2.893   4.239  0.3305 -0.2371  0.2092
 5347TIP3    H137456   1.646   2.931   4.179  0.0630  0.0635  0.1106
 5347TIP3    H237457   1.524   2.966   4.261 -1.6691 -1.0726 -1.8664
 5348TIP3   OH237458   3.327   4.642   5.517  0.1950  0.1590  0.0937
 5348TIP3    H137459   3.403   4.623   5.462  0.4302  0.2892  0.3704
 5348TIP3    H237460   3.363   4.686   5.593 -0.1864  0.4133  0.1296
 5349TIP3   OH237461   2.864   5.809   2.170 -0.2703 -0.5846 -0.4140
 5349TIP3    H137462   2.817   5.887   2.141 -0.1937 -0.8017 -1.1586
 5349TIP3    H237463   2.901   5.833   2.255 -1.1402 -0.1785 -0.1432
 5350TIP3   OH237464   2.253   0.104   3.891  0.0500 -0.0943  0.0662
 5350TIP3    H137465   2.281   0.163   3.961 -0.7508  0.6673 -0.2328
 5350TIP3    H237466   2.208   0.033   3.937  2.3786 -1.3444  0.5497
 5351TIP3   OH237467   5.684   3.569  17.272 -0.1827 -0.3640  0.1260
 5351TIP3    H137468   5.731   3.636  17.222 -0.3415 -1.9143 -2.2668
 5351TIP3    H237469   5.749   3.499  17.284 -0.3125 -0.2538  1.7065
 5352TIP3   OH237470   4.094   4.110   3.160  0.6610  0.4641 -0.1884
 5352TIP3    H137471   4.160   4.076   3.099 -0.2389 -2.5868  0.3978
 5352TIP3    H237472   4.122   4.200   3.177  1.0669  1.4781 -4.8762
 5353TIP3   OH237473   2.391   0.137  15.107 -0.1568 -0.2195  0.0083
 5353TIP3    H137474   2.450   0.066  15.083 -0.0259 -0.4766  1.0778
 5353TIP3    H237475   2.377   0.185  15.025  0.2102 -1.1277 -0.5960
 5354TIP3   OH237476   0.503   3.442   0.470  0.0150  0.3199 -0.3794
 5354TIP3    H137477   0.587   3.423   0.510  0.3160 -0.1227 -1.1942
 5354TIP3    H237478   0.461   3.505   0.529  0.7079  0.1717  0.2784
 5355TIP3   OH237479   1.626   3.785   5.131 -0.7753  0.4223 -0.1897
 5355TIP3    H137480   1.608   3.725   5.203 -0.4665  0.8342  0.2343
 5355TIP3    H237481   1.541   3.796   5.087 -0.5728 -1.3496 -1.0857
 5356TIP3   OH237482   6.515   2.926   2.214 -0.3886 -0.4669 -0.0371
 5356TIP3    H137483   6.576   2.960   2.150  0.0169 -0.5581  0.2922
 5356TIP3    H237484   6.429   2.929   2.171 -0.3581  0.9261 -0.0207
 5357TIP3   OH237485   3.252   2.534   2.075 -0.1965  0.0857  0.0816
 5357TIP3    H137486   3.227   2.452   2.117  0.9011 -0.1165  0.3835
 5357TIP3    H237487   3.341   2.518   2.042  1.3932  2.1139  2.9244
 5358TIP3   OH237488   6.108   5.429   1.518 -0.1840  0.2351 -0.2624
 5358TIP3    H137489   6.096   5.379   1.598 -0.5943 -0.4878 -0.7694
 5358TIP3    H237490   6.101   5.365   1.448 -1.9203  1.1519 -0.9905
 5359TIP3   OH237491   3.797   3.068  11.508 -0.0465 -0.2582  0.3723
 5359TIP3    H137492   3.769   3.035  11.422  0.7816 -0.3459  0.1240
 5359TIP3    H237493   3.881   3.025  11.523  1.1396  1.8005 -0.0155
 5360TIP3   OH237494   4.626   2.587   4.289 -1.0087  0.1874  0.1181
 5360TIP3    H137495   4.597   2.528   4.219  0.7008  1.1474 -1.4859
 5360TIP3    H237496   4.599   2.544   4.370 -0.9848 -2.1298 -1.0412
 5361TIP3   OH237497   2.107   1.516  15.357 -0.6781 -0.2049 -0.0726
 5361TIP3    H137498   2.171   1.493  15.290 -1.0531 -0.9392 -0.1908
 5361TIP3    H237499   2.158   1.562  15.424  0.5000 -2.7632  0.9508
 5362TIP3   OH237500   5.321   2.508  14.488 -0.2525 -0.3898 -0.2708
 5362TIP3    H137501   5.261   2.515  14.413  0.2000  1.0946 -0.5283
 5362TIP3    H237502   5.263   2.511  14.564 -0.7161 -1.8958 -0.5160
 5363TIP3   OH237503   0.221   0.145  16.022 -0.5377 -0.1403 -0.6192
 5363TIP3    H137504   0.184   0.137  15.933  0.8407 -0.4927 -1.1878
 5363TIP3    H237505   0.256   0.233  16.025 -1.2852  0.1459 -0.1289
 5364TIP3   OH237506   1.978   3.266   6.092  0.4381 -0.0193  0.2531
 5364TIP3    H137507   1.942   3.347   6.127  0.0088 -0.5610  1.1011
 5364TIP3    H237508   2.064   3.259   6.132  0.5940  0.1617 -0.0480
 5365TIP3   OH237509   2.457   5.278  12.905  0.3791  0.3308 -0.0084
 5365TIP3    H137510   2.530   5.272  12.844  0.0116  0.7741 -0.5080
 5365TIP3    H237511   2.493   5.253  12.989  0.7513 -0.8874 -0.5111
 5366TIP3   OH237512   3.530   1.903   5.815  0.1459  0.4510 -0.1282
 5366TIP3    H137513   3.488   1.933   5.734 -0.1018 -0.4771 -0.3515
 5366TIP3    H237514   3.457   1.894   5.877 -0.0594 -1.3136 -0.5610
 5367TIP3   OH237515   1.537   0.842  12.698 -0.1244 -0.3692  0.3723
 5367TIP3    H137516   1.610   0.851  12.636 -0.0414 -0.8860  0.3865
 5367TIP3    H237517   1.566   0.891  12.775 -0.3494  0.5110 -0.0967
 5368TIP3   OH237518   0.168   4.403   4.481  0.8346  0.4016  0.2938
 5368TIP3    H137519   0.176   4.480   4.538  1.4827  0.3315  0.3083
 5368TIP3    H237520   0.239   4.345   4.510 -0.3200 -0.6859  1.0318
 5369TIP3   OH237521   3.277   0.107   1.958  0.1183 -0.2565 -0.0521
 5369TIP3    H137522   3.353   0.130   2.010  0.6047 -1.5099 -0.1868
 5369TIP3    H237523   3.219   0.061   2.019  0.5559 -1.4586 -0.5330
 5370TIP3   OH237524   1.390   4.781  12.527 -0.0969  0.7512  0.0651
 5370TIP3    H137525   1.295   4.793  12.533 -0.1773  0.8967 -1.2285
 5370TIP3    H237526   1.426   4.869  12.525 -0.0791  0.7375 -1.1369
 5371TIP3   OH237527   1.591   4.688   0.690 -0.2755  0.2329 -0.5482
 5371TIP3    H137528   1.655   4.634   0.642 -0.5620 -0.9582  0.3506
 5371TIP3    H237529   1.624   4.688   0.780 -1.6714 -0.6563 -0.0049
 5372TIP3   OH237530   0.220   5.368  16.107 -0.1102 -0.2564  0.0747
 5372TIP3    H137531   0.282   5.417  16.053 -0.6538  0.5382  0.1573
 5372TIP3    H237532   0.211   5.283  16.062  0.6246 -0.1850 -0.2241
 5373TIP3   OH237533   3.589   6.493  17.129  0.0280 -0.1495 -0.1461
 5373TIP3    H137534   3.556   6.519  17.215  0.8110 -0.6237  0.3094
 5373TIP3    H237535   3.671   6.541  17.119  0.7769 -1.3536  0.0967
 5374TIP3   OH237536   0.627   4.907  14.226  0.4097  0.0953 -0.0979
 5374TIP3    H137537   0.591   4.939  14.143 -0.2185  0.9476  0.4816
 5374TIP3    H237538   0.707   4.862  14.201  0.2787  0.4072 -1.1631
 5375TIP3   OH237539   5.591   4.359  17.285  0.0346  0.4650  0.6301
 5375TIP3    H137540   5.678   4.393  17.303  1.4311 -1.6944 -1.4867
 5375TIP3    H237541   5.603   4.264  17.274 -2.2369  0.3172 -1.5351
 5376TIP3   OH237542   6.289   2.302  16.529  0.2157  0.4780  0.3175
 5376TIP3    H137543   6.309   2.208  16.532 -1.5625  0.0931  1.4948
 5376TIP3    H237544   6.360   2.343  16.578 -0.4204 -0.5827  2.2527
 5377TIP3   OH237545   2.611   6.411   1.136  0.0368 -0.1880  0.1148
 5377TIP3    H137546   2.662   6.486   1.104 -1.0244  0.4501 -0.1391
 5377TIP3    H237547   2.529   6.449   1.167 -0.8433 -1.3117 -0.7288
 5378TIP3   OH237548   6.369   5.287   1.694 -0.0780 -0.1630  0.3838
 5378TIP3    H137549   6.358   5.367   1.643  0.1304  0.5902  1.4936
 5378TIP3    H237550   6.438   5.308   1.758 -1.2280 -0.6278  1.8334
 5379TIP3   OH237551   3.549   3.599  15.246  0.6491 -0.1172  0.0280
 5379TIP3    H137552   3.470   3.620  15.296 -0.1465 -2.7211  0.0177
 5379TIP3    H237553   3.531   3.633  15.158  0.5774  1.4187  0.6167
 5380TIP3   OH237554   4.557   0.552   6.011  0.1426  0.2155 -0.1050
 5380TIP3    H137555   4.521   0.635   6.044 -0.6945 -0.0633 -0.2795
 5380TIP3    H237556   4.605   0.516   6.085 -2.3703 -0.7811  1.1796
 5381TIP3   OH237557   3.450   4.303  14.794  0.2457  0.2076 -0.2315
 5381TIP3    H137558   3.397   4.352  14.732 -0.9265  1.1543  1.4528
 5381TIP3    H237559   3.472   4.366  14.862 -0.8872 -1.4545  1.7550
 5382TIP3   OH237560   0.647   4.068  12.550 -0.4870  0.1176  0.4583
 5382TIP3    H137561   0.617   3.981  12.577 -1.5452  0.5805  0.8079
 5382TIP3    H237562   0.710   4.094  12.618  0.1296 -0.5190  0.1498
 5383TIP3   OH237563   5.302   6.544  13.115  0.5094  0.3933  0.4877
 5383TIP3    H137564   5.355   6.469  13.144 -0.7951 -0.4435  0.8129
 5383TIP3    H237565   5.237   6.505  13.056 -1.9611  0.7735  2.7913
 5384TIP3   OH237566   3.600   2.063   3.021 -0.6041  0.1645 -0.3868
 5384TIP3    H137567   3.571   2.030   3.106  0.3593  1.2268  0.3694
 5384TIP3    H237568   3.522   2.058   2.966 -0.8832 -1.8789  0.1299
 5385TIP3   OH237569   0.266   6.680  12.124 -0.0001 -0.4967 -0.4073
 5385TIP3    H137570   0.329   6.691  12.053 -0.7926  2.3993 -0.8220
 5385TIP3    H237571   0.184   6.657  12.080  0.2362 -2.0311 -0.0806
 5386TIP3   OH237572   0.064   1.270   0.283  0.7786 -0.0692  0.3367
 5386TIP3    H137573   0.112   1.326   0.344  0.8772 -0.3568  0.5250
 5386TIP3    H237574   0.045   1.191   0.333 -1.7357  0.8398  0.9501
 5387TIP3   OH237575   0.245   6.272  15.728 -0.6874 -0.0521 -0.5211
 5387TIP3    H137576   0.152   6.257  15.748 -0.4156  0.3941  1.2495
 5387TIP3    H237577   0.253   6.252  15.635 -2.4030 -0.8502 -0.5374
 5388TIP3   OH237578   0.466   4.972  11.823  0.0743 -0.0319 -0.7010
 5388TIP3    H137579   0.386   5.019  11.799 -2.3076 -2.0178  2.4586
 5388TIP3    H237580   0.531   5.040  11.835 -2.1206  2.1177 -0.1208
 5389TIP3   OH237581   5.467   2.838  11.788 -0.4703  0.6305  0.5151
 5389TIP3    H137582   5.436   2.753  11.756 -1.4200  0.7389  1.1034
 5389TIP3    H237583   5.563   2.831  11.788 -0.4162  0.4873 -1.9409
 5390TIP3   OH237584   0.808   4.647   6.084  0.2167  0.3532  0.2253
 5390TIP3    H137585   0.783   4.676   6.171 -0.8063 -0.1963  0.1264
 5390TIP3    H237586   0.750   4.694   6.025 -0.2008 -0.4932 -0.0505
 5391TIP3   OH237587   3.483   0.202  11.356  0.2064  0.5479  0.4331
 5391TIP3    H137588   3.426   0.212  11.432  0.3570  0.4403  0.5620
 5391TIP3    H237589   3.555   0.263  11.371  0.6090  0.0102  0.7341
 5392TIP3   OH237590   5.910   4.923   6.069 -0.1352 -0.7918 -0.0249
 5392TIP3    H137591   5.998   4.887   6.059  0.2092  0.2658 -1.0909
 5392TIP3    H237592   5.907   4.997   6.008 -0.9226  0.7896  1.8376
 5393TIP3   OH237593   1.045   1.221   2.702  0.2143 -0.7739 -0.2271
 5393TIP3    H137594   1.081   1.231   2.614  1.8988  0.0825  0.5185
 5393TIP3    H237595   1.121   1.207   2.758 -0.7425 -0.4310  1.2222
 5394TIP3   OH237596   3.839   5.852   4.509  0.1969  0.2041  0.1878
 5394TIP3    H137597   3.868   5.942   4.526 -1.3900  0.6322  0.7999
 5394TIP3    H237598   3.759   5.862   4.457  0.4849 -0.8970 -0.5108
 5395TIP3   OH237599   5.659   5.013   3.890 -0.1154 -0.1359 -0.1395
 5395TIP3    H137600   5.569   4.991   3.913  0.5813 -2.9366  0.2736
 5395TIP3    H237601   5.697   5.050   3.970  0.2256 -2.9955  1.1499
 5396TIP3   OH237602   6.177   3.856   3.403 -0.4086 -0.4834  0.3066
 5396TIP3    H137603   6.233   3.834   3.329 -0.8267 -1.2130  0.1968
 5396TIP3    H237604   6.218   3.813   3.478 -0.8850 -1.1292  0.2027
 5397TIP3   OH237605   0.166   5.969   3.227  0.0420 -0.4037  1.0515
 5397TIP3    H137606   0.134   6.017   3.303 -0.5842 -0.8468  1.0709
 5397TIP3    H237607   0.194   5.884   3.262 -4.3868 -2.4574  0.2745
 5398TIP3   OH237608   3.464   1.108   1.318  0.6954  0.2138  0.3358
 5398TIP3    H137609   3.475   1.021   1.280 -0.6858 -0.0103  0.4079
 5398TIP3    H237610   3.548   1.127   1.360  1.7296 -0.1921 -1.4613
 5399TIP3   OH237611   1.075   6.179  17.376  0.1444  0.2740 -0.4278
 5399TIP3    H137612   1.127   6.104  17.404 -0.0396 -0.5853 -2.2686
 5399TIP3    H237613   1.124   6.216  17.302  0.7462  2.6118  1.0343
 5400TIP3   OH237614   2.591   5.512   1.466 -0.6173  0.5681  0.0247
 5400TIP3    H137615   2.543   5.505   1.383 -4.1744 -0.0731  1.9628
 5400TIP3    H237616   2.657   5.443   1.460 -2.7218 -1.5060 -1.1992
 5401TIP3   OH237617   1.262   1.082   1.351 -0.1376  0.3822  0.3431
 5401TIP3    H137618   1.291   1.159   1.302  1.2678 -0.8416 -0.8376
 5401TIP3    H237619   1.257   1.112   1.442  1.0933  1.6745  0.0121
 5402TIP3   OH237620   3.051   5.278  13.427  0.6100 -0.0975 -0.2879
 5402TIP3    H137621   3.119   5.341  13.401  1.3835 -1.6100 -2.2033
 5402TIP3    H237622   3.051   5.214  13.356 -0.3742 -2.0619  1.4164
 5403TIP3   OH237623   0.314   2.230  17.009 -0.0087 -0.2491  0.3432
 5403TIP3    H137624   0.386   2.221  16.947 -1.0268  0.8084 -1.0398
 5403TIP3    H237625   0.356   2.233  17.095  1.8297  2.7376 -0.5327
 5404TIP3   OH237626   5.660   0.331  17.028 -0.2248 -0.6019  0.2047
 5404TIP3    H137627   5.731   0.268  17.044  0.2496 -0.6862 -1.9309
 5404TIP3    H237628   5.685   0.375  16.946 -2.1589  0.0685 -0.0760
 5405TIP3   OH237629   1.281   4.875   3.118 -0.6614  0.0486 -0.8266
 5405TIP3    H137630   1.268   4.894   3.211 -1.7697  0.5285 -1.0622
 5405TIP3    H237631   1.359   4.925   3.094 -0.6096  0.2503 -0.2433
 5406TIP3   OH237632   0.492   6.416  15.559  0.2673  0.1334 -0.2222
 5406TIP3    H137633   0.464   6.475  15.489 -0.6851 -1.3194 -1.1116
 5406TIP3    H237634   0.587   6.427  15.563  0.0403  2.6655  0.5529
 5407TIP3   OH237635   3.942   5.483  11.703 -0.1390  0.0110  0.0818
 5407TIP3    H137636   3.946   5.428  11.780 -0.9746 -0.4233 -0.1752
 5407TIP3    H237637   3.921   5.570  11.737  2.0957  0.4173  0.5767
 5408TIP3   OH237638   6.133   0.212   2.276  0.0970 -0.3438  0.2150
 5408TIP3    H137639   6.126   0.199   2.181  1.1562 -0.8331  0.1839
 5408TIP3    H237640   6.164   0.302   2.286 -2.4676  0.6137  0.2282
 5409TIP3   OH237641   3.405   1.452   6.757  0.5550  0.4390  0.4195
 5409TIP3    H137642   3.318   1.479   6.787  0.4142 -1.5135  2.0036
 5409TIP3    H237643   3.454   1.534   6.746 -1.1156  1.5067  0.6598
 5410TIP3   OH237644   5.366   1.833   5.163 -0.4266 -0.3009  0.6590
 5410TIP3    H137645   5.309   1.850   5.238 -2.4877 -0.6260 -0.7404
 5410TIP3    H237646   5.368   1.917   5.116  0.9021 -0.0818  1.0506
 5411TIP3   OH237647   4.340   6.310   6.807 -0.3769  0.0582  0.1151
 5411TIP3    H137648   4.335   6.398   6.771  1.2306  1.2256  2.4940
 5411TIP3    H237649   4.257   6.297   6.852 -0.1843  0.8221  0.7018
 5412TIP3   OH237650   3.622   0.893   4.895 -0.2655 -0.9396 -0.3104
 5412TIP3    H137651   3.692   0.955   4.918 -1.7880  0.3832  1.0350
 5412TIP3    H237652   3.623   0.829   4.966 -1.0572 -0.3173  0.2827
 5413TIP3   OH237653   4.911   3.915  11.370 -0.0935  0.3091 -0.2509
 5413TIP3    H137654   4.825   3.940  11.335  0.2728  1.9349 -0.1122
 5413TIP3    H237655   4.965   3.899  11.292 -0.9111 -2.3382 -0.3345
 5414TIP3   OH237656   5.064   1.432  12.811 -0.1232  0.4158  0.1254
 5414TIP3    H137657   5.070   1.373  12.735  1.4433  0.9346 -0.2014
 5414TIP3    H237658   5.151   1.427  12.851 -0.2687  1.7790  0.6478
 5415TIP3   OH237659   1.781   2.486   5.257  0.3422 -0.3533 -0.3692
 5415TIP3    H137660   1.841   2.445   5.195  1.6979  0.1729  0.5458
 5415TIP3    H237661   1.829   2.562   5.289 -0.6583 -0.1594  0.7053
 5416TIP3   OH237662   6.493   0.370   2.615  0.3376  0.4364  0.5778
 5416TIP3    H137663   6.483   0.319   2.535  0.5519  0.4602  0.5366
 5416TIP3    H237664   6.583   0.401   2.614  0.7069 -0.5511  1.4174
 5417TIP3   OH237665   0.975   1.272   1.793 -0.0013  0.2830 -0.2704
 5417TIP3    H137666   0.981   1.218   1.715  0.7872  0.8556 -0.6224
 5417TIP3    H237667   0.979   1.362   1.760  0.3914  0.5299  0.4271
 5418TIP3   OH237668   0.894   2.920  14.611 -0.2261 -0.2134 -0.2959
 5418TIP3    H137669   0.970   2.868  14.637  0.2354 -0.6324 -2.2810
 5418TIP3    H237670   0.920   2.961  14.529 -0.4702  3.4855  1.2938
 5419TIP3   OH237671   3.911   4.802  16.700 -0.2589 -0.4308 -0.6003
 5419TIP3    H137672   3.827   4.813  16.657 -0.6476 -0.3596  0.1617
 5419TIP3    H237673   3.893   4.743  16.774  0.6833 -1.7362 -1.3753
 5420TIP3   OH237674   4.172   2.551   5.800  0.5282 -0.1588  0.0568
 5420TIP3    H137675   4.160   2.531   5.893  2.5789  0.8674  0.6092
 5420TIP3    H237676   4.133   2.638   5.790 -1.0120 -0.8678 -0.4328
 5421TIP3   OH237677   5.912   6.086  14.609 -0.4294  0.6310  0.2396
 5421TIP3    H137678   5.968   6.038  14.548  1.0085  1.0379  1.1858
 5421TIP3    H237679   5.918   6.178  14.580 -1.5411  0.5273 -0.3435
 5422TIP3   OH237680   1.621   5.823  15.460  0.2313  0.1903 -0.3832
 5422TIP3    H137681   1.636   5.781  15.544 -1.8420  0.4290  0.1748
 5422TIP3    H237682   1.571   5.902  15.481  0.1444  0.5438 -1.7897
 5423TIP3   OH237683   6.106   2.975  17.182 -0.0084 -0.6281  0.2815
 5423TIP3    H137684   6.198   2.980  17.209 -0.1222 -0.8232  0.7163
 5423TIP3    H237685   6.079   2.885  17.204 -0.2197 -0.6680 -0.1243
 5424TIP3   OH237686   2.107   1.016   5.749  0.4052  0.4218 -0.2281
 5424TIP3    H137687   2.145   0.932   5.774  0.2650  0.2566 -0.5609
 5424TIP3    H237688   2.171   1.053   5.687  0.0392  0.1507 -0.7765
 5425TIP3   OH237689   6.141   2.165  10.698  0.0784 -0.1984 -0.0131
 5425TIP3    H137690   6.166   2.072  10.701 -1.3271 -0.6700 -1.5906
 5425TIP3    H237691   6.108   2.183  10.786 -0.7409 -1.5594  0.0016
 5426TIP3   OH237692   4.627   3.858  15.788 -0.3115 -0.4957 -0.0339
 5426TIP3    H137693   4.584   3.918  15.728 -0.3626 -0.2377  0.2591
 5426TIP3    H237694   4.707   3.904  15.814  0.2739 -1.0577 -0.7487
 5427TIP3   OH237695   2.384   0.432  12.440  0.5137  0.5199 -0.0418
 5427TIP3    H137696   2.309   0.389  12.481  0.7083 -0.0235 -0.2379
 5427TIP3    H237697   2.453   0.426  12.506  0.9580 -0.7487 -0.5825
 5428TIP3   OH237698   5.455   6.028   4.525 -0.1358  0.2243 -0.2676
 5428TIP3    H137699   5.429   5.936   4.515 -1.2196  0.6076 -1.2613
 5428TIP3    H237700   5.372   6.076   4.528  0.4178  1.1925  0.0379
 5429TIP3   OH237701   4.232   4.196  13.586 -0.6291 -0.1758  0.3825
 5429TIP3    H137702   4.142   4.163  13.581 -1.0348  0.6561  1.5189
 5429TIP3    H237703   4.232   4.273  13.529 -0.3507 -0.7343 -0.3858
 5430TIP3   OH237704   0.062   2.784   1.325  0.4535  0.2758 -0.2510
 5430TIP3    H137705   0.143   2.832   1.343  0.1908  0.4664  0.4790
 5430TIP3    H237706   0.073   2.750   1.237  2.0174 -1.0747  0.4149
 5431TIP3   OH237707   0.155   6.108  16.027  0.2690  0.8313 -0.0190
 5431TIP3    H137708   0.136   6.061  15.946  0.5568  0.0937  0.3295
 5431TIP3    H237709   0.069   6.126  16.065  0.1122  1.6428 -0.7341
 5432TIP3   OH237710   3.128   5.979  15.686 -0.0336  0.0354 -0.0871
 5432TIP3    H137711   3.073   6.045  15.644 -1.7490 -1.0585  0.3868
 5432TIP3    H237712   3.068   5.927  15.740  1.6242 -0.5129  1.3294
 5433TIP3   OH237713   4.237   6.256  14.677 -0.6926  0.0897  0.3032
 5433TIP3    H137714   4.328   6.267  14.648 -0.2315 -0.4005  1.4800
 5433TIP3    H237715   4.209   6.173  14.638 -1.0419  0.8176 -1.0198
 5434TIP3   OH237716   2.696   3.824   3.151  0.1596  0.1031 -0.1185
 5434TIP3    H137717   2.708   3.729   3.143  0.3443  0.1151  0.0209
 5434TIP3    H237718   2.756   3.861   3.086 -0.7996  0.0865 -1.0445
 5435TIP3   OH237719   5.921   5.653   2.696  0.8701  0.2660  0.5373
 5435TIP3    H137720   5.934   5.601   2.617  1.3701 -1.8945  1.9445
 5435TIP3    H237721   5.861   5.723   2.670  0.2270 -0.9722 -1.4999
 5436TIP3   OH237722   3.917   2.883  13.689  0.1687 -0.3806 -0.1686
 5436TIP3    H137723   3.869   2.856  13.767  1.4880 -0.5544  0.6122
 5436TIP3    H237724   3.861   2.855  13.616 -0.7915 -0.7898  0.6930
 5437TIP3   OH237725   0.566   3.448  13.393  0.1018  0.1002 -0.1374
 5437TIP3    H137726   0.481   3.462  13.351 -0.4259  0.5803  1.0439
 5437TIP3    H237727   0.557   3.363  13.437 -0.4980  1.0465  1.6456
 5438TIP3   OH237728   2.927   4.140   0.632  0.0211 -0.2167 -0.2444
 5438TIP3    H137729   2.988   4.109   0.698 -0.9409  0.8274  1.1956
 5438TIP3    H237730   2.859   4.072   0.628  0.0711 -0.2712 -0.1498
 5439TIP3   OH237731   1.845   4.277   0.189 -0.5402 -0.2274 -0.1031
 5439TIP3    H137732   1.773   4.339   0.186  0.0118  0.4046 -0.6369
 5439TIP3    H237733   1.868   4.272   0.282 -1.1811 -0.3340  0.0504
 5440TIP3   OH237734   4.662   0.388   1.261 -0.2914  0.1477  0.5016
 5440TIP3    H137735   4.649   0.362   1.352 -1.3467  0.3400  0.4184
 5440TIP3    H237736   4.583   0.360   1.216  0.4724 -0.4670 -0.4889
 5441TIP3   OH237737   6.367   6.747   0.118 -0.4387 -0.0594 -0.2615
 5441TIP3    H137738   6.395   6.715   0.032  0.9948 -1.1268  0.5628
 5441TIP3    H237739   6.441   6.798   0.150 -1.2205  0.8918  0.0934
 5442TIP3   OH237740   6.043   4.512   6.043 -0.0561  0.0490 -0.7989
 5442TIP3    H137741   6.125   4.554   6.069  0.6360 -0.5055 -2.0508
 5442TIP3    H237742   5.979   4.546   6.106  0.6617  2.2286 -1.1455
 5443TIP3   OH237743   1.941   4.665  13.359 -0.1817 -0.0182  0.0836
 5443TIP3    H137744   1.978   4.675  13.446 -0.1292 -1.9236  0.3322
 5443TIP3    H237745   1.995   4.598  13.317  1.7592  2.9588 -2.6160
 5444TIP3   OH237746   1.702   4.013   4.597 -0.3432 -0.5164 -0.7601
 5444TIP3    H137747   1.773   4.077   4.606 -1.4208  0.7292 -0.7252
 5444TIP3    H237748   1.721   3.967   4.516  0.1939  0.2040 -1.0523
 5445TIP3   OH237749   5.770   5.951   6.454  0.2911  0.1881  0.1586
 5445TIP3    H137750   5.692   5.963   6.508 -0.9814 -1.2923 -1.2490
 5445TIP3    H237751   5.784   6.037   6.413 -1.5128  0.1333 -0.6711
 5446TIP3   OH237752   3.052   1.608  17.134 -0.2187 -0.2141 -0.6614
 5446TIP3    H137753   3.041   1.644  17.047 -0.1038 -1.6825 -1.3190
 5446TIP3    H237754   3.009   1.671  17.192 -3.4807 -0.9005 -2.1153
 5447TIP3   OH237755   1.729   0.882  11.386 -0.0316 -0.2692  0.1902
 5447TIP3    H137756   1.766   0.804  11.426  0.3986 -0.4477 -0.5469
 5447TIP3    H237757   1.802   0.923  11.340 -0.6278 -0.3441 -0.8328
 5448TIP3   OH237758   0.173   1.686   4.977  0.0649 -0.1797 -0.1264
 5448TIP3    H137759   0.128   1.649   5.053  0.5129  0.2942  0.3794
 5448TIP3    H237760   0.140   1.636   4.903  2.3942 -3.3058  0.7247
 5449TIP3   OH237761   3.049   0.149   3.379  0.1132  0.0190 -0.0930
 5449TIP3    H137762   3.143   0.153   3.365 -0.1220  0.4787 -1.7098
 5449TIP3    H237763   3.011   0.200   3.308 -1.4348 -1.4015 -0.3742
 5450TIP3   OH237764   5.832   0.132  15.726 -0.0818  0.4250 -0.0018
 5450TIP3    H137765   5.895   0.205  15.730  0.4680 -0.0507  0.1476
 5450TIP3    H237766   5.886   0.054  15.714 -0.5106 -0.1760  1.6233
 5451TIP3   OH237767   4.057   1.001   1.353 -0.0533  0.7732  0.5183
 5451TIP3    H137768   4.140   0.954   1.344 -0.8866 -0.3959 -1.8464
 5451TIP3    H237769   4.077   1.091   1.327  0.7347  0.8626  1.3543
 5452TIP3   OH237770   1.152   2.322  11.900  0.1905  0.2939  0.1331
 5452TIP3    H137771   1.150   2.230  11.874  3.8374  0.5020 -1.4203
 5452TIP3    H237772   1.133   2.320  11.994 -2.5490 -1.6416 -0.3167
 5453TIP3   OH237773   1.902   5.855   0.187  0.0503 -0.4961 -0.0453
 5453TIP3    H137774   1.964   5.908   0.238 -1.6439  0.0158  1.5999
 5453TIP3    H237775   1.894   5.774   0.237  1.8246 -1.9912 -1.9973
 5454TIP3   OH237776   6.404   5.230   3.389  0.1502  0.0936 -0.3366
 5454TIP3    H137777   6.406   5.232   3.484  1.2259 -1.1011 -0.3025
 5454TIP3    H237778   6.354   5.151   3.368 -0.0055  0.3031 -0.7478
 5455TIP3   OH237779   5.997   5.529   2.476  0.2226  0.0022 -0.1265
 5455TIP3    H137780   6.036   5.580   2.405  0.9038 -2.1108 -1.3786
 5455TIP3    H237781   6.072   5.495   2.525 -0.1507 -0.7514 -0.0580
 5456TIP3   OH237782   0.894   2.038  12.761  0.8170  0.1290 -0.1591
 5456TIP3    H137783   0.918   2.081  12.679  0.7913 -1.9644 -1.3399
 5456TIP3    H237784   0.962   1.972  12.776 -0.6780 -1.5098 -0.1265
 5457TIP3   OH237785   6.340   2.116  13.584  0.3932  0.1276 -0.1844
 5457TIP3    H137786   6.245   2.122  13.569 -0.1349 -1.8614  1.7724
 5457TIP3    H237787   6.350   2.127  13.678  2.0212 -0.4832 -0.2553
 5458TIP3   OH237788   3.130   1.971  16.929 -0.3651 -0.1230  0.4907
 5458TIP3    H137789   3.209   1.952  16.978 -1.6187 -0.2181  2.5941
 5458TIP3    H237790   3.060   1.973  16.995 -1.9935  0.7776 -1.1541
 5459TIP3   OH237791   2.265   4.216  17.102 -0.5896  0.0770  0.3055
 5459TIP3    H137792   2.237   4.296  17.148  0.6797  0.1929  0.9108
 5459TIP3    H237793   2.218   4.146  17.146 -2.7739  0.5343 -1.0801
 5460TIP3   OH237794   3.048   3.115   1.515  0.3586  0.2479  0.2943
 5460TIP3    H137795   3.105   3.041   1.536 -0.1423  0.4427  2.6010
 5460TIP3    H237796   3.101   3.169   1.455  1.4768 -0.9738  0.1277
 5461TIP3   OH237797   0.870   0.758   5.785  0.2093  0.3429  0.1862
 5461TIP3    H137798   0.892   0.665   5.789 -0.0093  0.3399  1.8625
 5461TIP3    H237799   0.869   0.787   5.876  1.5804  2.3180 -0.3495
 5462TIP3   OH237800   6.164   6.739   0.474  0.1290  0.1122 -0.1433
 5462TIP3    H137801   6.193   6.664   0.421  0.4869  0.5338 -0.5544
 5462TIP3    H237802   6.139   6.805   0.409 -1.7866 -0.2392  0.1946
 5463TIP3   OH237803   4.268   1.766   0.037 -0.1083 -0.0186 -0.3302
 5463TIP3    H137804   4.352   1.724   0.057  0.4219  0.8772 -0.5906
 5463TIP3    H237805   4.203   1.710   0.078  0.8204  1.0019  2.8115
 5464TIP3   OH237806   6.172   0.021  14.915  0.5917 -0.0992 -0.1170
 5464TIP3    H137807   6.083  -0.003  14.941  0.3998 -0.0749 -0.7410
 5464TIP3    H237808   6.228  -0.040  14.962  0.3906  1.2046  1.9396
 5465TIP3   OH237809   0.381   5.810  15.856  0.2448  0.0792 -0.5313
 5465TIP3    H137810   0.324   5.785  15.783  0.9259 -0.0590 -1.0277
 5465TIP3    H237811   0.321   5.832  15.927 -0.4619  0.8383 -1.3308
 5466TIP3   OH237812   5.479   5.784  14.078 -0.4789  0.3242  0.4419
 5466TIP3    H137813   5.510   5.874  14.077 -1.7294  0.7700 -0.6125
 5466TIP3    H237814   5.534   5.739  14.013  0.2303  0.2815  1.0613
 5467TIP3   OH237815   5.072   5.581   1.367 -0.7787  0.1541  0.5292
 5467TIP3    H137816   5.016   5.548   1.437 -2.7026 -2.9454 -2.1637
 5467TIP3    H237817   5.155   5.535   1.379 -1.1144 -0.3998  0.7693
 5468TIP3   OH237818   3.814   1.661  12.146  0.2437  0.2703 -0.5273
 5468TIP3    H137819   3.729   1.704  12.157  0.2131 -0.0824  0.7964
 5468TIP3    H237820   3.793   1.577  12.103  0.1820  1.0329 -2.0795
 5469TIP3   OH237821   2.739   4.304   0.516 -0.6338  0.1442  0.0168
 5469TIP3    H137822   2.670   4.288   0.580 -0.3599  0.4554  0.4021
 5469TIP3    H237823   2.818   4.269   0.557 -0.5722 -0.2630 -0.4461
 5470TIP3   OH237824   0.610   3.481  12.421 -0.3318 -0.2398  0.7097
 5470TIP3    H137825   0.565   3.507  12.501 -1.1165 -1.5754  0.7278
 5470TIP3    H237826   0.613   3.561  12.368 -0.8345  0.3769  1.5969
 5471TIP3   OH237827   5.161   3.753  16.028 -0.2486  0.2581  0.1875
 5471TIP3    H137828   5.249   3.787  16.042  0.7026 -2.2546  0.9556
 5471TIP3    H237829   5.128   3.802  15.952  0.9575  2.6929  1.1435
 5472TIP3   OH237830   0.496   3.805  15.587  0.0916  0.9612 -0.3616
 5472TIP3    H137831   0.562   3.821  15.520  2.0559  0.7628  1.4462
 5472TIP3    H237832   0.541   3.754  15.654 -1.8347  1.0541  1.0864
 5473TIP3   OH237833   2.161   5.518  13.629  0.4066  0.2684 -0.1704
 5473TIP3    H137834   2.079   5.497  13.675  1.2397  0.4984  1.4980
 5473TIP3    H237835   2.218   5.552  13.698  0.9375  2.9056 -1.8042
 5474TIP3   OH237836   0.025   0.705   0.821 -0.8441 -0.7903  0.0914
 5474TIP3    H137837   0.116   0.681   0.839  0.5296  2.1542 -1.9312
 5474TIP3    H237838  -0.007   0.636   0.763  0.5377 -1.3093 -0.1011
 5475TIP3   OH237839   2.578   1.604   5.069  0.1613  0.2534  0.1000
 5475TIP3    H137840   2.601   1.530   5.011 -0.0021 -0.0395  0.4056
 5475TIP3    H237841   2.489   1.584   5.098 -0.3724  1.2067 -0.8029
 5476TIP3   OH237842   5.344   3.845   3.938  0.6729  0.6967  0.2019
 5476TIP3    H137843   5.358   3.838   3.843  1.2126  1.1857  0.2347
 5476TIP3    H237844   5.426   3.814   3.977  0.5042  0.6261  0.5044
 5477TIP3   OH237845   0.601   5.954  15.856 -0.3198 -0.2126  0.6179
 5477TIP3    H137846   0.516   5.911  15.865 -0.6512  0.4033  0.4736
 5477TIP3    H237847   0.665   5.888  15.885 -0.8555 -0.6223  0.8747
 5478TIP3   OH237848   2.483   3.534   2.949  0.4521  0.2512  0.1960
 5478TIP3    H137849   2.514   3.448   2.921  0.6290  0.6052 -0.7022
 5478TIP3    H237850   2.562   3.587   2.957  0.2817  0.5207  0.0989
 5479TIP3   OH237851   6.061   4.387   1.220 -0.5800  0.1455 -0.3867
 5479TIP3    H137852   5.971   4.386   1.253 -1.1039  0.3255 -1.7121
 5479TIP3    H237853   6.105   4.316   1.266 -1.4835 -0.1190  0.0847
 5480TIP3   OH237854   3.443   6.566  17.365  0.1873  0.5049  0.7995
 5480TIP3    H137855   3.397   6.540  17.445  1.3782  0.5430  1.5062
 5480TIP3    H237856   3.388   6.635  17.328  1.1751  2.8025  3.2833
 5481TIP3   OH237857   0.722   4.101   5.434 -0.2003  0.2145 -0.0704
 5481TIP3    H137858   0.713   4.036   5.363  1.0622 -0.6470  0.5091
 5481TIP3    H237859   0.716   4.049   5.514 -1.4555  1.1621  0.4704
 5482TIP3   OH237860   4.029   3.738  15.285  0.6664  0.0134  0.6894
 5482TIP3    H137861   4.027   3.814  15.225  1.9905  0.0491  0.6520
 5482TIP3    H237862   3.940   3.704  15.283  0.5081  0.4067 -0.8179
 5483TIP3   OH237863   0.683   1.808   3.320 -0.4997 -0.1370 -0.1651
 5483TIP3    H137864   0.627   1.759   3.380 -0.3281 -0.4459 -0.2558
 5483TIP3    H237865   0.708   1.887   3.369  0.7846 -1.0468  0.6926
 5484TIP3   OH237866   2.041   3.202  13.412  0.5233  0.1317 -0.2858
 5484TIP3    H137867   1.966   3.144  13.426  1.9783 -1.2383  2.7000
 5484TIP3    H237868   2.007   3.290  13.431 -0.7631 -0.2092 -0.9197
 5485TIP3   OH237869   5.136   5.343  13.434 -0.3362  0.0085 -0.6940
 5485TIP3    H137870   5.146   5.345  13.529  2.8883  1.2836 -0.9234
 5485TIP3    H237871   5.142   5.251  13.411 -0.0465 -0.2272  0.2738
 5486TIP3   OH237872   6.147   2.907  14.581 -0.1193 -0.0503  0.4473
 5486TIP3    H137873   6.070   2.856  14.555  0.1628  0.2608 -1.0820
 5486TIP3    H237874   6.185   2.857  14.653 -2.2954  0.3112  1.9687
 5487TIP3   OH237875   4.807   3.750   3.119  0.0149 -0.0521 -0.3126
 5487TIP3    H137876   4.819   3.684   3.051 -0.2530 -0.7759  0.3294
 5487TIP3    H237877   4.711   3.758   3.128  0.0479  0.0272 -0.0117
 5488TIP3   OH237878   4.800   0.328   0.013 -0.1188 -0.4269 -0.4902
 5488TIP3    H137879   4.807   0.251  -0.044  0.0667 -0.8249  0.0701
 5488TIP3    H237880   4.850   0.306   0.091  1.6692  1.0493 -1.1525
 5489TIP3   OH237881   2.914   2.461  15.225  0.3303 -0.1450  0.0462
 5489TIP3    H137882   2.853   2.525  15.190 -0.1595 -1.0819 -0.8477
 5489TIP3    H237883   2.927   2.398  15.154  1.1285 -0.8038  0.7553
 5490TIP3   OH237884   6.622   0.137   0.212  0.4907  0.5775  0.8672
 5490TIP3    H137885   6.713   0.108   0.209  0.1807 -0.5719  1.8583
 5490TIP3    H237886   6.591   0.109   0.297 -1.2386 -0.4134 -0.0454
 5491TIP3   OH237887   4.208   0.559  13.071  0.5407 -0.1089  0.0585
 5491TIP3    H137888   4.206   0.464  13.087  0.9279 -0.1601 -0.1783
 5491TIP3    H237889   4.151   0.571  12.995 -0.4903  0.0079  0.8263
 5492TIP3   OH237890   3.737   0.245   0.869 -0.2139  0.1555 -0.2623
 5492TIP3    H137891   3.726   0.339   0.882 -1.2488  0.2233 -1.3888
 5492TIP3    H237892   3.751   0.210   0.957 -0.4059  1.2904  0.2429
 5493TIP3   OH237893   2.144   3.609  12.402 -0.3620 -0.7473 -0.2701
 5493TIP3    H137894   2.059   3.609  12.447 -0.5895  1.5712 -0.5990
 5493TIP3    H237895   2.205   3.570  12.466 -1.0117  0.8216  1.3802
 5494TIP3   OH237896   3.959   4.211  12.170  0.0693 -0.0861  1.0549
 5494TIP3    H137897   3.864   4.220  12.175 -0.2558  0.4802 -3.0542
 5494TIP3    H237898   3.974   4.119  12.150  0.3037 -0.0098  0.8670
 5495TIP3   OH237899   2.574   1.974   6.660  0.3686  0.1723  0.1948
 5495TIP3    H137900   2.538   1.961   6.748  1.2891  1.8155  0.8663
 5495TIP3    H237901   2.654   1.922   6.659  1.4537  1.7112  1.1260
 5496TIP3   OH237902   0.448   6.546   0.291  0.1913  0.6414  0.6092
 5496TIP3    H137903   0.505   6.578   0.221 -0.5316  0.4157 -0.0984
 5496TIP3    H237904   0.360   6.553   0.255 -0.2895  1.4661  1.8619
 5497TIP3   OH237905   1.444   1.503  16.772  0.3524 -0.1765  0.1521
 5497TIP3    H137906   1.413   1.413  16.784 -1.0187  0.0011 -1.5980
 5497TIP3    H237907   1.491   1.501  16.689 -0.2017  0.8273 -0.2032
 5498TIP3   OH237908   0.002   4.353  13.663  0.2460  0.1674 -0.7096
 5498TIP3    H137909   0.042   4.295  13.598 -0.2657  0.0200 -0.8914
 5498TIP3    H237910   0.055   4.432  13.660  2.3660 -1.0343  1.0890
 5499TIP3   OH237911   4.333   1.595  14.383  0.0537  0.0661  0.2608
 5499TIP3    H137912   4.283   1.653  14.440 -0.2840  0.2357 -0.2009
 5499TIP3    H237913   4.421   1.633  14.380  0.0625  0.0757  0.6372
 5500TIP3   OH237914   5.900   6.351   2.989  0.5751 -0.3759  0.1031
 5500TIP3    H137915   5.989   6.320   3.006  0.1997 -0.9400  1.1424
 5500TIP3    H237916   5.844   6.278   3.017 -0.2788  0.6688  1.1893
 5501TIP3   OH237917   0.620   4.090   3.107 -0.1935 -0.0173  0.1393
 5501TIP3    H137918   0.695   4.042   3.073  0.5402 -0.4230  2.1660
 5501TIP3    H237919   0.656   4.146   3.175 -1.2299  2.5407 -1.2809
 5502TIP3   OH237920   2.588   1.035  15.595 -0.4068  0.6051  0.0654
 5502TIP3    H137921   2.614   1.041  15.503  2.3786  1.8376  0.8269
 5502TIP3    H237922   2.601   1.123  15.629 -1.4538  0.1834  1.6531
 5503TIP3   OH237923   3.676   1.672   1.931  0.0166 -0.4397  0.1001
 5503TIP3    H137924   3.735   1.663   1.856  0.1607  1.2512 -0.0280
 5503TIP3    H237925   3.721   1.625   2.002  0.5849 -0.8174 -0.5003
 5504TIP3   OH237926   2.045   6.227   3.463  0.6683  0.4734 -0.0928
 5504TIP3    H137927   2.137   6.240   3.437  0.6747  1.1139  0.2276
 5504TIP3    H237928   2.017   6.150   3.415  1.4638  0.1047  0.0144
 5505TIP3   OH237929   2.761   3.222  11.151  0.1709 -0.4183 -0.2163
 5505TIP3    H137930   2.711   3.178  11.084  0.3485 -0.9151 -0.0263
 5505TIP3    H237931   2.834   3.264  11.104 -0.3036  0.1408 -0.4638
 5506TIP3   OH237932   2.063   3.057  12.489 -0.4508 -0.0075  0.6114
 5506TIP3    H137933   2.137   3.001  12.511  0.0808  0.7644  0.8418
 5506TIP3    H237934   2.038   3.099  12.571 -1.3502 -0.4891  0.5983
 5507TIP3   OH237935   0.099   6.362   2.259  0.1686  0.0631  0.3531
 5507TIP3    H137936   0.169   6.410   2.303  0.1057 -0.1396  0.6711
 5507TIP3    H237937   0.029   6.355   2.324 -0.2773  0.5447 -0.0644
 5508TIP3   OH237938   2.336   1.698  17.112 -0.0317 -0.5283 -0.2894
 5508TIP3    H137939   2.421   1.720  17.074  0.2813  1.8263  1.5331
 5508TIP3    H237940   2.287   1.781  17.111 -1.3342 -1.2324  0.9820
 5509TIP3   OH237941   3.732   4.709  14.498 -0.4113 -0.2407  0.3019
 5509TIP3    H137942   3.757   4.750  14.416 -0.1859 -1.0891 -0.0707
 5509TIP3    H237943   3.788   4.750  14.564 -1.6265  1.5090  0.2877
 5510TIP3   OH237944   2.869   2.663  15.591 -1.0541 -0.0471  0.6869
 5510TIP3    H137945   2.858   2.610  15.670  0.5493  0.3784  1.2254
 5510TIP3    H237946   2.926   2.611  15.535 -0.7006  0.4521  0.5781
 5511TIP3   OH237947   2.268   0.004   0.995  0.3039  0.1162  0.4013
 5511TIP3    H137948   2.200   0.041   0.938  1.7452  2.0566 -0.1820
 5511TIP3    H237949   2.333  -0.033   0.935  0.6558 -0.0530  0.8777
 5512TIP3   OH237950   0.918   5.362   5.448  0.0733  0.0214  0.0666
 5512TIP3    H137951   0.856   5.352   5.521 -1.9404 -1.7364 -1.7220
 5512TIP3    H237952   0.957   5.275   5.438  0.1420  0.1729 -1.0822
 5513TIP3   OH237953   3.423   0.319   4.795 -0.2125 -0.2794 -0.2428
 5513TIP3    H137954   3.446   0.404   4.833 -0.1502  0.2458 -1.4073
 5513TIP3    H237955   3.426   0.333   4.701 -1.5726 -1.2067 -0.4615
 5514TIP3   OH237956   3.343   5.059  15.760 -0.5509 -0.1718  0.5703
 5514TIP3    H137957   3.318   5.084  15.672  3.1273  1.1061 -0.3222
 5514TIP3    H237958   3.302   5.124  15.817 -1.1292  0.3686 -0.4479
 5515TIP3   OH237959   0.441   5.338  12.170  0.8901  0.2161 -0.6315
 5515TIP3    H137960   0.441   5.425  12.131  1.3563  0.8960  0.8138
 5515TIP3    H237961   0.415   5.352  12.261 -1.9654 -1.5211 -1.0305
 5516TIP3   OH237962   2.155   2.395  16.610  0.0539  0.3321  0.0108
 5516TIP3    H137963   2.230   2.408  16.552 -0.6075  0.3309 -0.8802
 5516TIP3    H237964   2.193   2.370  16.694  1.0316  0.0339 -0.5036
 5517TIP3   OH237965   3.568   0.368  15.443 -0.2813 -0.0100  0.7453
 5517TIP3    H137966   3.507   0.413  15.385 -2.3124 -2.1911  1.0508
 5517TIP3    H237967   3.607   0.438  15.495  0.8181  1.9361 -2.3648
 5518TIP3   OH237968   4.225   6.485   4.093  0.3809  0.0447  0.6127
 5518TIP3    H137969   4.261   6.504   4.180  1.9668  1.7853 -0.3549
 5518TIP3    H237970   4.280   6.536   4.033 -1.1271 -0.5459 -1.3507
 5519TIP3   OH237971   0.055   4.118  13.076  0.2545 -0.2051 -0.2646
 5519TIP3    H137972   0.002   4.044  13.106 -0.7386  0.1369 -1.0859
 5519TIP3    H237973   0.019   4.139  12.990  0.5947  1.1614 -0.0960
 5520TIP3   OH237974   6.490   0.362   5.646 -0.0966  0.1773 -0.3703
 5520TIP3    H137975   6.478   0.356   5.740 -0.1735 -0.3550 -0.4099
 5520TIP3    H237976   6.425   0.425   5.616  1.4935  2.2098  0.2309
 5521TIP3   OH237977   1.993   4.841   0.725 -0.0187 -0.1726  0.2786
 5521TIP3    H137978   2.039   4.885   0.654 -0.4027  1.1775  0.8169
 5521TIP3    H237979   1.969   4.912   0.785  0.1066 -1.2384  1.6501
 5522TIP3   OH237980   2.576   0.066   4.907  0.9209  0.3971 -0.3453
 5522TIP3    H137981   2.604  -0.019   4.874  1.8137  0.4737  0.1789
 5522TIP3    H237982   2.526   0.046   4.985 -2.1752  0.1378 -2.2251
 5523TIP3   OH237983   6.402   1.635  15.213 -0.2912  0.4704 -0.4075
 5523TIP3    H137984   6.459   1.712  15.222 -0.3779  0.5058 -0.1517
 5523TIP3    H237985   6.314   1.670  15.210 -0.5196  0.2728  2.0270
 5524TIP3   OH237986   2.356   6.198   0.068  0.0764 -0.6205 -0.4654
 5524TIP3    H137987   2.410   6.145   0.010 -0.1276 -0.3341 -0.9248
 5524TIP3    H237988   2.363   6.156   0.154 -0.6120 -1.7946 -0.9577
 5525TIP3   OH237989   0.007   0.764   2.058  0.2427  0.0585 -0.1704
 5525TIP3    H137990   0.002   0.736   1.966  0.3839  2.0561 -0.8211
 5525TIP3    H237991   0.100   0.781   2.073  0.0772  0.8382 -0.0065
 5526TIP3   OH237992   6.696   6.341  11.246 -0.6012 -0.1015  0.0111
 5526TIP3    H137993   6.774   6.289  11.225  0.1671  0.8509  0.4323
 5526TIP3    H237994   6.727   6.431  11.249 -1.8815  0.3889 -0.5647
 5527TIP3   OH237995   4.790   0.632   1.500 -0.1655  0.0816  0.2693
 5527TIP3    H137996   4.826   0.720   1.501  0.6418 -0.2482  0.9365
 5527TIP3    H237997   4.708   0.640   1.450 -0.8863  1.5103  1.5894
 5528TIP3   OH237998   2.799   4.014   3.601  0.4524 -0.0885 -0.6419
 5528TIP3    H137999   2.807   4.056   3.687 -0.6549  1.0606 -1.0768
 5528TIP3    H238000   2.862   3.942   3.605 -0.3183 -0.7377  1.5187
 5529TIP3   OH238001   3.828   4.203  12.745  0.7388  0.2113  0.2222
 5529TIP3    H138002   3.823   4.111  12.771  0.0847 -0.2987 -1.5248
 5529TIP3    H238003   3.908   4.208  12.692  2.1290  1.2417  2.3170
 5530TIP3   OH238004   3.423   4.446   5.147 -0.1985  0.1342 -0.7460
 5530TIP3    H138005   3.480   4.503   5.198 -0.2439 -0.1628 -0.3637
 5530TIP3    H238006   3.447   4.464   5.056 -0.1089  0.6504 -0.6229
 5531TIP3   OH238007   2.632   3.021   3.167 -0.0504  0.1148  0.5481
 5531TIP3    H138008   2.705   3.083   3.157  0.7536 -0.4139  2.5385
 5531TIP3    H238009   2.556   3.068   3.133  1.0024  1.1361 -0.5028
 5532TIP3   OH238010   2.312   0.464   2.788  0.1055 -0.7735  0.6845
 5532TIP3    H138011   2.231   0.460   2.738  1.5458  0.2497 -1.9258
 5532TIP3    H238012   2.376   0.419   2.733  1.8389  0.5908  1.5068
 5533TIP3   OH238013   2.409   3.976   4.685 -0.0951  0.1372 -0.4249
 5533TIP3    H138014   2.365   3.936   4.610 -0.3026  0.6809 -0.5939
 5533TIP3    H238015   2.493   4.005   4.650 -0.5790  1.2724 -0.7041
 5534TIP3   OH238016   0.779   2.197   2.639  0.2481 -0.0141  0.0432
 5534TIP3    H138017   0.684   2.208   2.650  0.2942  0.6066 -0.1342
 5534TIP3    H238018   0.794   2.208   2.545  0.6896  1.6271  0.2666
 5535TIP3   OH238019   4.930   2.147   1.427  0.6215  0.0700  0.0211
 5535TIP3    H138020   4.842   2.118   1.401  0.3232  0.5326  0.4946
 5535TIP3    H238021   4.915   2.229   1.474  1.6640  2.5504 -3.6463
 5536TIP3   OH238022   2.892   1.094   0.418 -0.0272  0.0938 -0.4525
 5536TIP3    H138023   2.977   1.056   0.442  0.6099  1.9382  0.4380
 5536TIP3    H238024   2.828   1.042   0.466  0.6269 -1.0572 -0.7993
 5537TIP3   OH238025   3.784   2.388   4.740 -0.2072 -0.3276  0.3441
 5537TIP3    H138026   3.746   2.469   4.705 -1.9674 -1.0184  0.5813
 5537TIP3    H238027   3.815   2.413   4.827  0.9190  0.5123 -0.2716
 5538TIP3   OH238028   0.738   2.656   2.863 -0.5669  0.0121  0.1204
 5538TIP3    H138029   0.643   2.643   2.858 -0.7116  1.3636 -1.3582
 5538TIP3    H238030   0.775   2.574   2.831 -1.1768 -0.9820  1.8295
 5539TIP3   OH238031   4.648   3.677  14.663  0.3414  0.9806 -0.4987
 5539TIP3    H138032   4.599   3.759  14.656  0.4797  1.3353  1.8253
 5539TIP3    H238033   4.733   3.697  14.624  0.3656  1.9366  0.0195
 5540TIP3   OH238034   1.270   6.004   0.064  0.6736 -0.4743 -0.8661
 5540TIP3    H138035   1.347   6.058   0.082 -0.6973  0.5007  2.9094
 5540TIP3    H238036   1.262   5.947   0.141 -0.7426 -2.7021 -2.5187
 5541TIP3   OH238037   4.978   2.223   1.135 -0.1061  0.1873 -0.4862
 5541TIP3    H138038   4.900   2.217   1.079 -1.2994  0.7831  1.0191
 5541TIP3    H238039   4.988   2.135   1.171 -0.5040  0.2665 -0.1705
 5542TIP3   OH238040   1.712   6.485   1.865 -0.0976  0.5487 -0.2009
 5542TIP3    H138041   1.803   6.517   1.871 -0.4301  1.2331  2.0709
 5542TIP3    H238042   1.705   6.420   1.935 -0.7943 -1.1116 -1.7476
 5543TIP3   OH238043   3.999   5.184  17.274 -0.2861 -0.0723  0.1152
 5543TIP3    H138044   4.074   5.228  17.314 -0.8250  0.7562  0.2606
 5543TIP3    H238045   3.935   5.179  17.345 -0.5129 -0.4145 -0.1121
 5544TIP3   OH238046   6.396   5.423   3.704  0.2121  0.7133  0.2414
 5544TIP3    H138047   6.401   5.328   3.714 -1.0485  0.3161 -2.2068
 5544TIP3    H238048   6.383   5.456   3.793 -1.7763 -1.5942  0.9159
 5545TIP3   OH238049   0.785   1.692  16.212  0.5523  0.4211 -0.0612
 5545TIP3    H138050   0.812   1.772  16.167 -1.0645  0.4911 -0.9697
 5545TIP3    H238051   0.691   1.702  16.225  0.7555 -0.1856  2.2155
 5546TIP3   OH238052   4.626   3.472  15.795 -0.3918  0.6463 -0.2387
 5546TIP3    H138053   4.701   3.511  15.841 -1.7306  0.8791  1.9290
 5546TIP3    H238054   4.664   3.425  15.722  2.0423 -0.5398  1.6424
 5547TIP3   OH238055   0.921   1.439  12.621 -0.7723 -0.2429 -0.4621
 5547TIP3    H138056   0.839   1.392  12.604 -0.4113 -1.0494 -0.0286
 5547TIP3    H238057   0.986   1.370  12.632  0.1156  0.3977 -1.5050
 5548TIP3   OH238058   1.814   3.816   1.768 -0.1076  0.1834  0.2195
 5548TIP3    H138059   1.815   3.764   1.688  1.0509  1.6939 -0.8130
 5548TIP3    H238060   1.728   3.859   1.768  0.2940  1.0546 -0.8696
 5549TIP3   OH238061   5.619   0.438   2.247  0.3726  0.2441  0.8012
 5549TIP3    H138062   5.672   0.365   2.280  0.1539  0.4567  1.6445
 5549TIP3    H238063   5.681   0.509   2.234  0.3795  0.3243  1.2666
 5550TIP3   OH238064   6.217   5.392   2.553  0.2989  0.6860 -0.4466
 5550TIP3    H138065   6.226   5.368   2.461  0.5204  0.1511 -0.2845
 5550TIP3    H238066   6.286   5.344   2.598 -0.4868  0.0914  0.1518
 5551TIP3   OH238067   5.168   1.858  16.081 -0.4822 -0.9237 -0.3377
 5551TIP3    H138068   5.204   1.894  16.162 -1.1004  1.7327 -1.1649
 5551TIP3    H238069   5.224   1.783  16.062  1.8297  0.4249  0.7424
 5552TIP3   OH238070   6.179   5.223   5.192  0.5603  0.1321  0.5199
 5552TIP3    H138071   6.122   5.298   5.176  0.6215 -0.0078 -0.3901
 5552TIP3    H238072   6.188   5.219   5.287  0.2449  1.0398  0.5891
 5553TIP3   OH238073   1.981   4.772   4.255 -0.5200  0.2442  0.0739
 5553TIP3    H138074   2.042   4.803   4.321 -1.1771  1.4680  0.1385
 5553TIP3    H238075   1.949   4.688   4.289 -0.5797  0.6870  1.1489
 5554TIP3   OH238076   3.890   1.653   3.378 -0.2903  0.0967  0.2779
 5554TIP3    H138077   3.959   1.695   3.326 -0.3708  0.5373  0.5247
 5554TIP3    H238078   3.892   1.562   3.350 -1.4380  0.6310 -1.7331
 5555TIP3   OH238079   2.275   2.092   1.269 -0.1612  0.0613  0.5046
 5555TIP3    H138080   2.351   2.033   1.265  0.9366  1.4222  0.2597
 5555TIP3    H238081   2.294   2.150   1.343 -1.7820 -0.6012  1.4806
 5556TIP3   OH238082   6.373   4.555  17.094 -0.2483  0.3699  0.4775
 5556TIP3    H138083   6.378   4.472  17.143  0.2278 -0.6544 -1.2133
 5556TIP3    H238084   6.376   4.528  17.002 -0.6651  2.2527 -0.1166
 5557TIP3   OH238085   6.090   2.165  13.482  0.7875  0.4360 -0.1858
 5557TIP3    H138086   6.051   2.209  13.406  1.2393  0.9011 -0.1523
 5557TIP3    H238087   6.015   2.133  13.533  0.4772 -0.0884 -0.9423
 5558TIP3   OH238088   0.816   1.174  12.313 -0.3691  0.3929 -0.0609
 5558TIP3    H138089   0.904   1.162  12.347 -0.1767 -0.5729 -0.8762
 5558TIP3    H238090   0.765   1.204  12.389  0.0636 -1.5880  1.0633
 5559TIP3   OH238091   2.672   5.083   5.662  0.2819  0.4795 -1.2096
 5559TIP3    H138092   2.627   5.004   5.690  1.3495 -0.6882 -2.6152
 5559TIP3    H238093   2.741   5.052   5.603  1.9781  2.3036 -0.3065
 5560TIP3   OH238094   4.564   2.843  15.724  0.7526  0.8762 -0.1536
 5560TIP3    H138095   4.624   2.798  15.664  0.1746  1.0173 -0.8464
 5560TIP3    H238096   4.544   2.926  15.681 -0.3045  0.6351 -0.1696
 5561TIP3   OH238097   2.796   5.046  10.983 -0.1299  0.2607  0.6418
 5561TIP3    H138098   2.753   5.124  11.019 -0.8687  0.3991 -0.4795
 5561TIP3    H238099   2.804   4.987  11.058 -0.7855  0.8861  1.2270
 5562TIP3   OH238100   1.890   0.743  15.283  0.4843  0.4148 -0.2633
 5562TIP3    H138101   1.951   0.817  15.286  2.1887 -0.9594  0.9847
 5562TIP3    H238102   1.926   0.685  15.216  0.9175 -0.6555  0.8470
 5563TIP3   OH238103   6.204   4.375   6.882  0.4436  0.6488  0.1044
 5563TIP3    H138104   6.280   4.319   6.897  0.1455 -0.3883 -1.9751
 5563TIP3    H238105   6.213   4.405   6.792 -1.1881  1.1741  0.0842
 5564TIP3   OH238106   1.565   5.428   5.692  0.2427  0.1042  0.9595
 5564TIP3    H138107   1.658   5.409   5.692  0.2611  0.1334  1.7698
 5564TIP3    H238108   1.540   5.427   5.785 -0.7649 -0.8945  0.7110
 5565TIP3   OH238109   3.647   0.018   5.341 -0.0624  0.3759  0.4918
 5565TIP3    H138110   3.563  -0.021   5.318 -0.7538 -0.1217  3.4423
 5565TIP3    H238111   3.634   0.112   5.327 -0.6311  0.1852 -0.3662
 5566TIP3   OH238112   2.753   1.958   4.726 -0.4284 -0.5678 -0.7570
 5566TIP3    H138113   2.807   2.032   4.699 -0.9194 -0.2697 -0.9304
 5566TIP3    H238114   2.666   1.996   4.741 -0.4291 -0.9124  0.2123
 5567TIP3   OH238115   5.511   0.578  13.087  0.1965  0.2575  0.3955
 5567TIP3    H138116   5.548   0.663  13.107 -0.9085  0.5589  1.2678
 5567TIP3    H238117   5.469   0.550  13.169 -0.7805 -0.4113 -0.3106
 5568TIP3   OH238118   1.583   3.967  14.196 -0.3548  0.5899  0.4313
 5568TIP3    H138119   1.547   3.882  14.170 -1.3503  1.2518 -0.4340
 5568TIP3    H238120   1.522   4.031  14.159  0.9024  1.7073  0.2391
 5569TIP3   OH238121   4.358   4.038   0.395  0.0244 -0.5472  0.0648
 5569TIP3    H138122   4.363   4.129   0.425  0.2145 -1.0111  1.5372
 5569TIP3    H238123   4.356   4.044   0.300  1.1548  0.9547  0.0969
 5570TIP3   OH238124   0.559   2.309   1.280  0.1512  0.7154 -0.3687
 5570TIP3    H138125   0.558   2.317   1.375 -2.8650  1.7737 -0.3721
 5570TIP3    H238126   0.652   2.299   1.257  1.1004  1.8178  2.5534
 5571TIP3   OH238127   6.669   2.897  15.492 -0.3601  0.7392  0.1182
 5571TIP3    H138128   6.679   2.988  15.462  2.4914  0.7941  0.9257
 5571TIP3    H238129   6.759   2.866  15.503 -1.1803 -2.7030 -1.5276
 5572TIP3   OH238130   2.665   4.063   2.440 -0.3761  0.4404 -0.0253
 5572TIP3    H138131   2.753   4.060   2.478 -0.3519 -0.2996 -0.1314
 5572TIP3    H238132   2.634   4.152   2.459 -0.0290  0.3664  0.9628
 5573TIP3   OH238133   5.483   2.205   0.725 -0.7535  0.3322 -0.5079
 5573TIP3    H138134   5.506   2.287   0.680  0.1766  0.4758  0.1933
 5573TIP3    H238135   5.442   2.233   0.807  1.1286  0.1672  0.5505
 5574TIP3   OH238136   1.414   1.275  12.513  0.0090 -1.0705 -0.9970
 5574TIP3    H138137   1.488   1.298  12.569  0.0872  0.0193 -1.5331
 5574TIP3    H238138   1.344   1.250  12.575  0.0564  0.2166 -0.3942
 5575TIP3   OH238139   5.004   0.298  12.491  0.1342 -0.1823  0.1194
 5575TIP3    H138140   4.979   0.323  12.580 -0.4698  0.8338 -0.3195
 5575TIP3    H238141   4.930   0.246  12.459  0.6031 -1.0374  0.4025
 5576TIP3   OH238142   6.205   4.993  16.158  0.0033 -0.3498 -0.0165
 5576TIP3    H138143   6.125   5.028  16.196 -0.5427  0.1615 -1.5459
 5576TIP3    H238144   6.257   4.962  16.233 -0.5669  1.4983  1.1892
 5577TIP3   OH238145   5.613   3.473   2.658  0.7261  0.0430 -0.2222
 5577TIP3    H138146   5.653   3.412   2.720  2.2569  0.3973 -0.8269
 5577TIP3    H238147   5.686   3.524   2.623 -0.4503  2.0540  0.0343
 5578TIP3   OH238148   5.145   3.034   1.852  0.1924  0.4768  0.1033
 5578TIP3    H138149   5.155   3.000   1.763  0.9646  0.1695  0.2973
 5578TIP3    H238150   5.084   3.107   1.843 -0.0935  0.1678 -0.6053
 5579TIP3   OH238151   2.399   5.104   5.934  1.2438  0.4792 -0.3039
 5579TIP3    H138152   2.323   5.116   5.991  1.0317  0.6959 -0.6259
 5579TIP3    H238153   2.467   5.069   5.991  0.8380  0.0888 -0.0553
 5580TIP3   OH238154   4.523   6.150  11.377  0.6457 -0.3515  0.1464
 5580TIP3    H138155   4.554   6.212  11.443  0.5453 -0.4832  0.3161
 5580TIP3    H238156   4.603   6.118  11.336  0.7358 -0.6052  0.5091
 5581TIP3   OH238157   3.933   4.793  15.832  0.0354  0.3724  0.1521
 5581TIP3    H138158   3.992   4.825  15.900  0.8334 -0.3877 -0.1618
 5581TIP3    H238159   3.909   4.871  15.782  1.0990  0.6496  0.0492
 5582TIP3   OH238160   5.584   3.620  16.622  0.1616 -0.1798  0.3615
 5582TIP3    H138161   5.604   3.668  16.703 -1.5084 -0.8490  1.2271
 5582TIP3    H238162   5.579   3.688  16.555 -0.3940  0.6629  1.2233
 5583TIP3   OH238163   1.898   0.192  14.020  0.6413 -0.0240  0.1335
 5583TIP3    H138164   1.885   0.128  13.949 -0.1407 -0.4553  0.6441
 5583TIP3    H238165   1.824   0.252  14.012  1.4489  0.9243 -0.4314
 5584TIP3   OH238166   5.511   4.484   0.506  0.2383 -0.1910  0.3130
 5584TIP3    H138167   5.494   4.544   0.578  0.6412  0.1870  0.0934
 5584TIP3    H238168   5.563   4.414   0.545 -0.1652 -0.3624  0.5509
 5585TIP3   OH238169   2.631   3.495  11.518 -0.1691 -0.2254 -0.5838
 5585TIP3    H138170   2.661   3.488  11.427  0.5536 -0.0389 -0.3672
 5585TIP3    H238171   2.540   3.524  11.511 -0.7831 -2.1803 -1.2907
 5586TIP3   OH238172   2.769   5.184   1.963  0.3349 -0.3594  0.2360
 5586TIP3    H138173   2.796   5.223   1.879  0.1258 -0.7578 -0.0176
 5586TIP3    H238174   2.760   5.091   1.944  1.7419 -0.6999  1.0582
 5587TIP3   OH238175   6.664   2.529   4.020 -0.1546 -0.2479  0.2025
 5587TIP3    H138176   6.572   2.543   3.999  0.0551 -0.0357 -0.6285
 5587TIP3    H238177   6.707   2.611   3.994  0.1104  0.1129  1.6831
 5588TIP3   OH238178   0.658   2.927   2.481  0.3296 -0.2235  0.2871
 5588TIP3    H138179   0.631   3.005   2.529  0.2905 -0.2873  0.3689
 5588TIP3    H238180   0.638   2.946   2.390  1.0406  0.1757  0.2023
 5589TIP3   OH238181   3.042   1.574   3.106 -0.3965 -0.1124 -0.2531
 5589TIP3    H138182   3.129   1.559   3.069  0.2726  0.8384  0.8673
 5589TIP3    H238183   2.994   1.494   3.087  1.0542 -1.0980  0.0620
 5590TIP3   OH238184   3.313   4.003   4.641 -0.1166 -0.3852  0.8321
 5590TIP3    H138185   3.314   3.910   4.662  0.0454 -0.2146  1.6001
 5590TIP3    H238186   3.337   4.047   4.722  0.5346  0.2971  0.2909
 5591TIP3   OH238187   0.077   5.704  14.517  0.0022 -0.0171 -0.8545
 5591TIP3    H138188   0.134   5.767  14.472  1.1564 -0.3614  0.0914
 5591TIP3    H238189   0.039   5.754  14.590  1.1800 -0.4711  0.0983
 5592TIP3   OH238190   0.298   2.664  17.187  0.2144 -0.4088  0.1856
 5592TIP3    H138191   0.243   2.588  17.206 -0.6731  0.3705  0.8496
 5592TIP3    H238192   0.318   2.657  17.094  0.8111 -1.8711  0.4031
 5593TIP3   OH238193   0.817   6.178  12.864  0.3799  0.1968  0.3904
 5593TIP3    H138194   0.755   6.224  12.808  0.7923  1.1127  0.6649
 5593TIP3    H238195   0.885   6.242  12.883  0.6397 -0.3226  1.3191
 5594TIP3   OH238196   2.048   2.529   1.561  0.0026 -0.4032 -0.4702
 5594TIP3    H138197   2.095   2.609   1.539  2.3238 -1.2959  0.8674
 5594TIP3    H238198   1.975   2.558   1.615  0.0657  0.8883 -1.0366
 5595TIP3   OH238199   3.948   5.285   2.000 -0.4737  0.4782 -0.4976
 5595TIP3    H138200   3.985   5.199   2.018  1.1603  0.9900 -1.1968
 5595TIP3    H238201   3.952   5.331   2.084 -4.2090 -1.0077  0.7251
 5596TIP3   OH238202   5.366   5.442  17.253 -0.4910  0.1437 -0.4557
 5596TIP3    H138203   5.292   5.455  17.194 -1.5442 -0.5941  0.6572
 5596TIP3    H238204   5.330   5.394  17.327  1.1758 -0.4945 -0.0063
 5597TIP3   OH238205   5.582   2.738   1.531  0.8834  0.0282  0.3549
 5597TIP3    H138206   5.518   2.750   1.601  0.6686  1.7932 -0.1101
 5597TIP3    H238207   5.596   2.643   1.528 -0.6797 -0.2751  1.3646
 5598TIP3   OH238208   0.595   4.092  17.312 -0.4603 -0.2873  0.0610
 5598TIP3    H138209   0.652   4.157  17.271  0.0789 -0.7715  0.0186
 5598TIP3    H238210   0.650   4.049  17.377 -1.2377  0.2950  1.1264
 5599TIP3   OH238211   1.446   5.739   1.963 -0.1468 -0.4112  0.5918
 5599TIP3    H138212   1.367   5.707   2.006  0.5381 -0.4800  1.8424
 5599TIP3    H238213   1.460   5.826   1.999 -1.2505  0.8506 -1.7963
 5600TIP3   OH238214   1.408   2.445  15.999 -0.2286  0.8967  0.9281
 5600TIP3    H138215   1.415   2.363  15.950 -1.8198  1.6885 -0.7552
 5600TIP3    H238216   1.327   2.436  16.050 -0.3549  1.3803  0.8169
 5601TIP3   OH238217   4.600   3.484  13.288  0.2684 -0.4014 -0.2492
 5601TIP3    H138218   4.605   3.535  13.207 -0.2736 -1.8541 -1.2225
 5601TIP3    H238219   4.507   3.466  13.299  0.3923 -0.6368  0.4457
 5602TIP3   OH238220   0.611   2.636  11.860  0.3680 -0.9749  0.1608
 5602TIP3    H138221   0.540   2.606  11.804  1.0487 -1.0189 -0.7081
 5602TIP3    H238222   0.572   2.643  11.947 -1.7116  2.5360 -0.8663
 5603TIP3   OH238223   2.879   2.624   0.919  0.5618 -0.1949  0.1702
 5603TIP3    H138224   2.842   2.595   1.002  1.0528 -2.5348 -0.3489
 5603TIP3    H238225   2.957   2.571   0.908  0.8073  0.4541 -1.5349
 5604TIP3   OH238226   3.908   3.536  15.587  0.1562  0.3612  0.3408
 5604TIP3    H138227   3.880   3.558  15.498  0.7370 -0.8079 -0.1415
 5604TIP3    H238228   3.840   3.477  15.619  0.1106  0.5353  0.5700
 5605TIP3   OH238229   6.668   2.062   3.954  0.1950  0.5732 -0.1372
 5605TIP3    H138230   6.617   2.045   3.875  0.1297  0.0042  0.0239
 5605TIP3    H238231   6.752   2.096   3.922 -0.5403  2.2429 -0.3769
 5606TIP3   OH238232   3.287   3.191   6.543 -0.2691 -0.2479  0.0836
 5606TIP3    H138233   3.354   3.123   6.556  0.4954  0.0476 -1.9727
 5606TIP3    H238234   3.279   3.233   6.628  1.5535 -0.8524  0.6063
 5607TIP3   OH238235   4.934   2.319  14.640  0.2502 -0.4321  0.0672
 5607TIP3    H138236   4.922   2.304  14.734  0.4221  1.9610  0.5560
 5607TIP3    H238237   5.023   2.289  14.623  0.5635 -0.0417  0.9125
 5608TIP3   OH238238   2.900   3.630  11.638 -0.2078  0.3937 -0.2101
 5608TIP3    H138239   2.830   3.576  11.601 -0.1268 -0.9699  1.5245
 5608TIP3    H238240   2.966   3.634  11.569 -1.2046  0.1940 -1.2052
 5609TIP3   OH238241   5.006   6.159   0.926 -0.3197  0.0727  0.0437
 5609TIP3    H138242   5.068   6.153   0.999  0.1107 -1.7182 -0.4173
 5609TIP3    H238243   5.056   6.201   0.856 -0.0687 -0.0911  0.1225
 5610TIP3   OH238244   4.601   3.542  11.011 -0.5130  0.5271  0.1118
 5610TIP3    H138245   4.636   3.459  11.043 -0.8472  0.5239  0.4678
 5610TIP3    H238246   4.577   3.524  10.920 -0.4399  0.2796  0.1396
 5611TIP3   OH238247   1.871   3.307   5.217 -0.0594 -0.1081  0.6703
 5611TIP3    H138248   1.881   3.356   5.135 -0.9111  0.0607  0.6514
 5611TIP3    H238249   1.905   3.220   5.198  0.6510  0.2189  0.4354
 5612TIP3   OH238250   2.393   4.310  11.319  0.3167  0.2225  0.1164
 5612TIP3    H138251   2.469   4.359  11.288  0.4613  0.0491  0.1931
 5612TIP3    H238252   2.420   4.218  11.313  0.1115  0.1598  0.1392
 5613TIP3   OH238253   1.754   6.134  16.945  0.4096  0.1897  0.1451
 5613TIP3    H138254   1.792   6.048  16.962 -0.3194 -0.3148 -0.7074
 5613TIP3    H238255   1.829   6.194  16.946  0.7172 -0.1403  2.5904
 5614TIP3   OH238256   5.371   3.912  14.811  0.3009  0.4520  0.4840
 5614TIP3    H138257   5.315   3.982  14.846 -0.0109  0.9349 -0.9286
 5614TIP3    H238258   5.344   3.903  14.720  1.8052 -0.0596  0.0715
 5615TIP3   OH238259   4.700   2.115  17.030 -0.1039 -0.0754  0.0797
 5615TIP3    H138260   4.778   2.138  16.980 -0.8549  0.3260 -0.9318
 5615TIP3    H238261   4.713   2.157  17.115  2.4164 -2.8703  1.2793
 5616TIP3   OH238262   2.632   3.668  13.785 -0.3508  0.1741  0.2150
 5616TIP3    H138263   2.647   3.597  13.848 -1.7702 -0.2488  0.1164
 5616TIP3    H238264   2.684   3.643  13.709  3.2196  1.8020  1.8787
 5617TIP3   OH238265   4.760   0.655  15.328  0.2005  0.4053 -0.7163
 5617TIP3    H138266   4.838   0.659  15.273  0.3601  1.8620 -0.4354
 5617TIP3    H238267   4.726   0.745  15.326  0.2501  0.5159  1.6302
 5618TIP3   OH238268   3.662   2.333   1.003  0.4085  0.1860  0.3029
 5618TIP3    H138269   3.712   2.415   0.996  1.5752 -0.5421 -0.2962
 5618TIP3    H238270   3.729   2.266   1.019 -0.4364 -0.7640 -0.0432
 5619TIP3   OH238271   4.837   0.029   2.587  0.0100  0.1435 -0.2833
 5619TIP3    H138272   4.790   0.087   2.526 -0.1662 -0.1664 -0.4430
 5619TIP3    H238273   4.907  -0.009   2.535 -0.0048  0.0489 -0.2338
 5620TIP3   OH238274   1.310   0.875  11.573 -0.1834  0.3312 -0.0248
 5620TIP3    H138275   1.369   0.950  11.580 -0.0978  0.2188  0.4925
 5620TIP3    H238276   1.351   0.818  11.508  1.4407 -0.7710  1.8559
 5621TIP3   OH238277   2.613   2.280  16.253 -0.3314 -0.0689 -0.0810
 5621TIP3    H138278   2.537   2.228  16.278 -0.6397 -0.5278 -1.8481
 5621TIP3    H238279   2.587   2.324  16.172  0.8379  0.7947 -0.0271
 5622TIP3   OH238280   2.605   4.585  16.143 -0.3767  0.1858  0.2321
 5622TIP3    H138281   2.574   4.495  16.129  0.1070  0.0545 -0.0142
 5622TIP3    H238282   2.590   4.628  16.059  0.9857 -0.1441 -0.2002
 5623TIP3   OH238283   3.465   0.228   0.194  0.0366 -0.4449  0.2601
 5623TIP3    H138284   3.553   0.218   0.159 -0.2673 -1.5981 -0.2235
 5623TIP3    H238285   3.458   0.321   0.215  1.0908 -0.1935 -0.4157
 5624TIP3   OH238286   6.728   6.520  15.785  0.5832  0.0619  0.1819
 5624TIP3    H138287   6.746   6.427  15.767 -1.0945 -0.1436 -0.6000
 5624TIP3    H238288   6.774   6.537  15.867  1.2488 -1.3501  0.1417
 5625TIP3   OH238289   5.481   6.311   0.951  0.1107  0.2103 -0.1326
 5625TIP3    H138290   5.463   6.396   0.910 -0.6985  0.5413  0.8657
 5625TIP3    H238291   5.396   6.283   0.986  0.9357  0.5062  2.3040
 5626TIP3   OH238292   3.294   2.901   3.143 -0.1428 -0.3286  0.1104
 5626TIP3    H138293   3.228   2.855   3.091 -0.4860 -0.8685  1.0076
 5626TIP3    H238294   3.378   2.867   3.110 -0.1507  1.6783 -2.3029
 5627TIP3   OH238295   5.380   6.455  11.545  0.0848  0.4925  0.1738
 5627TIP3    H138296   5.285   6.443  11.556  0.4732 -1.3169  2.3225
 5627TIP3    H238297   5.403   6.397  11.472 -0.1183 -1.4735  1.5726
 5628TIP3   OH238298   1.037   0.394   6.205  0.1846 -0.3521 -0.0224
 5628TIP3    H138299   1.053   0.315   6.256 -1.6991 -1.0608 -0.4101
 5628TIP3    H238300   1.050   0.466   6.267  3.3020 -0.7965 -0.0072
 5629TIP3   OH238301   2.156   2.871   2.000 -0.5484 -0.4774  0.1743
 5629TIP3    H138302   2.065   2.901   2.000 -0.2975  0.3178  0.5552
 5629TIP3    H238303   2.151   2.779   2.026 -1.2552 -0.4985 -0.0083
 5630TIP3   OH238304   3.036   6.549  13.483 -0.0661  0.2281  1.1090
 5630TIP3    H138305   3.022   6.568  13.576 -0.5251  0.3694  1.0150
 5630TIP3    H238306   2.967   6.599  13.438  1.0796  1.4017  0.5722
 5631TIP3   OH238307   0.116   5.592   0.393 -0.6659 -0.0342 -0.2617
 5631TIP3    H138308   0.047   5.588   0.460 -0.4959 -0.1929 -0.0977
 5631TIP3    H238309   0.146   5.502   0.384  1.4628  0.3835  1.6899
 5632TIP3   OH238310   2.558   5.181   1.591 -0.0842 -0.1367 -0.0780
 5632TIP3    H138311   2.526   5.229   1.667  1.6120  1.0728 -0.0928
 5632TIP3    H238312   2.539   5.089   1.611  1.0735  0.0518  2.2003
 5633TIP3   OH238313   2.002   0.189  12.142  0.3226  0.5465 -0.3624
 5633TIP3    H138314   1.923   0.147  12.178  0.9081  1.3030  1.9924
 5633TIP3    H238315   2.044   0.120  12.091 -2.1116  0.2766 -2.2023
 5634TIP3   OH238316   4.986   2.058  15.890  0.0002  0.0090 -0.2159
 5634TIP3    H138317   4.946   2.105  15.816  0.8484  1.7441  0.3842
 5634TIP3    H238318   4.955   2.105  15.967  0.2587 -0.9129  0.4558
 5635TIP3   OH238319   2.024   4.429  12.499  0.8234  0.2217  0.0222
 5635TIP3    H138320   2.024   4.420  12.404  0.6264  1.1197 -0.0746
 5635TIP3    H238321   2.001   4.342  12.532  3.3558 -0.7733 -0.6425
 5636TIP3   OH238322   6.194   1.042   1.972 -0.3642 -0.3215  0.0976
 5636TIP3    H138323   6.214   1.039   2.066  0.5091 -3.7306 -0.0825
 5636TIP3    H238324   6.272   1.007   1.930 -1.5967 -0.9951 -1.7389
 5637TIP3   OH238325   2.978   1.611  12.738  0.6154  0.4660 -0.3994
 5637TIP3    H138326   3.060   1.578  12.774  0.5831 -0.6645 -1.2914
 5637TIP3    H238327   2.998   1.631  12.646 -0.2563 -0.5022 -0.8247
 5638TIP3   OH238328   2.556   1.942  14.831 -0.4491 -0.2169  0.4086
 5638TIP3    H138329   2.463   1.964  14.828 -0.1774  0.8224 -1.4782
 5638TIP3    H238330   2.560   1.851  14.801 -0.8505 -0.2441  0.4336
 5639TIP3   OH238331   1.717   6.328   2.121  0.0207 -0.0539  0.0778
 5639TIP3    H138332   1.726   6.235   2.140 -0.6511 -0.3995 -1.1346
 5639TIP3    H238333   1.644   6.357   2.175  1.6981  0.3699  2.2529
 5640TIP3   OH238334   3.335   6.034   5.400  0.3845  0.6377 -0.2903
 5640TIP3    H138335   3.348   5.981   5.321  0.4302 -2.0979  1.4313
 5640TIP3    H238336   3.246   6.013   5.428  0.5929  1.0697  0.7211
 5641TIP3   OH238337   2.090   2.433   2.766 -0.2378 -0.1594  0.4323
 5641TIP3    H138338   2.008   2.441   2.815 -0.5350  1.0169 -0.2161
 5641TIP3    H238339   2.158   2.453   2.831 -0.5303  0.0009  0.6940
 5642TIP3   OH238340   3.798   2.639   3.957  0.6919  0.1534 -0.1884
 5642TIP3    H138341   3.740   2.696   3.907 -0.7413 -0.2540  0.9478
 5642TIP3    H238342   3.748   2.558   3.968  1.1510  0.0589  1.4655
 5643TIP3   OH238343   5.731   5.026   2.951 -0.1079  0.6105  0.2782
 5643TIP3    H138344   5.782   5.105   2.972  1.3649 -0.2384  0.0450
 5643TIP3    H238345   5.677   5.012   3.028 -0.4667  1.8940  0.2858
 5644TIP3   OH238346   1.505   0.320   0.235 -0.0900 -0.2102 -0.4897
 5644TIP3    H138347   1.550   0.318   0.319 -0.4131  1.2823 -0.2464
 5644TIP3    H238348   1.555   0.261   0.179  1.6347  0.6882  0.0378
 5645TIP3   OH238349   0.196   6.391  11.532 -0.0831 -0.4197 -0.4464
 5645TIP3    H138350   0.227   6.353  11.450  0.5208 -0.1182 -0.3611
 5645TIP3    H238351   0.273   6.435  11.569 -0.1472 -1.1907  0.6478
 5646TIP3   OH238352   6.284   2.620  14.933  0.5262 -0.4404  0.2882
 5646TIP3    H138353   6.341   2.694  14.955  1.9251 -1.4326  0.1878
 5646TIP3    H238354   6.226   2.610  15.008  1.2871 -0.1199  0.9290
 5647TIP3   OH238355   4.840   6.062  14.222 -0.4641 -0.3696  1.1214
 5647TIP3    H138356   4.869   6.043  14.312 -0.4924  1.7147  1.6266
 5647TIP3    H238357   4.917   6.100  14.180 -0.6709 -0.6515  0.4792
 5648TIP3   OH238358   3.854   2.543  13.322  0.1195 -0.5302 -0.0997
 5648TIP3    H138359   3.818   2.561  13.235 -0.2598 -0.0560  0.1528
 5648TIP3    H238360   3.948   2.554  13.311 -0.0482  1.1369 -0.0856
 5649TIP3   OH238361   6.361   1.679  11.601 -0.1827 -0.2770  0.1357
 5649TIP3    H138362   6.442   1.706  11.644 -0.4574 -0.7228  0.9569
 5649TIP3    H238363   6.304   1.652  11.673 -1.4620  1.0675 -0.3208
 5650TIP3   OH238364   1.241   6.750  13.089  0.0472  0.2172  0.4044
 5650TIP3    H138365   1.261   6.657  13.100  1.5040  0.3248 -0.9830
 5650TIP3    H238366   1.226   6.760  12.995  0.6189  1.4980  0.4351
 5651TIP3   OH238367   6.034   0.192  11.845 -0.3571 -0.0456 -0.7112
 5651TIP3    H138368   6.075   0.107  11.854 -0.8431 -0.2937 -0.7747
 5651TIP3    H238369   5.940   0.174  11.855 -0.3897  0.6402  0.4158
 5652TIP3   OH238370   5.981   6.526  15.288  0.0801  0.1497 -0.0686
 5652TIP3    H138371   5.958   6.475  15.366  0.3496  0.4704  0.2242
 5652TIP3    H238372   5.990   6.461  15.219  2.3522 -0.4648  0.7136
 5653TIP3   OH238373   1.870   4.479  14.873  1.0546  0.4022  0.0333
 5653TIP3    H138374   1.786   4.524  14.864  0.7449 -0.3493 -1.0814
 5653TIP3    H238375   1.912   4.521  14.948 -0.7824  0.0479  1.3349
 5654TIP3   OH238376   4.567   6.482  16.168 -0.0341  0.4646 -0.2613
 5654TIP3    H138377   4.507   6.543  16.126 -0.2987  0.5369  0.2174
 5654TIP3    H238378   4.598   6.426  16.096 -1.1577  0.0162 -0.4255
 5655TIP3   OH238379   2.735   2.554   4.233  0.2645 -0.3736  0.1489
 5655TIP3    H138380   2.797   2.614   4.273 -0.2269 -0.7771  1.5832
 5655TIP3    H238381   2.757   2.468   4.269  0.3857 -0.9353 -1.1721
 5656TIP3   OH238382   2.307   6.320  11.707  0.1623  0.3480  0.0197
 5656TIP3    H138383   2.214   6.306  11.690 -0.5039  0.8921  2.8435
 5656TIP3    H238384   2.351   6.267  11.640 -2.1339  0.2771 -1.5535
 5657TIP3   OH238385   0.487   6.661  11.910 -0.3512 -0.1416  0.0472
 5657TIP3    H138386   0.566   6.627  11.869 -1.4736 -0.6421 -1.8292
 5657TIP3    H238387   0.489   6.755  11.893  0.1748 -0.0496  0.6147
 5658TIP3   OH238388   3.326   0.307   2.282  0.5538  0.0597  0.1617
 5658TIP3    H138389   3.278   0.387   2.259 -0.9976 -0.7891  0.2994
 5658TIP3    H238390   3.288   0.240   2.226  1.3875 -0.7177  0.5083
 5659TIP3   OH238391   4.323   1.211   2.590 -0.4055  0.2456 -0.6712
 5659TIP3    H138392   4.328   1.115   2.594 -0.7508  0.2261  3.1006
 5659TIP3    H238393   4.363   1.234   2.507  1.0183 -3.1020 -1.0639
 5660TIP3   OH238394   6.177   6.521  17.274 -0.3709  0.0453  0.2505
 5660TIP3    H138395   6.114   6.465  17.230  1.0404  0.1833 -2.0890
 5660TIP3    H238396   6.132   6.605  17.284 -1.1090 -0.3329  0.1722
 5661TIP3   OH238397   5.047   6.534   0.853 -0.4473 -0.1628 -0.1145
 5661TIP3    H138398   5.108   6.516   0.924 -0.1364 -0.5978 -0.4850
 5661TIP3    H238399   5.079   6.481   0.780  1.1990  2.6381 -1.6282
 5662TIP3   OH238400   4.244   1.959   3.064  0.1346  0.0242 -0.5480
 5662TIP3    H138401   4.284   2.034   3.021 -1.3091  0.1650 -1.6894
 5662TIP3    H238402   4.188   1.997   3.132 -1.0228  0.0462 -1.4825
 5663TIP3   OH238403   3.183   5.709   1.079 -0.0658  0.5493  0.9431
 5663TIP3    H138404   3.128   5.646   1.031  1.3216 -0.1886  0.2314
 5663TIP3    H238405   3.173   5.684   1.171 -0.2429 -0.1332  0.7474
 5664TIP3   OH238406   4.989   3.096   1.482  0.6027 -0.2648  0.2113
 5664TIP3    H138407   5.080   3.089   1.509  1.0763  2.2728 -0.4165
 5664TIP3    H238408   4.987   3.056   1.395  0.6617 -1.9793  0.9655
 5665TIP3   OH238409   4.224   0.778  11.524  0.3227  0.0300  0.1042
 5665TIP3    H138410   4.214   0.684  11.542  0.9475  0.0977  0.8411
 5665TIP3    H238411   4.317   0.790  11.508 -0.0788  0.0536 -2.8918
 5666TIP3   OH238412   5.822   1.624   1.972  0.3795 -0.5836 -0.1561
 5666TIP3    H138413   5.735   1.655   1.948  0.8325  2.7515  1.8932
 5666TIP3    H238414   5.827   1.637   2.067  4.0177  2.2178 -0.5015
 5667TIP3   OH238415   5.987   1.194  14.172  0.2363 -0.1737 -0.3415
 5667TIP3    H138416   6.066   1.140  14.163  0.1819 -0.5167  1.0156
 5667TIP3    H238417   6.014   1.280  14.142  1.0487 -0.3608 -0.1879
 5668TIP3   OH238418   3.283   1.345  16.586  0.0453 -0.0505 -0.0048
 5668TIP3    H138419   3.342   1.303  16.648  0.1039  0.4534  0.2817
 5668TIP3    H238420   3.306   1.438  16.589 -1.5164  0.3458  0.9812
 5669TIP3   OH238421   0.921   0.694   4.686  0.5090  0.5620  0.2684
 5669TIP3    H138422   0.986   0.703   4.616 -0.1028  1.1153 -0.2430
 5669TIP3    H238423   0.973   0.694   4.766  1.2460 -0.3860 -0.1868
 5670TIP3   OH238424   6.388   0.413  16.972  0.2927 -0.3420 -0.1680
 5670TIP3    H138425   6.461   0.366  16.933 -1.0881 -1.3034 -1.7283
 5670TIP3    H238426   6.410   0.506  16.959  2.0554 -0.5466  1.0463
 5671TIP3   OH238427   3.157   1.091  12.671 -0.4295 -0.5062  0.6483
 5671TIP3    H138428   3.091   1.141  12.719 -1.3902 -0.5885 -0.5425
 5671TIP3    H238429   3.107   1.038  12.609  0.6327 -2.1458  1.1220
 5672TIP3   OH238430   3.931   3.299  12.118  0.0416 -0.2162 -0.5998
 5672TIP3    H138431   4.013   3.272  12.077  0.1246  0.3694 -0.8324
 5672TIP3    H238432   3.958   3.363  12.184 -0.3104  0.9158 -1.5093
 5673TIP3   OH238433   3.285   6.233   4.986  0.1269 -0.2531  0.1179
 5673TIP3    H138434   3.330   6.151   4.962 -0.6039 -0.3506 -1.0084
 5673TIP3    H238435   3.341   6.272   5.053  1.2923 -0.9407 -0.4165
 5674TIP3   OH238436   1.491   0.323   2.646  0.0062 -0.3128 -0.1011
 5674TIP3    H138437   1.475   0.234   2.614  1.9678 -1.1302  1.0312
 5674TIP3    H238438   1.586   0.331   2.648 -0.0311  0.4768  3.2800
 5675TIP3   OH238439   5.336   4.457  14.263  0.0350  0.0057  0.3323
 5675TIP3    H138440   5.241   4.454  14.269  0.0095 -0.2044 -0.1607
 5675TIP3    H238441   5.367   4.446  14.353 -0.4201  0.7399  0.5859
 5676TIP3   OH238442   6.293   1.734  16.933  0.1409 -0.1900  0.1787
 5676TIP3    H138443   6.338   1.818  16.941 -2.2958  1.3155 -0.8150
 5676TIP3    H238444   6.230   1.733  17.006 -0.3087 -0.8536 -0.2080
 5677TIP3   OH238445   6.121   0.234   1.359 -0.4556 -0.6134  0.0946
 5677TIP3    H138446   6.066   0.253   1.283  1.9608  1.1143 -1.3994
 5677TIP3    H238447   6.162   0.150   1.340 -0.0373 -0.2943 -0.4573
 5678TIP3   OH238448   3.652   3.883   2.937 -0.6866 -0.4271 -0.1540
 5678TIP3    H138449   3.664   3.818   2.867  0.7798  1.2769 -1.5932
 5678TIP3    H238450   3.650   3.831   3.017 -3.6512 -2.5992 -1.4325
 5679TIP3   OH238451   0.224   4.322  13.138  0.0616  0.5087 -0.0553
 5679TIP3    H138452   0.292   4.334  13.072  0.0387  1.5977  0.0967
 5679TIP3    H238453   0.167   4.253  13.103  0.3570  0.6996 -0.9120
 5680TIP3   OH238454   4.161   4.720   6.014 -0.0037  0.1358 -0.1999
 5680TIP3    H138455   4.190   4.809   5.995 -0.4780  0.0209 -1.5804
 5680TIP3    H238456   4.190   4.704   6.104  0.5044  1.5029 -0.0945
 5681TIP3   OH238457   4.424   1.687  13.653  0.1263 -0.6478 -0.2220
 5681TIP3    H138458   4.475   1.765  13.633 -0.7729 -0.3109 -1.3260
 5681TIP3    H238459   4.377   1.709  13.734  2.8714 -1.5656  1.7708
 5682TIP3   OH238460   2.500   5.986   3.254  0.3759 -0.5552  0.6323
 5682TIP3    H138461   2.494   5.965   3.347  1.2696  2.4491  1.4867
 5682TIP3    H238462   2.592   5.976   3.232  1.0661  2.8307  1.3468
 5683TIP3   OH238463   3.591   5.003   1.722  0.1428 -0.1128 -0.0163
 5683TIP3    H138464   3.580   4.956   1.639 -0.8337 -1.7010  0.9556
 5683TIP3    H238465   3.674   4.970   1.756 -0.1119 -0.4780  0.2548
 5684TIP3   OH238466   6.640   5.836  16.566 -0.5102  0.1915 -0.1370
 5684TIP3    H138467   6.579   5.845  16.494 -0.3042 -1.4754 -0.5562
 5684TIP3    H238468   6.723   5.813  16.525  0.2047  1.5474  0.4851
 5685TIP3   OH238469   4.466   5.094  11.991 -0.3887  0.2994  0.3531
 5685TIP3    H138470   4.521   5.038  12.045 -0.4335  1.1558  1.2998
 5685TIP3    H238471   4.399   5.034  11.956  1.7022 -0.9985 -1.7385
 5686TIP3   OH238472   4.677   0.999  12.662 -0.2438  0.1482  0.0056
 5686TIP3    H138473   4.647   0.987  12.572  0.8440  2.0690 -0.6586
 5686TIP3    H238474   4.626   0.935  12.712 -2.1093  0.1861 -1.7052
 5687TIP3   OH238475   5.305   6.448  15.462  0.8897 -0.1906  0.2402
 5687TIP3    H138476   5.318   6.409  15.375  1.8004 -1.3263  0.8641
 5687TIP3    H238477   5.363   6.524  15.463  0.0111  0.5153 -0.5472
 5688TIP3   OH238478   5.832   2.458  16.191 -0.0341  0.8771 -0.2142
 5688TIP3    H138479   5.846   2.467  16.285  1.0750 -1.4324 -0.0796
 5688TIP3    H238480   5.918   2.476  16.152  0.2201 -0.8219 -0.5125
 5689TIP3   OH238481   3.038   5.755  13.444  0.4226  0.6537  0.5615
 5689TIP3    H138482   3.055   5.732  13.352  0.1647  1.4655  0.2971
 5689TIP3    H238483   3.049   5.673  13.492 -0.0671  0.0818 -0.2822
 5690TIP3   OH238484   5.988   2.895  14.327  0.3502  0.0260 -0.4395
 5690TIP3    H138485   5.939   2.972  14.354  0.8539  0.5464 -0.9880
 5690TIP3    H238486   5.921   2.827  14.314 -0.0191  0.1099  0.8534
 5691TIP3   OH238487   1.865   0.861  12.250 -0.2451 -0.4493  0.3969
 5691TIP3    H138488   1.937   0.871  12.188  0.6013  0.1369  1.4410
 5691TIP3    H238489   1.810   0.792  12.212  0.3778 -0.2789 -0.8638
 5692TIP3   OH238490   4.803   6.368  12.971  0.7717  0.2137  0.1850
 5692TIP3    H138491   4.732   6.372  12.907 -0.9505  0.2670  2.0101
 5692TIP3    H238492   4.781   6.294  13.027  1.9053  0.5297  1.0990
 5693TIP3   OH238493   5.205   3.647  14.112  0.1649 -0.3538 -0.3967
 5693TIP3    H138494   5.196   3.610  14.024 -1.0911 -1.9093  0.3494
 5693TIP3    H238495   5.299   3.667  14.119 -0.0112  2.0651 -2.9064
 5694TIP3   OH238496   4.316   4.923   6.513 -0.1848  0.3071  0.0704
 5694TIP3    H138497   4.227   4.907   6.483  0.0230  1.1859 -1.1154
 5694TIP3    H238498   4.347   4.838   6.545 -1.2670 -0.1188  0.0171
 5695TIP3   OH238499   5.366   3.563   2.594  0.5064  0.0062  0.3070
 5695TIP3    H138500   5.447   3.526   2.631  1.2563  0.2726 -0.9993
 5695TIP3    H238501   5.366   3.533   2.503 -2.4681 -2.6107  0.9958
 5696TIP3   OH238502   0.567   1.222  15.321  0.7623 -0.8308  0.2791
 5696TIP3    H138503   0.636   1.209  15.387  0.3306 -1.0781  0.6852
 5696TIP3    H238504   0.495   1.167  15.351 -0.2805  0.7619  0.8272
 5697TIP3   OH238505   4.024   6.463   2.178 -0.0481  0.2284 -0.0718
 5697TIP3    H138506   4.052   6.379   2.143  1.0621  0.9421 -0.9856
 5697TIP3    H238507   4.041   6.457   2.272 -0.7477 -0.8418  0.0015
 5698TIP3   OH238508   2.609   6.375   2.923  0.4397  0.0994  0.1069
 5698TIP3    H138509   2.572   6.431   2.854 -1.3274 -0.8395  0.2423
 5698TIP3    H238510   2.609   6.287   2.885  0.7453 -0.2073  0.8097
 5699TIP3   OH238511   3.674   6.363  14.671  0.7905 -0.2795 -0.4822
 5699TIP3    H138512   3.607   6.294  14.671  0.2648  0.1586  1.2515
 5699TIP3    H238513   3.756   6.317  14.658  0.3798 -1.1665 -0.0397
 5700TIP3   OH238514   0.601   3.829  13.138  0.6344 -0.4358  0.2799
 5700TIP3    H138515   0.685   3.822  13.183  0.6606 -2.7993 -0.0042
 5700TIP3    H238516   0.612   3.778  13.058  0.5650  3.5555 -2.5292
 5701TIP3   OH238517   2.266   6.658   4.989  0.3917  0.0111 -0.3164
 5701TIP3    H138518   2.199   6.630   4.927 -0.3074  0.2231  0.3385
 5701TIP3    H238519   2.297   6.577   5.029 -0.2074 -0.0064  0.1222
 5702TIP3   OH238520   1.130   2.610   2.032 -0.3170 -0.1991  0.0486
 5702TIP3    H138521   1.131   2.618   2.127 -0.4533 -1.7108  0.2000
 5702TIP3    H238522   1.046   2.570   2.012 -0.0463 -0.4339 -0.6564
 5703TIP3   OH238523   0.247   0.937   5.231  0.3889 -0.3924 -0.4685
 5703TIP3    H138524   0.320   0.897   5.184  1.1190 -1.3763  1.4312
 5703TIP3    H238525   0.277   1.025   5.252  0.0299  0.0880 -1.8029
 5704TIP3   OH238526   4.490   1.591   4.868 -0.4572  0.2633 -0.0463
 5704TIP3    H138527   4.490   1.496   4.855 -2.6476  0.1438  0.3859
 5704TIP3    H238528   4.447   1.626   4.790 -0.3673  0.8396  0.1573
 5705TIP3   OH238529   3.724   6.321  15.520  0.1412  0.1863  0.0068
 5705TIP3    H138530   3.770   6.305  15.438 -0.1520  0.0324 -0.1270
 5705TIP3    H238531   3.727   6.237  15.566 -0.2962  0.0893 -0.1446
 5706TIP3   OH238532   2.891   6.012  13.221  0.5177  0.7828 -0.3059
 5706TIP3    H138533   2.976   5.971  13.204  0.1631 -0.1466  0.1235
 5706TIP3    H238534   2.837   5.989  13.146 -0.1358 -0.8358  0.5989
 5707TIP3   OH238535   6.075   4.594  14.365  0.4282  0.2567  0.0884
 5707TIP3    H138536   6.097   4.618  14.455  2.1338 -0.5759 -0.0543
 5707TIP3    H238537   6.084   4.675  14.315 -1.4313  0.9401  0.7531
 5708TIP3   OH238538   1.616   2.201   1.614 -0.2379  0.0125 -0.2202
 5708TIP3    H138539   1.653   2.288   1.631  0.8406 -0.6458  0.9823
 5708TIP3    H238540   1.691   2.142   1.618 -1.4108 -1.4647  2.9234
 5709TIP3   OH238541   1.344   3.310   5.909  0.4581  0.7746  0.5904
 5709TIP3    H138542   1.393   3.237   5.946  0.3744  0.1909 -0.4251
 5709TIP3    H238543   1.303   3.352   5.984 -0.1828 -0.7213  1.1107
 5710TIP3   OH238544   6.128   2.097   5.165  0.1544  0.5281 -0.0928
 5710TIP3    H138545   6.151   2.129   5.078 -1.1247  1.7488 -0.0293
 5710TIP3    H238546   6.180   2.151   5.225 -0.4420  1.0788 -0.0561
 5711TIP3   OH238547   4.543   2.228  15.422 -0.2394  0.2637  0.1178
 5711TIP3    H138548   4.617   2.168  15.425 -1.5113 -1.3598  2.5538
 5711TIP3    H238549   4.569   2.300  15.479  0.7108  1.4280 -1.6807
 5712TIP3   OH238550   2.840   4.809   0.371 -0.6080 -0.0885  0.0640
 5712TIP3    H138551   2.834   4.713   0.377  1.7785 -0.2153  1.6738
 5712TIP3    H238552   2.806   4.841   0.454 -0.3862  0.3974 -0.0298
 5713TIP3   OH238553   6.581   4.031  12.008  0.0030  0.0116 -0.1714
 5713TIP3    H138554   6.519   3.985  12.065  1.7955  0.0798  1.9527
 5713TIP3    H238555   6.547   4.120  12.003 -0.2957 -0.0504  0.6229
 5714TIP3   OH238556   6.663   1.436   4.537  0.0077  0.4068 -0.4289
 5714TIP3    H138557   6.612   1.502   4.491  0.5164  1.0863 -0.0270
 5714TIP3    H238558   6.697   1.480   4.614  1.8731  0.2412 -1.0936
 5715TIP3   OH238559   2.875   5.716  15.565  0.0878 -0.0334 -0.4066
 5715TIP3    H138560   2.927   5.700  15.486 -0.5659  0.2089 -0.8993
 5715TIP3    H238561   2.930   5.684  15.637  0.0485 -1.7683 -1.0879
 5716TIP3   OH238562   3.041   0.381  11.679  0.4366  0.2624  0.2857
 5716TIP3    H138563   3.023   0.291  11.652 -0.0501  0.0691  1.2168
 5716TIP3    H238564   3.055   0.375  11.773 -0.4640  1.2757  0.5061
 5717TIP3   OH238565   6.680   0.937  12.175  0.4701 -0.5012  0.4353
 5717TIP3    H138566   6.721   0.870  12.120  2.5659  0.1961  1.0134
 5717TIP3    H238567   6.754   0.981  12.218 -0.9374  0.8320  1.6415
 5718TIP3   OH238568   4.681   1.898   2.528 -0.0772  0.2446 -0.3177
 5718TIP3    H138569   4.772   1.867   2.534 -0.2160 -0.2960 -0.8316
 5718TIP3    H238570   4.671   1.958   2.601  0.8723  0.7563 -0.5802
 5719TIP3   OH238571   0.638   4.478   0.070  0.1423 -0.3075 -0.4680
 5719TIP3    H138572   0.678   4.469  -0.016  0.7390 -1.2887 -0.1089
 5719TIP3    H238573   0.695   4.428   0.128 -0.8205 -0.5328  0.3180
 5720TIP3   OH238574   6.436   3.589   3.461  0.6323 -0.4432  0.1110
 5720TIP3    H138575   6.494   3.628   3.396  0.1777  0.4784  0.2463
 5720TIP3    H238576   6.470   3.620   3.545 -0.7380  1.1345  0.1466
 5721TIP3   OH238577   4.689   1.248  17.366 -0.0130  0.2972 -0.1692
 5721TIP3    H138578   4.648   1.304  17.300  0.6179  1.3604  0.3156
 5721TIP3    H238579   4.774   1.224  17.327  0.2781  0.7679  0.1692
 5722TIP3   OH238580   2.028   6.651  14.244 -0.0797  0.4955  0.0727
 5722TIP3    H138581   1.960   6.708  14.209 -0.1996  0.1108 -0.3254
 5722TIP3    H238582   1.989   6.612  14.322 -0.3533  0.1993 -0.2093
 5723TIP3   OH238583   4.230   1.169  14.120  0.3317  0.6570  0.5873
 5723TIP3    H138584   4.235   1.074  14.125 -0.8518  0.4566 -1.1156
 5723TIP3    H238585   4.253   1.199  14.208  1.0310 -1.1698  1.0705
 5724TIP3   OH238586   3.322   2.608   6.990  0.1146  0.0574 -0.4471
 5724TIP3    H138587   3.336   2.542   6.921 -2.2061 -1.8671  0.7511
 5724TIP3    H238588   3.350   2.565   7.070 -1.0446  0.6720  0.3096
 5725TIP3   OH238589   1.969   1.302   3.637 -0.1869 -0.2748  0.6899
 5725TIP3    H138590   2.002   1.251   3.711 -0.5755 -1.7497 -0.0964
 5725TIP3    H238591   1.906   1.243   3.595 -0.8976  1.0069 -0.0811
 5726TIP3   OH238592   1.740   5.884  12.487 -0.0891  0.1964  0.3950
 5726TIP3    H138593   1.750   5.789  12.495 -0.6962  0.1397  0.5472
 5726TIP3    H238594   1.691   5.897  12.406  0.0320  0.3824  0.3506
 5727TIP3   OH238595   6.334   5.077   1.892  0.5503 -0.3292 -0.1485
 5727TIP3    H138596   6.407   5.059   1.951 -0.2659  1.4274  1.4670
 5727TIP3    H238597   6.371   5.137   1.827  0.8547 -0.4421 -0.0838
 5728TIP3   OH238598   0.291   4.242  14.869  0.1449  0.1267 -0.2077
 5728TIP3    H138599   0.200   4.253  14.897  0.5954 -0.0160  1.3958
 5728TIP3    H238600   0.293   4.278  14.781 -0.8055  2.9405  0.8226
 5729TIP3   OH238601   4.828   4.226   7.181 -0.7309 -0.4030 -0.3402
 5729TIP3    H138602   4.816   4.140   7.140 -0.9583  0.1801 -1.5636
 5729TIP3    H238603   4.896   4.268   7.128 -2.0300  0.9233 -1.0647
 5730TIP3   OH238604   5.497   1.098   5.294  0.4918 -0.0655  0.2495
 5730TIP3    H138605   5.491   1.057   5.208  0.9376 -0.9818  0.6460
 5730TIP3    H238606   5.521   1.027   5.354  2.1904  0.9223  0.8221
 5731TIP3   OH238607   3.130   5.728  13.180 -0.3226  0.1468  0.2912
 5731TIP3    H138608   3.162   5.806  13.135 -1.3303  0.3954 -0.0226
 5731TIP3    H238609   3.092   5.674  13.111 -0.1906 -0.3333  0.5913
 5732TIP3   OH238610   5.051   1.822   2.897 -0.1537 -0.5123 -0.2733
 5732TIP3    H138611   5.037   1.774   2.978  0.6112 -0.5584 -0.1563
 5732TIP3    H238612   5.145   1.844   2.898  0.1028 -1.4275 -1.6449
 5733TIP3   OH238613   5.873   0.920   0.698  0.4556  0.5642  0.2110
 5733TIP3    H138614   5.830   0.866   0.632  1.1709 -0.1376  0.2995
 5733TIP3    H238615   5.803   0.946   0.758  0.0584 -0.0501  0.0163
 5734TIP3   OH238616   0.303   0.633  13.568  0.3229 -0.0467 -0.2763
 5734TIP3    H138617   0.312   0.541  13.592  0.0470  0.3436  1.4302
 5734TIP3    H238618   0.293   0.632  13.473  0.6750 -1.7448 -0.3224
 5735TIP3   OH238619   2.430   0.936   2.299 -0.5562 -0.2443  0.4223
 5735TIP3    H138620   2.465   1.025   2.297 -1.6568  0.1965 -0.3991
 5735TIP3    H238621   2.373   0.934   2.376 -0.1729 -0.3893  0.7051
 5736TIP3   OH238622   6.516   0.533   2.379  0.4122  0.0727  0.2115
 5736TIP3    H138623   6.568   0.604   2.343 -0.0489 -1.0747 -3.0511
 5736TIP3    H238624   6.570   0.497   2.450  1.9360  1.8146 -0.0074
 5737TIP3   OH238625   2.697   0.175  16.135 -0.3383  0.7278  0.1749
 5737TIP3    H138626   2.607   0.207  16.138 -0.9516 -0.7105 -1.1811
 5737TIP3    H238627   2.730   0.204  16.050 -0.2464 -0.4928 -0.2301
 5738TIP3   OH238628   0.657   4.484   2.946  0.5356 -0.4106  0.2091
 5738TIP3    H138629   0.737   4.457   2.902  0.2928 -0.2269 -0.3537
 5738TIP3    H238630   0.588   4.469   2.882  0.3201  0.9392  0.0860
 5739TIP3   OH238631   0.209   0.500   1.527  0.0559 -0.0722  0.4397
 5739TIP3    H138632   0.293   0.494   1.482  0.0285 -1.1406  0.5041
 5739TIP3    H238633   0.226   0.558   1.601 -0.1837  2.7284 -1.5055
 5740TIP3   OH238634   1.349   2.246  14.143  0.8740 -0.2413 -0.5525
 5740TIP3    H138635   1.422   2.303  14.166  2.5594 -1.4368 -2.6561
 5740TIP3    H238636   1.299   2.296  14.078 -1.2874  1.2558  2.0215
 5741TIP3   OH238637   1.707   2.467  16.376  0.0128 -0.3139 -0.2360
 5741TIP3    H138638   1.671   2.398  16.432  0.2887  1.1670  1.8916
 5741TIP3    H238639   1.800   2.469  16.399 -0.1201  1.2033  0.2522
 5742TIP3   OH238640   5.424   6.077   3.147 -0.0463 -0.6283  0.1473
 5742TIP3    H138641   5.487   6.012   3.118  0.8108 -0.0478  0.6642
 5742TIP3    H238642   5.428   6.146   3.080 -0.8559 -1.0288 -0.3305
 5743TIP3   OH238643   0.796   1.127   3.975 -0.4208  0.3854 -1.0936
 5743TIP3    H138644   0.714   1.175   3.977 -0.3966  0.4191 -0.7927
 5743TIP3    H238645   0.849   1.165   4.045 -0.9313 -0.9866  0.0964
 5744TIP3   OH238646   4.426   4.241   4.213 -0.3989 -0.3005  0.2636
 5744TIP3    H138647   4.407   4.148   4.200 -1.1527 -0.3779  1.7413
 5744TIP3    H238648   4.430   4.277   4.125 -1.1130 -1.5370 -0.2977
 5745TIP3   OH238649   0.079   6.468  15.264 -0.1587  0.2382  0.5272
 5745TIP3    H138650   0.162   6.507  15.291  1.2281 -1.6960 -0.6690
 5745TIP3    H238651   0.037   6.535  15.211  0.7444  1.1619  0.9542
 5746TIP3   OH238652   1.587   4.678  12.341  0.1875 -0.2789  0.2680
 5746TIP3    H138653   1.517   4.708  12.398  0.5457  2.2403 -0.4906
 5746TIP3    H238654   1.650   4.750  12.340  1.5257 -1.3868 -1.1367
 5747TIP3   OH238655   4.754   6.017  15.972  0.2845 -0.2607 -0.0013
 5747TIP3    H138656   4.771   6.004  15.879  0.8205 -1.5547  0.2510
 5747TIP3    H238657   4.829   6.067  16.003 -0.0249  0.4076 -0.2967
 5748TIP3   OH238658   6.006   3.379  14.847  0.4469  0.1293 -0.1067
 5748TIP3    H138659   6.071   3.309  14.855  0.8196 -0.0256 -3.2272
 5748TIP3    H238660   6.057   3.456  14.823 -0.4128  0.1484 -2.0020
 5749TIP3   OH238661   3.486   1.744  16.549 -0.0559 -0.2119 -0.2986
 5749TIP3    H138662   3.518   1.666  16.595  0.5332 -0.9449 -1.8982
 5749TIP3    H238663   3.529   1.817  16.594  0.1362 -0.8632  0.6086
 5750TIP3   OH238664   3.621   4.436   1.673 -0.0391  0.2205 -0.2817
 5750TIP3    H138665   3.682   4.490   1.723  0.1252  0.5266 -0.8108
 5750TIP3    H238666   3.535   4.472   1.694 -0.1125 -0.5687  0.9143
 5751TIP3   OH238667   1.147   5.037   0.475 -0.0512  0.3918 -0.0292
 5751TIP3    H138668   1.202   5.104   0.433  0.0228  0.6872  0.5397
 5751TIP3    H238669   1.187   4.954   0.448 -0.7045  0.5257 -1.5242
 5752TIP3   OH238670   1.049   0.086   0.837 -0.3634  0.0704 -0.3925
 5752TIP3    H138671   1.141   0.114   0.833 -0.7298  1.4846  0.2003
 5752TIP3    H238672   1.041   0.042   0.922 -0.3406  0.4523 -0.1853
 5753TIP3   OH238673   4.018   5.885  15.103  0.1795  0.0476  0.1511
 5753TIP3    H138674   4.105   5.848  15.117 -0.1855 -1.3069 -0.9242
 5753TIP3    H238675   4.029   5.947  15.031  0.4475  0.6739  0.7254
 5754TIP3   OH238676   2.565   1.615   0.375 -0.1310 -0.1513 -0.4773
 5754TIP3    H138677   2.532   1.526   0.362  0.1923 -0.1067 -1.7026
 5754TIP3    H238678   2.559   1.629   0.469 -0.5191 -1.3396 -0.3089
 5755TIP3   OH238679   4.135   4.041   5.465  0.1138 -0.1327  0.1241
 5755TIP3    H138680   4.194   4.039   5.541  1.2648 -0.7214 -0.7590
 5755TIP3    H238681   4.115   3.949   5.447 -1.1458  0.0559  0.4337
 5756TIP3   OH238682   3.533   6.536   2.196 -0.5276 -0.2361 -0.5228
 5756TIP3    H138683   3.464   6.475   2.169 -1.3892 -0.5835  2.2007
 5756TIP3    H238684   3.611   6.482   2.201 -0.3513 -0.1825 -2.0531
 5757TIP3   OH238685   5.504   5.071  10.938  0.0131  0.2106 -0.2613
 5757TIP3    H138686   5.461   4.989  10.964 -2.6718  0.6331 -2.8251
 5757TIP3    H238687   5.480   5.134  11.006  2.5549 -1.0934  2.0398
 5758TIP3   OH238688   3.242   2.360  12.902 -0.1267 -0.1022  0.1962
 5758TIP3    H138689   3.241   2.422  12.829 -0.4616 -0.9443 -0.5295
 5758TIP3    H238690   3.275   2.411  12.976  0.9826  0.5607 -0.7243
 5759TIP3   OH238691   2.047   4.028   6.489 -0.4158 -0.2141  0.8324
 5759TIP3    H138692   1.952   4.023   6.501 -0.6789  0.5078 -0.8157
 5759TIP3    H238693   2.068   4.119   6.507 -0.5522  0.4438 -1.9651
 5760TIP3   OH238694   2.837   5.559  13.734 -0.3361  0.0161  0.3291
 5760TIP3    H138695   2.813   5.642  13.777 -0.9350 -0.5133  1.0388
 5760TIP3    H238696   2.822   5.492  13.801  3.1678 -0.3921  0.8840
 5761TIP3   OH238697   4.556   1.689   6.395  0.1171 -0.4464 -0.0164
 5761TIP3    H138698   4.479   1.702   6.340  0.6414  0.9044 -0.4835
 5761TIP3    H238699   4.577   1.596   6.387 -0.8851 -0.6317 -0.6383
 5762TIP3   OH238700   2.556   4.346  14.437 -0.1407 -0.5625  0.4312
 5762TIP3    H138701   2.568   4.376  14.346  1.9313 -3.7973 -0.5051
 5762TIP3    H238702   2.573   4.424  14.490 -1.1188  1.3581 -1.8950
 5763TIP3   OH238703   3.112   5.836  14.486  0.6410  0.6092 -0.0891
 5763TIP3    H138704   3.084   5.770  14.550  0.3214  1.4032  0.5988
 5763TIP3    H238705   3.207   5.823  14.479  0.9179  1.4258  1.6383
 5764TIP3   OH238706   0.515   2.183  14.372  0.5066 -0.3048  0.6882
 5764TIP3    H138707   0.567   2.184  14.292  1.7884 -0.8053  1.4810
 5764TIP3    H238708   0.543   2.262  14.419  0.8043 -0.7435  1.2600
 5765TIP3   OH238709   5.329   0.208  14.669  0.3011 -0.4975 -0.4199
 5765TIP3    H138710   5.278   0.171  14.597  1.7173  1.1869 -2.4175
 5765TIP3    H238711   5.265   0.260  14.718 -0.4028 -0.3757 -1.4184
 5766TIP3   OH238712   3.790   4.998  11.810 -0.3612  0.4842 -0.0199
 5766TIP3    H138713   3.780   5.087  11.842 -0.8685  0.6871 -0.7482
 5766TIP3    H238714   3.868   5.001  11.754  0.0478  0.3053  0.5296
 5767TIP3   OH238715   5.431   0.444   4.319 -0.2705  0.0016 -0.2157
 5767TIP3    H138716   5.354   0.500   4.324 -0.7233 -0.5434 -0.9484
 5767TIP3    H238717   5.416   0.377   4.385  0.4693  0.9476  0.9630
 5768TIP3   OH238718   5.618   5.841  16.857 -0.0387  0.0460  0.3074
 5768TIP3    H138719   5.599   5.934  16.843  2.0613  0.6390  0.9691
 5768TIP3    H238720   5.549   5.811  16.916 -1.6044  0.7717 -1.0919
 5769TIP3   OH238721   5.223   5.435  16.932 -0.0104  0.0433  0.1918
 5769TIP3    H138722   5.301   5.461  16.882  0.3123 -0.3361  0.4905
 5769TIP3    H238723   5.180   5.518  16.954  0.0820  0.2353 -0.3342
 5770TIP3   OH238724   2.862   1.701  15.622 -0.2948  0.8254  0.3415
 5770TIP3    H138725   2.836   1.675  15.710 -0.3912  0.0515  0.0929
 5770TIP3    H238726   2.865   1.618  15.573 -0.0199  1.2229 -0.3177
 5771TIP3   OH238727   0.534   5.580  12.101 -0.0761  0.9230 -0.4163
 5771TIP3    H138728   0.477   5.641  12.055 -1.6825  0.6376  1.0850
 5771TIP3    H238729   0.526   5.604  12.193 -0.2488 -1.1159  0.1585
 5772TIP3   OH238730   1.126   5.859  11.622 -0.3766 -0.4085  0.0440
 5772TIP3    H138731   1.186   5.785  11.619  1.0084  0.5076  2.1463
 5772TIP3    H238732   1.048   5.826  11.666 -0.3825 -0.9838 -0.3948
 5773TIP3   OH238733   0.179   2.767   0.071  0.3143  1.0723 -0.0212
 5773TIP3    H138734   0.219   2.853   0.085  1.4653  0.1402  3.1824
 5773TIP3    H238735   0.238   2.723   0.009  2.3941  1.0459  1.8370
 5774TIP3   OH238736   3.187   5.549   4.980  0.0552 -0.0865 -0.7062
 5774TIP3    H138737   3.271   5.566   4.937  1.2451  0.1272  1.5340
 5774TIP3    H238738   3.143   5.634   4.984  0.9123  0.3379  0.3478
 5775TIP3   OH238739   2.023   3.092  16.717  0.5358 -0.1827 -0.8400
 5775TIP3    H138740   2.094   3.154  16.706  1.9574 -1.8259 -1.4346
 5775TIP3    H238741   2.063   3.017  16.762 -0.7491 -1.2487 -1.3930
 5776TIP3   OH238742   1.568   3.822  16.054  0.0474 -0.0184 -0.2541
 5776TIP3    H138743   1.631   3.751  16.063  1.0816  0.8422 -0.4606
 5776TIP3    H238744   1.545   3.823  15.961 -0.3805 -0.4131 -0.1559
 5777TIP3   OH238745   4.806   4.294   2.755  0.0673 -1.0561 -0.1253
 5777TIP3    H138746   4.802   4.203   2.724  0.7248 -0.4501 -2.2066
 5777TIP3    H238747   4.890   4.327   2.721 -0.1542  0.3235  0.6012
 5778TIP3   OH238748   3.498   5.611  12.101  0.5284  0.1834  0.1315
 5778TIP3    H138749   3.505   5.662  12.182 -1.0487 -0.3475  0.6363
 5778TIP3    H238750   3.425   5.651  12.054  0.5641 -0.3649 -0.4020
 5779TIP3   OH238751   3.961   2.580   4.214  0.3655  0.0051  0.6005
 5779TIP3    H138752   3.936   2.488   4.223 -2.3487  0.6407  0.4195
 5779TIP3    H238753   3.975   2.610   4.303 -0.9418 -0.0851  0.8613
 5780TIP3   OH238754   6.488   4.135  15.984 -0.0776 -0.1527 -0.4913
 5780TIP3    H138755   6.426   4.208  15.984 -0.6484 -0.6125  0.7303
 5780TIP3    H238756   6.544   4.150  16.060 -0.3010 -1.0554 -0.1317
 5781TIP3   OH238757   0.953   3.223   4.861  0.2983 -0.0701 -0.4812
 5781TIP3    H138758   0.895   3.211   4.785  0.3658 -0.8440 -0.4191
 5781TIP3    H238759   0.964   3.318   4.868  1.1583 -0.0049 -2.1146
 5782TIP3   OH238760   4.802   0.434   4.957  0.2396  0.2409 -0.7830
 5782TIP3    H138761   4.719   0.418   5.002  1.9763  0.8683  3.1084
 5782TIP3    H238762   4.791   0.519   4.915 -1.1232  0.2650 -0.4204
 5783TIP3   OH238763   1.684   0.266  15.097  0.5273 -0.2575 -0.2397
 5783TIP3    H138764   1.773   0.254  15.063  1.3057 -2.2361  2.1671
 5783TIP3    H238765   1.688   0.350  15.144  0.4436  0.7086 -1.8623
 5784TIP3   OH238766   1.407   0.248  16.704 -0.3049 -0.0973  0.4635
 5784TIP3    H138767   1.466   0.318  16.676 -0.1608  0.7421  2.6700
 5784TIP3    H238768   1.333   0.253  16.644  0.0388  1.4856  0.1275
 5785TIP3   OH238769   3.374   3.123   5.431 -0.2056  0.1751 -0.3587
 5785TIP3    H138770   3.456   3.105   5.477 -0.0377  0.7242 -0.4335
 5785TIP3    H238771   3.399   3.181   5.359 -0.7076  0.6100 -0.1849
 5786TIP3   OH238772   4.116   5.275  11.312  0.3040  0.0145 -0.0328
 5786TIP3    H138773   4.094   5.222  11.389  0.3067 -0.2267 -0.1955
 5786TIP3    H238774   4.209   5.256  11.295  0.2313 -0.1550 -0.2614
 5787TIP3   OH238775   0.381   1.416  13.745  0.1629  0.5965 -0.1533
 5787TIP3    H138776   0.414   1.494  13.701 -1.2531  1.3709  0.1200
 5787TIP3    H238777   0.414   1.343  13.692  2.0134  1.3122 -0.0727
 5788TIP3   OH238778   2.580   5.145   0.301 -0.3929 -0.1481 -0.2423
 5788TIP3    H138779   2.525   5.169   0.226 -1.7552  0.0131  0.7559
 5788TIP3    H238780   2.588   5.049   0.296 -1.7662 -0.3117  0.2133
 5789TIP3   OH238781   6.511   1.322   2.683 -0.1217  0.0671 -0.1269
 5789TIP3    H138782   6.471   1.409   2.693  0.6549  0.4186 -0.0050
 5789TIP3    H238783   6.591   1.339   2.634  1.4558 -0.1864  2.2331
 5790TIP3   OH238784   0.010   0.310  15.193  0.0775  0.3881  0.6274
 5790TIP3    H138785   0.043   0.244  15.130 -1.9039 -0.0898  0.0140
 5790TIP3    H238786  -0.084   0.311  15.178 -0.0119  2.9709  1.0657
 5791TIP3   OH238787   5.894   4.871   2.807  0.4500 -0.3118 -0.0668
 5791TIP3    H138788   5.827   4.916   2.859 -0.1983 -2.6280  1.2735
 5791TIP3    H238789   5.851   4.790   2.778  2.0264 -0.8762 -0.9522
 5792TIP3   OH238790   0.052   5.754  13.160  0.1791  0.3411 -0.9323
 5792TIP3    H138791   0.006   5.838  13.167 -0.5689  0.0407 -1.8733
 5792TIP3    H238792   0.096   5.758  13.075  1.5934  0.4523 -0.2287
 5793TIP3   OH238793   5.808   2.208   1.554 -0.5485 -0.2430  0.3742
 5793TIP3    H138794   5.812   2.157   1.634  0.2978 -1.3027 -0.3171
 5793TIP3    H238795   5.833   2.147   1.485 -3.3653 -0.0048 -1.0142
 5794TIP3   OH238796   2.156   1.644   1.031 -0.0962 -0.0513 -0.0869
 5794TIP3    H138797   2.222   1.625   1.098  0.5476 -0.4851 -0.8266
 5794TIP3    H238798   2.082   1.680   1.080  1.0043  1.2742  0.6824
 5795TIP3   OH238799   0.564   6.160  15.665  0.7516  0.7248 -0.6274
 5795TIP3    H138800   0.645   6.198  15.632  0.9687  0.8105 -0.0133
 5795TIP3    H238801   0.593   6.094  15.729  0.3313  0.9779 -0.1694
 5796TIP3   OH238802   0.413   0.148   4.634  0.1151 -0.0176 -0.1555
 5796TIP3    H138803   0.335   0.105   4.670  0.3126 -0.0261  0.2742
 5796TIP3    H238804   0.442   0.207   4.704  0.1606  0.4120 -0.5335
 5797TIP3   OH238805   6.683   1.752  15.851 -0.2244  0.3361  0.4680
 5797TIP3    H138806   6.689   1.658  15.836  1.0519  0.6204 -0.9779
 5797TIP3    H238807   6.764   1.775  15.896  0.1985  0.9890 -0.6087
 5798TIP3   OH238808   1.492   2.208  11.181  0.4174  0.4098 -0.5290
 5798TIP3    H138809   1.399   2.206  11.157  0.5435  1.0695 -1.1137
 5798TIP3    H238810   1.537   2.227  11.099  0.9548  1.5877  0.0133
 5799TIP3   OH238811   3.789   0.743   2.175 -0.2300  0.2243  0.4064
 5799TIP3    H138812   3.701   0.717   2.204 -0.0647 -0.0570  0.6615
 5799TIP3    H238813   3.799   0.703   2.088 -0.5107  0.5963  0.2039
 5800TIP3   OH238814   3.975   4.277   2.582 -0.1171  0.2068 -0.0702
 5800TIP3    H138815   4.018   4.357   2.613 -1.6322  0.5956  1.1003
 5800TIP3    H238816   3.882   4.293   2.595 -0.5416 -1.2133 -1.1567
 5801TIP3   OH238817   2.020   0.596   3.539  0.6281 -0.2177  0.2993
 5801TIP3    H138818   2.073   0.564   3.612  2.1408  0.2982 -0.5171
 5801TIP3    H238819   2.041   0.537   3.467 -0.0765 -0.1218  0.0074
 5802TIP3   OH238820   1.482   4.057  17.346 -0.1518  0.1974  0.1470
 5802TIP3    H138821   1.575   4.034  17.341 -0.0214  0.8839 -1.2085
 5802TIP3    H238822   1.468   4.083  17.437  1.3595  1.4869  0.0632
 5803TIP3   OH238823   1.349   0.752  14.860  0.3441 -0.2273  0.1091
 5803TIP3    H138824   1.433   0.713  14.884 -0.1496 -2.0540 -0.9246
 5803TIP3    H238825   1.335   0.821  14.925  3.1131  0.8504 -0.3347
 5804TIP3   OH238826   2.232   1.178  14.552  0.3263  0.4950  0.2334
 5804TIP3    H138827   2.265   1.195  14.640  1.0044 -1.3334  0.3557
 5804TIP3    H238828   2.148   1.225  14.549  0.5813  1.0963  1.6251
 5805TIP3   OH238829   0.102   6.175  16.909 -0.5111  0.0101  0.7289
 5805TIP3    H138830   0.128   6.257  16.950  2.0968  0.0992 -0.8365
 5805TIP3    H238831   0.043   6.200  16.839  1.2746  0.7898 -0.5729
 5806TIP3   OH238832   4.283   0.442   6.081  0.3143 -0.4522  0.2171
 5806TIP3    H138833   4.335   0.473   6.006  0.0313 -0.4648  0.0134
 5806TIP3    H238834   4.333   0.368   6.115 -0.4945 -1.6658 -1.1353
 5807TIP3   OH238835   1.926   4.485   5.307  0.0295 -0.2976  1.1498
 5807TIP3    H138836   1.986   4.519   5.374 -0.5391  0.9800  1.0449
 5807TIP3    H238837   1.894   4.402   5.342  1.3132 -0.6608  1.5160
 5808TIP3   OH238838   3.383   6.464  16.225  0.1264 -0.0507 -0.1146
 5808TIP3    H138839   3.291   6.454  16.202  0.2007  0.3216 -0.5845
 5808TIP3    H238840   3.389   6.433  16.316 -0.4124 -0.2947 -0.1603
 5809TIP3   OH238841   4.286   3.543   3.811  0.6598  0.2015 -0.4857
 5809TIP3    H138842   4.218   3.563   3.746  0.6201 -0.1699 -0.5582
 5809TIP3    H238843   4.358   3.602   3.789  0.1905  0.9335 -0.1250
 5810TIP3   OH238844   1.886   0.061   2.434 -0.8389  0.0459 -0.6017
 5810TIP3    H138845   1.912   0.143   2.393  2.1971 -1.0320 -1.0942
 5810TIP3    H238846   1.926   0.063   2.521 -0.4147 -1.0706 -0.7613
 5811TIP3   OH238847   3.532   3.213   0.429 -0.8069 -0.3886  0.4697
 5811TIP3    H138848   3.624   3.237   0.418 -1.0702  1.6984  2.1497
 5811TIP3    H238849   3.487   3.253   0.354 -0.7553  1.7072  1.4699
 5812TIP3   OH238850   1.443   3.020   0.273  0.1790 -0.3561  0.3765
 5812TIP3    H138851   1.362   2.995   0.228 -0.3931  1.2166  0.4754
 5812TIP3    H238852   1.440   3.115   0.277  1.7455 -0.2983  0.9579
 5813TIP3   OH238853   4.051   6.514   1.180 -0.2598  0.2074 -0.1042
 5813TIP3    H138854   4.094   6.434   1.149 -0.5316 -0.2087  0.5701
 5813TIP3    H238855   3.965   6.513   1.137 -0.3164  0.0617  0.0113
 5814TIP3   OH238856   1.954   2.617  11.662 -0.3541 -0.4774  0.5810
 5814TIP3    H138857   2.020   2.687  11.669 -0.2949 -0.5095  0.3548
 5814TIP3    H238858   1.982   2.566  11.586 -2.0056  0.9662 -1.1022
 5815TIP3   OH238859   2.416   5.141   4.374  0.0940  0.1641 -0.7413
 5815TIP3    H138860   2.439   5.210   4.311  0.8335  1.9657  1.3783
 5815TIP3    H238861   2.498   5.122   4.420 -0.4061 -1.2210 -0.3693
 5816TIP3   OH238862   4.851   1.724   1.559 -0.2691  0.1189 -0.1119
 5816TIP3    H138863   4.791   1.652   1.578 -1.8129  0.6664 -2.5107
 5816TIP3    H238864   4.802   1.802   1.582  1.3274  0.5180  2.3026
 5817TIP3   OH238865   5.297   2.735  17.104  0.1373 -0.1574  0.0768
 5817TIP3    H138866   5.325   2.704  17.018 -1.3440  2.1402 -1.3416
 5817TIP3    H238867   5.246   2.814  17.086  1.6856  1.7803  3.2403
 5818TIP3   OH238868   5.604   1.020  16.583 -0.2184 -0.3629  0.4569
 5818TIP3    H138869   5.623   1.057  16.497 -1.7620 -0.6224 -0.0230
 5818TIP3    H238870   5.664   1.065  16.643 -1.2386  2.1014 -0.2692
 5819TIP3   OH238871   5.951   2.652   1.695  0.1298 -0.3093  0.3995
 5819TIP3    H138872   5.940   2.580   1.756  0.4987 -0.5625  0.1726
 5819TIP3    H238873   5.892   2.720   1.727  0.2503 -0.4736  0.9832
 5820TIP3   OH238874   5.557   2.944  16.420 -0.1189  0.2462  0.0629
 5820TIP3    H138875   5.508   2.916  16.497  1.2367  2.5762  1.9109
 5820TIP3    H238876   5.648   2.923  16.442  0.4263  2.0763 -0.3249
 5821TIP3   OH238877   6.414   4.712   5.680 -0.1381  0.3892  0.2635
 5821TIP3    H138878   6.406   4.808   5.677 -2.3924  0.2975  1.2939
 5821TIP3    H238879   6.333   4.680   5.639 -0.2964 -1.0310  1.5985
 5822TIP3   OH238880   5.140   3.615  14.848  0.6138  0.1298 -0.1781
 5822TIP3    H138881   5.226   3.644  14.879  0.5913 -0.1860  0.1930
 5822TIP3    H238882   5.139   3.521  14.866  0.5117 -0.0202 -0.9462
 5823TIP3   OH238883   5.376   1.456  12.525  0.4104 -0.2523 -0.1306
 5823TIP3    H138884   5.356   1.377  12.474 -0.0169  0.5555 -1.2540
 5823TIP3    H238885   5.332   1.527  12.478  0.4861  0.6140  1.0555
 5824TIP3   OH238886   5.220   2.249  14.592  0.3448  0.3265 -0.3959
 5824TIP3    H138887   5.305   2.293  14.600  0.1651  0.5279  0.5033
 5824TIP3    H238888   5.241   2.156  14.591  0.5431  0.3513  0.4841
 5825TIP3   OH238889   3.534   2.795   1.504 -0.1497  0.3640  0.1308
 5825TIP3    H138890   3.610   2.811   1.448  0.9149  0.0956  1.4632
 5825TIP3    H238891   3.489   2.722   1.462  2.6891 -2.4141  1.5460
 5826TIP3   OH238892   1.727   4.189   3.900  0.4593 -0.4936 -0.1092
 5826TIP3    H138893   1.689   4.225   3.980  1.0683  0.3704 -0.1937
 5826TIP3    H238894   1.765   4.105   3.927 -3.1255 -2.3909 -0.4183
 5827TIP3   OH238895   1.391   1.487   4.809  0.1276 -0.2227  0.1716
 5827TIP3    H138896   1.422   1.461   4.895 -0.2382 -2.4211 -0.3035
 5827TIP3    H238897   1.296   1.476   4.814  0.1330 -0.6843 -0.5924
 5828TIP3   OH238898   4.113   3.580  17.371  0.2166 -0.0328  0.2193
 5828TIP3    H138899   4.110   3.676  17.371 -0.8902 -0.0488  1.2213
 5828TIP3    H238900   4.103   3.555  17.462  2.4652 -1.1027  0.2327
 5829TIP3   OH238901   4.178   3.809  14.910 -0.1105 -0.1248  0.2148
 5829TIP3    H138902   4.114   3.738  14.907 -1.5120  1.0776  0.5400
 5829TIP3    H238903   4.240   3.788  14.841 -1.1805 -1.0331 -0.5115
 5830TIP3   OH238904   5.665   1.085   4.259 -0.6269  0.2140  0.1981
 5830TIP3    H138905   5.599   1.016   4.264 -0.3544 -0.0462  0.2303
 5830TIP3    H238906   5.742   1.042   4.224 -1.1967  1.0485 -2.2775
 5831TIP3   OH238907   0.664   1.118  17.028 -0.0924  0.1668  0.1421
 5831TIP3    H138908   0.587   1.080  17.070 -0.0392 -0.2894 -0.1691
 5831TIP3    H238909   0.685   1.194  17.082 -0.4805  0.0282  0.4980
 5832TIP3   OH238910   3.022   6.602  12.414 -0.0614  0.2500 -0.5483
 5832TIP3    H138911   2.935   6.567  12.433 -0.2655  1.2541  0.5088
 5832TIP3    H238912   3.025   6.685  12.461  2.2141 -0.7205  1.2179
 5833TIP3   OH238913   6.231   0.229  13.212 -0.0164 -0.7260  0.5080
 5833TIP3    H138914   6.247   0.246  13.304  2.1936  1.8054 -0.2306
 5833TIP3    H238915   6.283   0.150  13.193  0.0809 -0.8476  1.2431
 5834TIP3   OH238916   4.079   5.213   3.638 -0.9486 -0.7469 -0.1676
 5834TIP3    H138917   4.064   5.248   3.550 -1.3881  1.3932  0.7096
 5834TIP3    H238918   3.992   5.211   3.678 -0.4513  0.9273  1.1096
 5835TIP3   OH238919   0.269   3.819   4.355  0.3397 -0.3682 -0.0812
 5835TIP3    H138920   0.287   3.784   4.442 -0.2522 -1.0002 -0.2059
 5835TIP3    H238921   0.283   3.913   4.364  1.1198 -0.5352  0.4734
 5836TIP3   OH238922   5.230   1.584  12.090  0.1456 -0.1975 -0.3295
 5836TIP3    H138923   5.273   1.598  12.174 -0.2281  0.4528 -0.2342
 5836TIP3    H238924   5.255   1.496  12.064  0.4443 -0.3207  0.3571
 5837TIP3   OH238925   6.759   1.833  17.139  0.2443  0.5989 -0.5939
 5837TIP3    H138926   6.766   1.924  17.167 -0.7920  0.5180 -0.0357
 5837TIP3    H238927   6.682   1.832  17.081 -2.2391 -0.5841  2.4279
 5838TIP3   OH238928   4.615   3.555   1.158 -0.0888 -0.6071 -0.1987
 5838TIP3    H138929   4.701   3.516   1.175 -0.3061 -0.4602  1.3653
 5838TIP3    H238930   4.568   3.546   1.240 -0.6866  1.5782 -0.2415
 5839TIP3   OH238931   1.230   1.468  11.229 -0.5823 -0.2891 -0.4692
 5839TIP3    H138932   1.283   1.407  11.177 -2.3530 -0.6456 -1.9743
 5839TIP3    H238933   1.265   1.554  11.207  1.5739 -0.6509  1.2342
 5840TIP3   OH238934   1.371   2.378   2.778  0.0534 -0.2398 -0.5410
 5840TIP3    H138935   1.426   2.329   2.716  1.5821  0.9972 -0.2270
 5840TIP3    H238936   1.397   2.469   2.765  0.3823  0.0587  1.8819
 5841TIP3   OH238937   0.692   3.367   2.200  0.2204 -0.1809  0.0685
 5841TIP3    H138938   0.701   3.300   2.267  1.4542  0.6585  0.7986
 5841TIP3    H238939   0.751   3.437   2.229 -1.6726  1.6118 -0.1822
 5842TIP3   OH238940   3.103   1.805  11.665 -0.2418  0.0107 -0.1318
 5842TIP3    H138941   3.086   1.716  11.637  3.2860 -0.6056 -0.7934
 5842TIP3    H238942   3.079   1.859  11.589  0.0326 -0.6525 -0.6989
 5843TIP3   OH238943   2.774   2.642   5.041 -0.1044  0.1048  0.2475
 5843TIP3    H138944   2.814   2.562   5.077 -0.2716 -0.5128 -0.8986
 5843TIP3    H238945   2.745   2.617   4.954 -0.8173  1.2350  0.1439
 5844TIP3   OH238946   3.513   5.049  11.618  0.6415 -0.3295  0.1004
 5844TIP3    H138947   3.440   5.001  11.580 -0.1973  0.8535  0.1592
 5844TIP3    H238948   3.589   5.023  11.565 -0.3766  0.8082 -2.0595
 5845TIP3   OH238949   0.328   4.459  13.749 -0.2826  0.8604  0.0495
 5845TIP3    H138950   0.298   4.374  13.716  1.0377 -0.2631  1.6303
 5845TIP3    H238951   0.400   4.439  13.808  1.1155  3.2065 -0.7186
 5846TIP3   OH238952   5.541   4.500   3.605 -0.1353 -0.3230  0.4260
 5846TIP3    H138953   5.538   4.582   3.555  1.2034 -0.7385 -0.3722
 5846TIP3    H238954   5.449   4.481   3.623 -0.5332  0.8461 -0.2150
 5847TIP3   OH238955   5.249   2.926  14.667  0.0580  0.0683 -0.6043
 5847TIP3    H138956   5.196   2.923  14.747 -0.1198 -1.2831 -0.7415
 5847TIP3    H238957   5.194   2.883  14.601  0.6697  0.1240 -1.1568
 5848TIP3   OH238958   3.159   2.685  15.493  0.2978  0.2151  0.1925
 5848TIP3    H138959   3.155   2.694  15.398 -0.0641  0.0469  0.1857
 5848TIP3    H238960   3.115   2.601  15.510  0.5054  0.1682  0.4926
 5849TIP3   OH238961   1.572   6.461   3.425  0.1867 -0.0735  0.1644
 5849TIP3    H138962   1.501   6.442   3.364 -0.5708 -1.0621  1.3095
 5849TIP3    H238963   1.585   6.556   3.419 -0.1301 -0.1022 -1.2280
 5850TIP3   OH238964   4.279   0.582   2.219  1.1557 -0.3651  0.1318
 5850TIP3    H138965   4.213   0.522   2.185  1.1009  0.1795 -0.7309
 5850TIP3    H238966   4.273   0.571   2.314 -0.8051  0.3166  0.1347
 5851TIP3   OH238967   1.866   2.409  15.162  0.7748  0.1848 -0.1965
 5851TIP3    H138968   1.824   2.363  15.234 -1.5301 -1.2926 -2.3585
 5851TIP3    H238969   1.937   2.351  15.134  0.4764 -0.1336 -0.2986
 5852TIP3   OH238970   0.409   0.194  13.895 -0.5112 -0.1434  0.2335
 5852TIP3    H138971   0.394   0.279  13.936  0.3924  0.7587 -1.2152
 5852TIP3    H238972   0.494   0.166  13.927 -1.1794 -0.9449  1.3797
 5853TIP3   OH238973   5.859   4.482   0.512  0.1623 -0.8659  0.4892
 5853TIP3    H138974   5.859   4.387   0.523 -3.0658 -1.0759 -0.3870
 5853TIP3    H238975   5.871   4.516   0.601 -0.9008 -2.1592  1.1628
 5854TIP3   OH238976   0.417   6.208   2.438  0.5803 -0.5019 -0.0060
 5854TIP3    H138977   0.434   6.167   2.354 -0.8090  0.3005 -0.6988
 5854TIP3    H238978   0.350   6.274   2.421  1.1999  0.5846  1.4776
 5855TIP3   OH238979   1.580   1.974  14.300 -0.2599 -0.2165  0.7563
 5855TIP3    H138980   1.513   2.037  14.330  0.4182  0.6181  0.5454
 5855TIP3    H238981   1.626   2.020  14.230  1.6557 -0.1056  2.0280
 5856TIP3   OH238982   3.004   2.156   6.247 -0.5973 -0.0550  0.6049
 5856TIP3    H138983   2.972   2.244   6.269 -1.2530 -0.3806  1.0081
 5856TIP3    H238984   3.061   2.132   6.320  1.6710  1.0273 -0.7067
 5857TIP3   OH238985   5.445   0.240   1.178 -0.7296 -0.1749  0.2424
 5857TIP3    H138986   5.425   0.154   1.140 -1.9037  0.1933  0.0130
 5857TIP3    H238987   5.363   0.288   1.175 -0.4918  0.4075  1.8582
 5858TIP3   OH238988   5.182   4.346   3.463  0.5794  0.7048 -0.3204
 5858TIP3    H138989   5.185   4.363   3.557 -1.2241  1.2285 -0.3282
 5858TIP3    H238990   5.178   4.433   3.423 -0.0921  0.4605 -0.8007
 5859TIP3   OH238991   0.223   2.730   3.243 -0.0523 -0.2712 -0.0190
 5859TIP3    H138992   0.221   2.815   3.286  0.5034 -0.3338  0.1454
 5859TIP3    H238993   0.135   2.695   3.252 -0.4118  0.4897 -0.5058
 5860TIP3   OH238994   1.190   6.346  16.460 -0.3086 -0.4362  0.3216
 5860TIP3    H138995   1.285   6.348  16.476 -0.4459  0.1274  1.1340
 5860TIP3    H238996   1.176   6.267  16.409  0.8102  0.2874 -1.1794
 5861TIP3   OH238997   1.081   2.273   4.798  0.3794 -1.0445 -0.2224
 5861TIP3    H138998   1.163   2.318   4.778  0.8122 -1.4986  0.5213
 5861TIP3    H238999   1.084   2.192   4.747 -0.5232 -0.1496 -1.7795
 5862TIP3   OH239000   3.274   0.231  12.596  0.2254 -0.0479 -0.1369
 5862TIP3    H139001   3.346   0.284  12.629  2.2207 -1.5386 -1.7859
 5862TIP3    H239002   3.306   0.198  12.512 -2.6729 -0.2854 -1.2456
 5863TIP3   OH239003   6.414   3.395  11.003  0.2550 -0.4099 -0.2967
 5863TIP3    H139004   6.488   3.447  10.971 -0.6343  0.3216 -1.2322
 5863TIP3    H239005   6.433   3.381  11.095  0.5263  1.5908 -0.0015
 5864TIP3   OH239006   0.673   5.918  13.474 -0.6589 -0.5921  0.5398
 5864TIP3    H139007   0.641   5.874  13.395  0.3473 -0.6955  0.1827
 5864TIP3    H239008   0.691   6.007  13.446 -1.6772 -0.2182  1.0126
 5865TIP3   OH239009   6.455   3.422   5.352 -0.0950  0.6885 -0.2977
 5865TIP3    H139010   6.435   3.384   5.266 -0.3278  3.3297 -1.4809
 5865TIP3    H239011   6.389   3.385   5.410  0.2959 -1.4534 -1.1073
 5866TIP3   OH239012   1.531   2.540   0.405 -0.2737  0.1035  0.0105
 5866TIP3    H139013   1.610   2.592   0.389 -0.8563  2.1080  2.8221
 5866TIP3    H239014   1.460   2.603   0.397 -1.2854 -0.9194  0.7749
 5867TIP3   OH239015   2.103   6.140  12.271 -0.4141 -0.4648 -0.3609
 5867TIP3    H139016   2.087   6.131  12.365 -0.6115  1.8425 -0.1011
 5867TIP3    H239017   2.198   6.145  12.263 -0.4051 -0.4735 -0.2633
 5868TIP3   OH239018   6.443   5.435   1.263 -0.5594  0.8060  0.0679
 5868TIP3    H139019   6.438   5.362   1.202 -2.3820 -0.0546  1.1545
 5868TIP3    H239020   6.537   5.449   1.277 -0.1518 -0.1547 -1.4891
 5869TIP3   OH239021   5.093   2.083   4.537  0.2054 -0.4386 -0.0510
 5869TIP3    H139022   5.119   2.113   4.450 -1.2113  1.2396  0.0556
 5869TIP3    H239023   5.163   2.113   4.595 -0.7537  2.0727 -0.0760
 5870TIP3   OH239024   0.468   6.387  11.593 -0.1246 -0.5613  0.0104
 5870TIP3    H139025   0.507   6.399  11.507  0.1581  0.2876  0.2464
 5870TIP3    H239026   0.516   6.313  11.631 -0.1682 -0.8616 -0.5024
 5871TIP3   OH239027   4.229   4.299  14.356 -0.8384 -0.4126  0.4393
 5871TIP3    H139028   4.186   4.273  14.275 -0.6188 -1.4720  0.6415
 5871TIP3    H239029   4.304   4.351  14.328  0.2275 -2.1600 -0.1745
 5872TIP3   OH239030   0.233   2.254  13.950 -0.3227 -0.3955 -0.2222
 5872TIP3    H139031   0.172   2.181  13.954 -0.1853 -0.4690  0.6387
 5872TIP3    H239032   0.317   2.214  13.926 -0.6118 -0.2789 -1.5304
 5873TIP3   OH239033   5.181   0.844  13.638 -0.3768  0.2847 -0.1975
 5873TIP3    H139034   5.175   0.920  13.580 -1.8449  0.5413  0.2606
 5873TIP3    H239035   5.098   0.798  13.627 -0.1144 -0.4338  0.6695
 5874TIP3   OH239036   3.162   4.024   1.630  0.8577  0.3945  0.3342
 5874TIP3    H139037   3.075   4.062   1.620  1.0980  0.5758 -1.4695
 5874TIP3    H239038   3.162   3.987   1.718 -1.5185 -0.7710 -0.0498
 5875TIP3   OH239039   3.940   3.690   0.664 -0.1225  0.1715 -0.0236
 5875TIP3    H139040   3.861   3.639   0.682 -1.0132  1.9177  1.4140
 5875TIP3    H239041   3.913   3.781   0.679  1.2159  1.1873 -3.0085
 5876TIP3   OH239042   4.566   1.988   4.720  0.4634 -0.2761  0.2248
 5876TIP3    H139043   4.600   2.072   4.688 -0.5002 -0.4320 -1.2943
 5876TIP3    H239044   4.477   2.008   4.749  0.3562 -0.7020  0.1844
 5877TIP3   OH239045   1.593   0.144  14.742  0.1951 -0.3771  0.1398
 5877TIP3    H139046   1.507   0.126  14.704  0.8482  0.3035 -1.8092
 5877TIP3    H239047   1.599   0.086  14.817 -1.1297 -1.9737 -0.9227
 5878TIP3   OH239048   2.779   3.955   6.391  1.2980 -0.4469 -0.4695
 5878TIP3    H139049   2.816   3.933   6.477  1.1393  0.5887 -0.1199
 5878TIP3    H239050   2.798   3.879   6.337  3.8646 -0.0372 -0.2871
 5879TIP3   OH239051   5.916   4.014   5.012  0.1000  0.1673 -0.3721
 5879TIP3    H139052   5.992   4.067   5.035  0.9347 -1.1352 -0.0083
 5879TIP3    H239053   5.852   4.033   5.081  0.9616 -0.4295  0.6270
 5880TIP3   OH239054   0.320   3.525   1.409  0.9834 -0.1596  0.0005
 5880TIP3    H139055   0.328   3.527   1.313  0.4373  0.4254 -0.0386
 5880TIP3    H239056   0.265   3.601   1.430  2.9725  1.0656  0.9721
 5881TIP3   OH239057   4.762   2.630  11.802  0.4279  0.1101  0.0244
 5881TIP3    H139058   4.772   2.549  11.752  0.7323  0.9826 -1.3727
 5881TIP3    H239059   4.693   2.610  11.866  0.6363 -1.3021 -0.1533
 5882TIP3   OH239060   3.137   0.712  14.983  0.3358 -0.0514 -0.2498
 5882TIP3    H139061   3.197   0.768  15.031 -0.0027  0.1791 -0.0899
 5882TIP3    H239062   3.185   0.631  14.969  0.9931  0.4368 -0.8766
 5883TIP3   OH239063   1.518   3.617   1.382 -0.3272  0.0099  0.1019
 5883TIP3    H139064   1.440   3.656   1.343 -1.4909  0.5695  2.7320
 5883TIP3    H239065   1.521   3.528   1.348 -1.5855  0.2828 -0.7656
 5884TIP3   OH239066   0.086   5.017   2.567  0.6067 -0.1383 -0.3556
 5884TIP3    H139067   0.065   5.004   2.474  0.9449  1.2586 -0.6408
 5884TIP3    H239068   0.029   5.088   2.596  1.3037  0.2149  0.1977
 5885TIP3   OH239069   5.733   5.129   0.805  0.1897  0.0262  0.0073
 5885TIP3    H139070   5.701   5.116   0.894  0.3474 -1.3863 -0.1054
 5885TIP3    H239071   5.788   5.207   0.810  2.3413 -1.4848  1.7786
 5886TIP3   OH239072   3.406   3.428   3.684 -0.1078  0.5467  0.1399
 5886TIP3    H139073   3.345   3.495   3.714  0.3967  1.1317 -0.1299
 5886TIP3    H239074   3.463   3.412   3.759  1.2781  2.1500 -0.5028
 5887TIP3   OH239075   2.455   3.581  12.034  0.3453 -0.0044  0.4211
 5887TIP3    H139076   2.425   3.491  12.042 -0.1632  0.1365  0.1380
 5887TIP3    H239077   2.402   3.630  12.097 -0.3784  0.3276 -0.4368
 5888TIP3   OH239078   0.550   2.541  16.055  0.2094  0.6354  0.4300
 5888TIP3    H139079   0.455   2.538  16.069  0.4081 -0.2765  1.6934
 5888TIP3    H239080   0.583   2.599  16.124  0.9128 -1.8646  2.3549
 5889TIP3   OH239081   0.267   6.681  11.448  0.0674  1.0475 -0.1198
 5889TIP3    H139082   0.343   6.652  11.498 -0.0395  0.7219 -0.1461
 5889TIP3    H239083   0.302   6.708  11.363  0.2086  1.3138  0.0210
 5890TIP3   OH239084   1.452   3.551  11.762  0.5986  0.2742  0.4269
 5890TIP3    H139085   1.519   3.545  11.695  0.5394 -2.8246  0.5281
 5890TIP3    H239086   1.476   3.629  11.813  2.1418  1.1645 -1.5424
 5891TIP3   OH239087   1.731   5.485   6.264  0.2060 -0.1056 -0.2986
 5891TIP3    H139088   1.705   5.576   6.250 -0.2587 -0.0421  0.8872
 5891TIP3    H239089   1.659   5.447   6.314 -0.1476 -1.4456 -1.7141
 5892TIP3   OH239090   2.264   0.528  15.361  0.2081  0.6005  0.3254
 5892TIP3    H139091   2.211   0.451  15.343  0.0271  0.7982  0.0030
 5892TIP3    H239092   2.262   0.578  15.280 -0.6427  1.5309  0.8961
 5893TIP3   OH239093   2.616   0.449  14.806  0.0198  0.6299 -0.4525
 5893TIP3    H139094   2.607   0.438  14.901 -0.1928 -1.2121 -0.6451
 5893TIP3    H239095   2.658   0.368  14.777 -1.3801  0.4631 -2.1341
 5894TIP3   OH239096   1.738   0.571   2.855  0.7711 -0.1030  0.1636
 5894TIP3    H139097   1.662   0.516   2.875  0.0473  1.1728  1.0767
 5894TIP3    H239098   1.773   0.594   2.941  0.3614  1.7757 -0.1407
 5895TIP3   OH239099   5.676   6.647  12.078  0.4261  0.5679  0.7374
 5895TIP3    H139100   5.591   6.652  12.035  0.9287  0.3557 -0.3085
 5895TIP3    H239101   5.658   6.672  12.169 -0.8404  0.0013  0.6664
 5896TIP3   OH239102   3.486   3.098   5.156 -0.4744 -0.2082 -0.1664
 5896TIP3    H139103   3.491   3.025   5.093  0.6663 -0.3132  0.0087
 5896TIP3    H239104   3.565   3.087   5.209 -0.5976  0.8297  0.2347
 5897TIP3   OH239105   2.705   3.118   2.496 -0.7298 -0.1613 -0.3356
 5897TIP3    H139106   2.713   3.023   2.484 -0.7351 -0.0542 -1.2862
 5897TIP3    H239107   2.754   3.137   2.576  0.6007 -0.7563 -0.9911
 5898TIP3   OH239108   5.318   2.933   4.614 -0.1055  0.1514  0.0118
 5898TIP3    H139109   5.264   3.001   4.574  0.2835 -0.1375 -1.0195
 5898TIP3    H239110   5.341   2.875   4.542  2.1131  0.6085  0.2772
 5899TIP3   OH239111   0.918   1.018   6.307 -0.7031  0.0968 -0.4693
 5899TIP3    H139112   0.840   1.071   6.293 -1.1233 -0.1511  0.8115
 5899TIP3    H239113   0.902   0.974   6.391  1.7607  1.7604  0.9864
 5900TIP3   OH239114   6.177   3.417  17.117 -0.9561  0.4378  0.6585
 5900TIP3    H139115   6.128   3.499  17.120 -0.1952  0.8791  1.7517
 5900TIP3    H239116   6.132   3.364  17.052 -1.4381  1.7382 -0.0972
 5901TIP3   OH239117   3.517   3.004   2.328  0.0508  0.0920 -0.4177
 5901TIP3    H139118   3.480   3.080   2.282  2.3705  2.2834  1.0610
 5901TIP3    H239119   3.476   3.007   2.415 -0.7172 -1.0945 -0.7265
 5902TIP3   OH239120   6.630   3.125  17.050  0.0475  0.3396  0.0222
 5902TIP3    H139121   6.642   3.030  17.047 -0.7331  0.2584 -0.7886
 5902TIP3    H239122   6.540   3.139  17.021 -0.3814  1.2280  1.6421
 5903TIP3   OH239123   2.594   2.403  15.621  0.2090  0.7028 -0.4193
 5903TIP3    H139124   2.582   2.470  15.553  0.3395 -1.5668 -2.8357
 5903TIP3    H239125   2.551   2.325  15.586  0.8555 -0.7850  1.8570
 5904TIP3   OH239126   0.735   1.994   0.307 -0.6389  0.1031 -0.0844
 5904TIP3    H139127   0.782   1.993   0.391 -0.0507 -0.1496 -0.4116
 5904TIP3    H239128   0.651   1.951   0.326 -0.7658  0.6085  0.5191
 5905TIP3   OH239129   2.498   3.544  14.091  0.3036  0.0129  0.2409
 5905TIP3    H139130   2.432   3.588  14.037  0.1272 -0.7586 -0.1797
 5905TIP3    H239131   2.564   3.515  14.029 -1.5685 -4.0081 -0.1653
 5906TIP3   OH239132   1.290   1.676  11.522  0.2007 -0.0048  0.4950
 5906TIP3    H139133   1.208   1.632  11.544  0.4504 -0.1051  1.2541
 5906TIP3    H239134   1.337   1.612  11.467  0.5139 -0.6608  1.4983
 5907TIP3   OH239135   4.036   3.717   3.024  0.1454 -0.6738 -0.2423
 5907TIP3    H139136   4.044   3.626   3.052 -1.1047 -1.1169 -1.2766
 5907TIP3    H239137   4.099   3.726   2.952 -0.9696 -1.2183 -1.3041
 5908TIP3   OH239138   0.280   0.161  15.496 -0.2553 -0.5442  0.3387
 5908TIP3    H139139   0.292   0.255  15.509  2.7491 -0.9329  0.9930
 5908TIP3    H239140   0.186   0.152  15.479 -0.6921  2.5195  0.4590
 5909TIP3   OH239141   5.210   4.063  11.793  0.1544 -0.1356  0.0449
 5909TIP3    H139142   5.159   4.059  11.712 -0.5562  0.1710  0.4677
 5909TIP3    H239143   5.178   4.142  11.838 -0.6116 -1.1393  1.3544
 5910TIP3   OH239144   2.220   2.996   0.537  0.0169  0.3347 -0.3297
 5910TIP3    H139145   2.211   2.975   0.444  1.0240 -1.3512 -0.0798
 5910TIP3    H239146   2.304   2.959   0.562 -1.0931 -0.9922  1.7177
 5911TIP3   OH239147   6.287   0.527   5.552  0.5201  0.3894 -0.2005
 5911TIP3    H139148   6.257   0.568   5.633 -0.6139 -0.7460 -0.0068
 5911TIP3    H239149   6.295   0.598   5.489  0.5868  1.1647  0.6678
 5912TIP3   OH239150   1.775   4.352  14.000 -0.4817 -0.2820  0.1508
 5912TIP3    H139151   1.796   4.259  13.993 -0.1742 -0.3381  1.5076
 5912TIP3    H239152   1.857   4.394  14.025 -0.4419  0.4734 -1.1709
 5913TIP3   OH239153   4.082   2.590   5.145 -0.0701  0.4552  0.6308
 5913TIP3    H139154   4.170   2.558   5.164 -0.3185  0.9532  2.8411
 5913TIP3    H239155   4.091   2.685   5.141 -0.2279  0.4394 -0.9737
 5914TIP3   OH239156   6.351   5.035  13.334  0.1129 -0.7039 -0.0307
 5914TIP3    H139157   6.374   5.128  13.346 -0.7591 -0.5316  0.4027
 5914TIP3    H239158   6.418   5.001  13.275 -0.2530  0.5151 -1.1950
 5915TIP3   OH239159   4.107   3.457  15.989  0.0741  0.2798 -0.0282
 5915TIP3    H139160   4.142   3.533  16.036 -0.2310 -0.3390  1.2453
 5915TIP3    H239161   4.161   3.384  16.019 -0.2784 -0.1705 -0.4732
 5916TIP3   OH239162   5.794   1.930   2.455  0.4910 -0.1979  0.1339
 5916TIP3    H139163   5.710   1.887   2.438  0.7472 -0.5837 -0.1812
 5916TIP3    H239164   5.821   1.963   2.369  1.5287 -1.6623 -0.1508
 5917TIP3   OH239165   5.390   0.735   4.908 -0.9261 -0.4010  0.3896
 5917TIP3    H139166   5.323   0.675   4.941  0.3080 -0.5568  2.7852
 5917TIP3    H239167   5.461   0.678   4.878 -0.0551 -0.2180  1.9968
 5918TIP3   OH239168   5.915   1.301  15.551  0.5110  0.2061  0.7287
 5918TIP3    H139169   5.881   1.313  15.463 -0.7195 -0.7708  1.0565
 5918TIP3    H239170   5.990   1.242  15.540 -0.4158 -0.9561  0.4648
 5919TIP3   OH239171   6.118   0.935   4.039 -0.1128 -0.5423 -0.4389
 5919TIP3    H139172   6.070   0.967   3.962 -1.1047 -1.1996 -0.1173
 5919TIP3    H239173   6.210   0.948   4.017 -0.3992 -0.1534 -1.4823
 5920TIP3   OH239174   3.031   0.184  13.908  0.2759 -0.4964 -0.1377
 5920TIP3    H139175   3.065   0.272  13.924 -0.1376 -0.6194  1.5596
 5920TIP3    H239176   3.049   0.168  13.815  0.1777  1.4448 -0.5253
 5921TIP3   OH239177   4.556   6.710   3.454 -1.0485  0.1080  0.1994
 5921TIP3    H139178   4.492   6.722   3.383 -0.2187 -0.1020 -0.6019
 5921TIP3    H239179   4.632   6.761   3.427 -0.0478 -1.4088  0.0462
 5922TIP3   OH239180   5.293   3.400   3.837 -0.1623 -0.6259  0.0649
 5922TIP3    H139181   5.264   3.383   3.926  1.7120  1.2170  1.1237
 5922TIP3    H239182   5.222   3.452   3.798 -1.5899 -2.5420 -0.0407
 5923TIP3   OH239183   2.321   1.690   6.342 -0.2200 -0.3240  0.0716
 5923TIP3    H139184   2.416   1.677   6.338  0.2634  2.1805  1.3705
 5923TIP3    H239185   2.287   1.606   6.371  1.3324 -1.9208 -2.3470
 5924TIP3   OH239186   1.952   4.851  14.610 -0.1791 -0.4551 -0.5441
 5924TIP3    H139187   1.905   4.845  14.693  1.4292  1.8143  0.6348
 5924TIP3    H239188   1.975   4.760  14.589  1.6478 -0.9642  2.9324
 5925TIP3   OH239189   0.529   0.564  12.690  0.8128  0.0798 -0.1092
 5925TIP3    H139190   0.528   0.475  12.653  0.3086  0.8106 -1.9874
 5925TIP3    H239191   0.436   0.585  12.702  0.9194  0.4510  0.0663
 5926TIP3   OH239192   2.329   5.703  16.811  0.2423  0.2451 -0.2079
 5926TIP3    H139193   2.392   5.647  16.856  0.4716  0.8918  0.2936
 5926TIP3    H239194   2.264   5.724  16.879  0.7015  1.3971 -0.1089
 5927TIP3   OH239195   4.882   0.433  15.061 -0.0844 -0.7145 -0.0490
 5927TIP3    H139196   4.882   0.408  15.154 -0.6909 -0.0522  0.1405
 5927TIP3    H239197   4.971   0.413  15.031  0.6700  0.6723  1.1340
 5928TIP3   OH239198   2.056   1.809  12.721  0.2680 -0.2291 -0.2204
 5928TIP3    H139199   2.119   1.879  12.699 -1.1370  1.3419  0.5317
 5928TIP3    H239200   2.101   1.756  12.787  1.0019  0.5449 -0.0784
 5929TIP3   OH239201   5.457   6.527   0.785  0.2746  0.6728 -0.0520
 5929TIP3    H139202   5.443   6.464   0.714  0.3001 -0.4766  0.9376
 5929TIP3    H239203   5.504   6.599   0.743 -0.4571  0.4171 -1.3892
 5930TIP3   OH239204   5.507   6.626  15.463  0.1026 -0.5518 -0.1344
 5930TIP3    H139205   5.502   6.645  15.369 -1.1830 -0.9239 -0.1521
 5930TIP3    H239206   5.572   6.556  15.470 -0.4229 -1.1258 -0.8503
 5931TIP3   OH239207   5.079   5.670   0.443 -0.4551  0.0688  0.4456
 5931TIP3    H139208   5.034   5.635   0.520  0.6592 -0.8187  0.7341
 5931TIP3    H239209   5.152   5.608   0.428  0.0859  0.9159 -0.5616
 5932TIP3   OH239210   6.326   0.677  14.440 -0.4191 -0.0512 -0.0088
 5932TIP3    H139211   6.349   0.647  14.528 -0.5154 -0.9909 -0.2858
 5932TIP3    H239212   6.411   0.693  14.397 -0.2848 -1.6566 -0.4125
 5933TIP3   OH239213   4.588   6.564  11.428 -0.1448  0.4624  0.1815
 5933TIP3    H139214   4.625   6.629  11.368  2.4787 -0.0044  1.1287
 5933TIP3    H239215   4.544   6.616  11.495 -0.4482  1.1267 -0.5177
 5934TIP3   OH239216   5.690   6.008  16.086  0.5873  0.7060 -0.3904
 5934TIP3    H139217   5.734   5.928  16.057  1.8912  1.3965 -0.4033
 5934TIP3    H239218   5.598   5.994  16.065  0.8549 -0.6137 -0.7798
 5935TIP3   OH239219   2.739   4.287  15.308 -0.2353  0.3061 -0.2314
 5935TIP3    H139220   2.816   4.341  15.291 -0.3357  0.9390  1.2008
 5935TIP3    H239221   2.773   4.209  15.352 -0.2020 -0.4063 -1.4619
 5936TIP3   OH239222   2.984   3.635  13.961 -0.5189  0.1024  0.6692
 5936TIP3    H139223   2.924   3.575  14.006 -0.5486 -0.3539  0.0352
 5936TIP3    H239224   2.934   3.664  13.885  0.8782 -2.2157 -1.2770
 5937TIP3   OH239225   0.078   3.882   1.274 -0.4609  0.2446  0.1582
 5937TIP3    H139226   0.097   3.975   1.287  1.5692  0.4486 -3.0900
 5937TIP3    H239227  -0.015   3.879   1.254 -0.5212  1.6027  0.1240
 5938TIP3   OH239228   3.305   1.949   5.981 -0.1439  0.3102  0.1803
 5938TIP3    H139229   3.252   2.017   5.939 -0.6466  0.9575  1.7937
 5938TIP3    H239230   3.304   1.972   6.074  2.2513 -0.1580  0.3799
 5939TIP3   OH239231   6.448   2.049   5.011  0.4973  0.0826  0.1975
 5939TIP3    H139232   6.532   2.070   4.969  0.3728  0.5368  0.1714
 5939TIP3    H239233   6.464   2.065   5.104 -0.0381  1.8194  0.0284
 5940TIP3   OH239234   1.462   0.993   4.950  0.2824  0.3915 -0.3471
 5940TIP3    H139235   1.426   1.005   4.862 -0.9696 -0.7702 -0.0181
 5940TIP3    H239236   1.536   0.934   4.937 -0.9482 -1.1801 -0.4361
 5941TIP3   OH239237   6.462   2.712  14.543  0.1890 -0.6737  0.3483
 5941TIP3    H139238   6.467   2.627  14.588 -2.3971 -1.2654 -0.3217
 5941TIP3    H239239   6.370   2.736  14.547  0.5850  1.3033 -1.0023
 5942TIP3   OH239240   3.473   3.913  15.386  0.2359  0.0243  0.1188
 5942TIP3    H139241   3.378   3.913  15.374  0.4586 -2.1788 -2.6254
 5942TIP3    H239242   3.500   4.001  15.358 -0.9162  0.5032  0.4293
 5943TIP3   OH239243   2.097   0.508  13.651  0.1574  0.8941  0.2257
 5943TIP3    H139244   2.007   0.486  13.625 -0.2089  3.4369 -1.0502
 5943TIP3    H239245   2.107   0.470  13.738 -1.4987 -0.9925 -0.3209
 5944TIP3   OH239246   1.945   2.268   3.407 -0.3158 -0.2665  0.7267
 5944TIP3    H139247   1.892   2.189   3.418 -0.6063 -0.1299  0.2887
 5944TIP3    H239248   1.916   2.326   3.478 -2.0089  0.5057 -0.5224
 5945TIP3   OH239249   0.545   1.937   4.122 -0.0234  0.5299  0.3116
 5945TIP3    H139250   0.627   1.908   4.161 -0.4617 -2.0333 -0.5052
 5945TIP3    H239251   0.558   1.929   4.028 -1.1075  0.3826  0.1605
 5946TIP3   OH239252   4.033   1.832  16.462  0.2891 -0.0349 -0.3435
 5946TIP3    H139253   3.982   1.771  16.515  0.5120  0.7987  0.8861
 5946TIP3    H239254   4.124   1.813  16.486  0.4683 -0.3379 -1.2183
 5947TIP3   OH239255   0.471   0.169  11.965  0.1910 -0.3464  0.1280
 5947TIP3    H139256   0.553   0.141  12.004 -0.7279  0.7908  3.1335
 5947TIP3    H239257   0.489   0.256  11.929  0.8591 -1.1140 -1.5176
 5948TIP3   OH239258   6.476   3.031   5.033  0.6637  0.4023 -0.1845
 5948TIP3    H139259   6.385   3.001   5.042  0.2508  1.5632 -0.3493
 5948TIP3    H239260   6.521   2.958   4.992 -0.3593  0.0803 -0.7738
 5949TIP3   OH239261   4.729   4.869  15.961 -0.5297  0.2712  0.2128
 5949TIP3    H139262   4.654   4.840  16.013 -1.0125  2.0238  0.5575
 5949TIP3    H239263   4.690   4.911  15.884  0.1584 -0.7809 -0.7604
 5950TIP3   OH239264   5.988   1.742   0.365 -0.4439  0.0800  0.8052
 5950TIP3    H139265   6.013   1.686   0.292 -0.3645  0.4197  0.5733
 5950TIP3    H239266   5.919   1.692   0.411  0.4081 -0.7086  1.2568
 5951TIP3   OH239267   0.724   4.007   1.617  0.0954 -0.3170 -0.3694
 5951TIP3    H139268   0.693   3.926   1.577 -1.5241  1.2380 -2.5095
 5951TIP3    H239269   0.745   4.064   1.543  2.3416  0.8634  1.0554
 5952TIP3   OH239270   1.669   3.345   2.455 -0.4550  0.3800  0.1417
 5952TIP3    H139271   1.583   3.369   2.418 -0.4300  0.3312  0.0506
 5952TIP3    H239272   1.650   3.277   2.519 -0.2863 -1.1107 -1.3209
 5953TIP3   OH239273   1.845   5.824  16.334 -0.1571  0.1324  0.5480
 5953TIP3    H139274   1.835   5.834  16.428  1.5315  0.1210  0.7441
 5953TIP3    H239275   1.929   5.781  16.322 -0.1571  0.4803 -0.9911
 5954TIP3   OH239276   5.019   6.058  12.248 -0.2961  0.5184  0.4657
 5954TIP3    H139277   4.974   6.104  12.319 -1.5372 -0.1716  0.1552
 5954TIP3    H239278   5.069   5.989  12.291  0.2076  1.0779  0.7868
 5955TIP3   OH239279   5.526   3.547   1.947 -0.3189  0.0667 -0.1287
 5955TIP3    H139280   5.595   3.505   1.895  0.2049  1.4071 -0.5576
 5955TIP3    H239281   5.450   3.490   1.936 -0.1728  0.2151 -2.2494
 5956TIP3   OH239282   4.361   1.321   4.135  0.4667  0.2171  0.0563
 5956TIP3    H139283   4.330   1.354   4.220  0.4170 -1.0337  0.5592
 5956TIP3    H239284   4.450   1.291   4.152 -0.0679 -1.4676  0.0941
 5957TIP3   OH239285   3.582   3.205  12.887 -0.2135  0.0121 -0.0678
 5957TIP3    H139286   3.512   3.254  12.844  0.3335 -0.0984 -1.1162
 5957TIP3    H239287   3.649   3.194  12.819  1.0040  0.4579  1.0202
 5958TIP3   OH239288   3.272   1.746  13.467 -0.1485  0.2704  0.0840
 5958TIP3    H139289   3.250   1.653  13.467 -1.8327  0.6332  0.8537
 5958TIP3    H239290   3.286   1.768  13.375  1.5075 -0.9715 -0.0257
 5959TIP3   OH239291   0.117   4.716  13.361  0.0812 -0.1401 -0.4435
 5959TIP3    H139292   0.188   4.654  13.376 -1.0893 -1.3348  0.4124
 5959TIP3    H239293   0.134   4.752  13.274  0.5154 -2.0799 -1.2059
 5960TIP3   OH239294   0.986   1.593  11.504 -0.1016  0.3566 -0.2904
 5960TIP3    H139295   0.971   1.522  11.442  2.2038  1.4308 -2.2544
 5960TIP3    H239296   0.906   1.645  11.502 -0.6440 -0.4860 -1.1740
 5961TIP3   OH239297   1.000   4.227   4.747  0.4141 -0.5324 -1.1143
 5961TIP3    H139298   1.071   4.268   4.697 -0.1651  2.6833  0.4462
 5961TIP3    H239299   0.939   4.298   4.765 -1.6934 -2.5457  0.2339
 5962TIP3   OH239300   3.467   5.977  15.553 -0.3134 -0.1065 -0.2610
 5962TIP3    H139301   3.550   5.961  15.507 -0.1214 -0.6450  0.2646
 5962TIP3    H239302   3.490   6.035  15.625 -0.4179 -0.1350 -0.2047
 5963TIP3   OH239303   3.511   3.354   6.400 -0.4806  0.3240 -0.5662
 5963TIP3    H139304   3.430   3.304   6.408 -0.0933 -0.3662 -0.8947
 5963TIP3    H239305   3.580   3.293   6.426 -0.0927  1.0217  0.0840
 5964TIP3   OH239306   5.820   2.458  16.651 -0.2031 -0.2622 -0.1197
 5964TIP3    H139307   5.844   2.550  16.665 -1.5725  0.2198 -0.6904
 5964TIP3    H239308   5.738   2.463  16.601 -0.0216 -1.8077 -0.6080
 5965TIP3   OH239309   0.207   6.269   5.636  0.0586  0.5289 -0.2824
 5965TIP3    H139310   0.145   6.198   5.622 -0.1480  0.8262 -0.8897
 5965TIP3    H239311   0.233   6.261   5.728  0.6219 -0.8015 -0.5331
 5966TIP3   OH239312   5.663   3.204   1.093 -0.5474  0.4712 -0.0017
 5966TIP3    H139313   5.639   3.203   1.186 -0.3472  1.3637  0.0751
 5966TIP3    H239314   5.735   3.142   1.086  0.1839  1.2168  0.6636
 5967TIP3   OH239315   4.501   1.023  17.373 -0.0298  0.2119 -0.0099
 5967TIP3    H139316   4.470   1.113  17.366  0.3806  0.3389 -0.2937
 5967TIP3    H239317   4.596   1.030  17.364  0.0097 -0.2463  0.0122
 5968TIP3   OH239318   4.179   2.119   3.295  0.5443 -0.2098  0.3948
 5968TIP3    H139319   4.100   2.065   3.293  0.7850 -0.6198  1.4197
 5968TIP3    H239320   4.170   2.171   3.375  0.8133  0.5178 -0.0363
 5969TIP3   OH239321   1.740   4.806  13.220 -0.2054  0.1435 -0.3904
 5969TIP3    H139322   1.680   4.741  13.186 -0.9622  0.4620  0.2903
 5969TIP3    H239323   1.804   4.756  13.271 -0.1663 -0.1590 -0.7378
 5970TIP3   OH239324   0.511   4.916  17.200  0.2053  0.4645 -0.2605
 5970TIP3    H139325   0.449   4.863  17.250  0.2609  0.1250 -0.5510
 5970TIP3    H239326   0.579   4.940  17.263 -0.5295  1.3475  0.2140
 5971TIP3   OH239327   6.504   4.502   0.785 -0.0585 -0.1388 -0.3495
 5971TIP3    H139328   6.485   4.509   0.692 -1.2642 -0.6326 -0.1550
 5971TIP3    H239329   6.512   4.408   0.802  2.9981 -0.0179 -0.4570
 5972TIP3   OH239330   1.147   3.983   0.887  0.2113 -0.2371  0.3224
 5972TIP3    H139331   1.181   4.030   0.963 -0.5020  3.7219 -1.5406
 5972TIP3    H239332   1.205   4.008   0.816 -0.9915 -1.2051 -1.0415
 5973TIP3   OH239333   2.896   1.448   4.782  0.9274 -0.3929  0.2217
 5973TIP3    H139334   2.936   1.411   4.703 -0.2481 -0.7258 -0.2382
 5973TIP3    H239335   2.900   1.377   4.845  1.2042 -0.3658  0.2396
 5974TIP3   OH239336   2.811   5.095  13.196 -0.0088 -0.0124 -0.1441
 5974TIP3    H139337   2.891   5.084  13.145  1.1118 -2.2832  1.9001
 5974TIP3    H239338   2.765   5.012  13.186 -1.8308  1.0149 -0.7266
 5975TIP3   OH239339   6.642   2.159   0.304 -0.1755  0.1952 -0.1929
 5975TIP3    H139340   6.621   2.226   0.239 -0.5930 -1.4814 -1.8840
 5975TIP3    H239341   6.558   2.118   0.324  0.4166 -1.7304 -1.4323
 5976TIP3   OH239342   5.208   0.933  13.010 -0.1383 -0.2244  0.3398
 5976TIP3    H139343   5.139   0.886  13.056  1.1047 -1.4060  1.0552
 5976TIP3    H239344   5.218   1.015  13.059 -0.6498 -0.2799  0.5468
 5977TIP3   OH239345   0.779   4.428  12.529  0.2275 -0.2051 -0.3307
 5977TIP3    H139346   0.736   4.477  12.458 -0.8139 -1.2472 -0.4475
 5977TIP3    H239347   0.833   4.364  12.485  0.2549 -0.2868 -0.1786
 5978TIP3   OH239348   0.528   3.243   5.436  0.3329 -0.0995  0.5551
 5978TIP3    H139349   0.507   3.152   5.460  0.3355 -0.3329 -0.2714
 5978TIP3    H239350   0.491   3.252   5.348 -1.5497  1.3598  1.4242
 5979TIP3   OH239351   4.720   5.619   4.009 -0.0700  0.6546  0.1883
 5979TIP3    H139352   4.746   5.647   4.097 -0.9826  1.1445  0.3081
 5979TIP3    H239353   4.627   5.598   4.016 -0.4842  1.9293 -0.9428
 5980TIP3   OH239354   2.543   4.911   1.636 -0.2685 -0.4494  0.6681
 5980TIP3    H139355   2.558   4.913   1.542 -0.1868 -0.2954  0.6833
 5980TIP3    H239356   2.464   4.858   1.648 -1.0755  0.6665  0.4155
 5981TIP3   OH239357   4.094   2.483   6.058  0.6848 -0.4732  0.4210
 5981TIP3    H139358   4.056   2.548   6.117  2.0855  0.3935  0.4257
 5981TIP3    H239359   4.185   2.475   6.087  0.8729 -1.4882 -0.3979
 5982TIP3   OH239360   0.374   6.047  12.208 -0.2444 -0.0404 -0.2603
 5982TIP3    H139361   0.294   6.033  12.158  0.9134 -1.2336 -1.9112
 5982TIP3    H239362   0.384   5.967  12.260  1.1732 -1.1283 -2.0728
 5983TIP3   OH239363   6.712   6.025   3.041 -0.1627 -0.8933 -1.0237
 5983TIP3    H139364   6.660   5.971   3.101  1.4300 -3.0663 -1.4829
 5983TIP3    H239365   6.802   5.995   3.054  0.8752  1.9339 -1.1023
 5984TIP3   OH239366   2.425   2.545  17.273 -0.7225  0.2207  0.2348
 5984TIP3    H139367   2.380   2.506  17.198  1.2979 -0.7009 -0.5843
 5984TIP3    H239368   2.513   2.564  17.241  0.6781 -1.4757  2.6948
 5985TIP3   OH239369   6.353   5.614  17.039 -0.3834  0.1669 -0.6925
 5985TIP3    H139370   6.272   5.661  17.058 -0.5661  0.3582 -1.8183
 5985TIP3    H239371   6.326   5.541  16.984  0.1416 -0.0900 -0.6174
 5986TIP3   OH239372   0.153   3.327  13.142  0.4496  0.2206 -0.7996
 5986TIP3    H139373   0.096   3.298  13.214  0.8920  1.1391 -0.0556
 5986TIP3    H239374   0.102   3.310  13.063 -0.9975  1.2795 -0.1508
 5987TIP3   OH239375   3.479   5.616  15.957  0.0595  0.7082 -0.6704
 5987TIP3    H139376   3.426   5.693  15.938 -2.4911 -0.5237  0.7816
 5987TIP3    H239377   3.534   5.642  16.031 -2.1017  0.7581  1.0616
 5988TIP3   OH239378   4.221   4.938   0.524 -0.4611  0.2638  0.5417
 5988TIP3    H139379   4.256   5.017   0.565 -0.7014  0.3391  0.6048
 5988TIP3    H239380   4.272   4.929   0.443  1.4272 -1.0213  1.7983
 5989TIP3   OH239381   1.640   5.980   1.753 -0.1459  0.2971 -0.8023
 5989TIP3    H139382   1.604   6.043   1.691  0.7288 -0.0135 -1.6354
 5989TIP3    H239383   1.583   5.903   1.744 -1.1625  0.8951  0.1551
 5990TIP3   OH239384   1.651   6.682   0.340 -0.5625 -0.3905 -0.5824
 5990TIP3    H139385   1.589   6.704   0.410 -0.9305  0.7913 -1.2621
 5990TIP3    H239386   1.663   6.587   0.348 -1.3746 -0.4262  0.4434
 5991TIP3   OH239387   3.132   2.961   3.777  0.2535 -0.3379  0.7816
 5991TIP3    H139388   3.061   2.913   3.734  0.8122 -1.3902  0.9987
 5991TIP3    H239389   3.182   3.000   3.705 -0.3802  0.1826  0.6154
 5992TIP3   OH239390   3.090   4.751  13.336 -0.8892 -0.4606 -0.1004
 5992TIP3    H139391   3.080   4.724  13.245  0.0290 -0.1509 -0.3058
 5992TIP3    H239392   3.182   4.732  13.357 -1.2238 -1.0358  0.9367
 5993TIP3   OH239393   2.849   2.320   4.350 -0.5688 -0.2069 -0.3111
 5993TIP3    H139394   2.900   2.318   4.269 -0.7220  1.0344 -0.4612
 5993TIP3    H239395   2.827   2.228   4.367  1.2581 -0.7283 -0.5149
 5994TIP3   OH239396   4.761   3.316  11.119 -0.5827 -0.0108 -0.1573
 5994TIP3    H139397   4.855   3.303  11.111 -0.6161 -0.9963  0.8149
 5994TIP3    H239398   4.723   3.263  11.049 -0.3939  1.5317 -1.4966
 5995TIP3   OH239399   0.917   1.894   2.123  0.7121 -0.0655 -0.2898
 5995TIP3    H139400   0.894   1.968   2.067 -2.1802 -0.4125  0.2455
 5995TIP3    H239401   0.936   1.933   2.208  0.8191  0.1726 -0.4223
 5996TIP3   OH239402   2.587   0.783   4.273  0.1050  0.0733 -0.2355
 5996TIP3    H139403   2.598   0.803   4.180  0.0439 -0.7518 -0.4282
 5996TIP3    H239404   2.610   0.865   4.318  2.8045 -0.2595 -0.8285
 5997TIP3   OH239405   3.413   3.277  15.914 -0.2161 -0.5514  0.2790
 5997TIP3    H139406   3.347   3.298  15.848 -1.4246 -1.1433  1.2545
 5997TIP3    H239407   3.364   3.273  15.996  1.3282  0.6786  1.3279
 5998TIP3   OH239408   1.188   4.303   0.663  0.1734 -0.4455  0.1680
 5998TIP3    H139409   1.192   4.208   0.670  0.3498 -0.3990  0.7581
 5998TIP3    H239410   1.279   4.331   0.666  0.2929 -0.3822 -2.1620
 5999TIP3   OH239411   3.195   0.965   1.253  0.5286 -0.4769 -0.4592
 5999TIP3    H139412   3.290   0.954   1.251  1.1895  2.9202  2.4478
 5999TIP3    H239413   3.174   0.978   1.345 -2.7445 -0.5567 -1.0659
 6000TIP3   OH239414   3.850   3.486  14.442  0.6560  0.1242  0.4628
 6000TIP3    H139415   3.869   3.577  14.463  0.4931  0.1147  0.6570
 6000TIP3    H239416   3.870   3.438  14.523 -4.4078  0.6306  2.4136
 6001TIP3   OH239417   4.328   3.477  10.551  0.2564  0.1113 -0.0854
 6001TIP3    H139418   4.334   3.413  10.480  1.9377 -1.3212  1.2486
 6001TIP3    H239419   4.376   3.437  10.623 -1.4700  1.4670  1.9334
 6002TIP3   OH239420   6.088   1.363  14.693  0.9815  0.0385 -0.4370
 6002TIP3    H139421   6.157   1.359  14.627  0.6985 -1.4164 -0.6800
 6002TIP3    H239422   6.087   1.275  14.731 -0.1059  0.3177  0.2202
 6003TIP3   OH239423   0.604   5.240  11.729  0.6067  0.1786 -0.4904
 6003TIP3    H139424   0.665   5.170  11.752  0.0141  0.1985  1.3011
 6003TIP3    H239425   0.617   5.307  11.796 -1.3895  0.1534 -0.0028
 6004TIP3   OH239426   2.100   1.486   6.193 -0.4950 -0.0074  0.4061
 6004TIP3    H139427   2.156   1.409   6.193 -0.8272 -0.2492  0.5868
 6004TIP3    H239428   2.087   1.506   6.286 -0.0903  0.5006  0.3593
 6005TIP3   OH239429   2.881   1.637  17.381 -0.1654  0.2178  0.3025
 6005TIP3    H139430   2.811   1.575  17.364 -1.1633  1.3398  0.2151
 6005TIP3    H239431   2.929   1.599  17.455 -0.1528 -1.1088 -0.3496
 6006TIP3   OH239432   0.905   2.634  17.105  0.2754  0.4047 -0.0382
 6006TIP3    H139433   0.880   2.724  17.085  1.8043  1.4192  2.2274
 6006TIP3    H239434   0.852   2.610  17.182 -0.4668 -0.8507 -0.8940
 6007TIP3   OH239435   1.883   5.450  14.936  0.0145  0.1747 -0.0555
 6007TIP3    H139436   1.951   5.474  14.999  0.6710 -0.1842 -0.6080
 6007TIP3    H239437   1.801   5.478  14.977  0.4570  0.2689  0.7922
 6008TIP3   OH239438   5.176   1.202   0.049  0.1357  0.3807  0.1086
 6008TIP3    H139439   5.198   1.130  -0.011 -0.6549 -0.0439  0.3206
 6008TIP3    H239440   5.228   1.185   0.127 -1.2926 -0.9539  0.8400
 6009TIP3   OH239441   2.449   3.930   6.740  0.7352 -0.1284 -0.2619
 6009TIP3    H139442   2.424   4.005   6.687  0.5651  0.3414  0.4679
 6009TIP3    H239443   2.463   3.859   6.677 -0.4085  0.1550 -0.8455
 6010TIP3   OH239444   6.121   4.146   1.885 -0.2427 -0.3535 -0.3383
 6010TIP3    H139445   6.052   4.124   1.948  0.4359 -4.1328 -0.7197
 6010TIP3    H239446   6.199   4.102   1.919  0.7529 -0.3811 -2.5182
 6011TIP3   OH239447   3.560   3.003  14.341  0.6645  0.4574  0.6430
 6011TIP3    H139448   3.627   3.069  14.356  1.2691  0.1232 -0.4710
 6011TIP3    H239449   3.478   3.045  14.368  1.2430  1.0578  1.5064
 6012TIP3   OH239450   1.175   2.379  16.142 -0.3524 -0.7708 -0.3491
 6012TIP3    H139451   1.088   2.356  16.112 -0.5826  0.3414 -0.5936
 6012TIP3    H239452   1.202   2.307  16.199 -1.1982 -1.3827 -0.7192
 6013TIP3   OH239453   6.344   6.232   5.412 -0.4644 -0.0592  0.1101
 6013TIP3    H139454   6.365   6.223   5.505  1.0021 -1.3135 -0.2889
 6013TIP3    H239455   6.273   6.168   5.398 -1.9852  1.4198  0.6795
 6014TIP3   OH239456   6.636   0.232  15.962 -0.1501  0.5168  0.0876
 6014TIP3    H139457   6.727   0.208  15.943 -0.1779  1.3681 -1.2085
 6014TIP3    H239458   6.641   0.319  16.001 -0.3508  0.1304  1.0135
 6015TIP3   OH239459   0.156   2.825   0.380 -0.3618 -0.2393 -0.1134
 6015TIP3    H139460   0.077   2.773   0.366 -0.6045  0.2053 -0.4270
 6015TIP3    H239461   0.155   2.845   0.474 -1.9855  1.8610 -0.4868
 6016TIP3   OH239462   0.309   2.442   3.960  0.5953  0.7095 -0.0933
 6016TIP3    H139463   0.328   2.431   4.053 -0.5550  1.5489  0.2677
 6016TIP3    H239464   0.370   2.510   3.930  1.0186  0.3835  0.0173
 6017TIP3   OH239465   0.896   0.550  17.153  0.1640  0.4106  1.4406
 6017TIP3    H139466   0.912   0.640  17.179  0.7040  0.8767 -0.4106
 6017TIP3    H239467   0.915   0.498  17.232  1.0469  1.7880  2.1613
 6018TIP3   OH239468   0.635   3.649  17.035 -0.5197  0.0560 -0.8981
 6018TIP3    H139469   0.662   3.724  17.087  0.3520 -0.9587  0.1868
 6018TIP3    H239470   0.705   3.585  17.047 -2.2925 -1.8376  0.1797
 6019TIP3   OH239471   2.881   0.555  12.830  0.8944  0.1349 -0.2748
 6019TIP3    H139472   2.904   0.520  12.916 -0.2902 -1.5547 -0.6128
 6019TIP3    H239473   2.926   0.498  12.768  0.6354  0.5061 -0.8111
 6020TIP3   OH239474   3.775   4.024   2.381 -0.0311  0.4426 -0.5880
 6020TIP3    H139475   3.830   4.051   2.454  0.0497  0.6319 -0.7199
 6020TIP3    H239476   3.685   4.040   2.412 -0.0661 -0.7507 -0.0080
 6021TIP3   OH239477   6.414   1.247  12.187 -0.2143 -0.0390 -0.2533
 6021TIP3    H139478   6.489   1.273  12.241 -0.7770  1.8472 -0.3106
 6021TIP3    H239479   6.339   1.253  12.247 -0.7005  1.0253 -0.9464
 6022TIP3   OH239480   2.181   6.755   0.109 -0.6926  0.1516 -0.0599
 6022TIP3    H139481   2.196   6.661   0.124  1.9180  0.2705 -1.2692
 6022TIP3    H239482   2.182   6.794   0.196 -0.2388 -0.7880  0.3731
 6023TIP3   OH239483   4.406   2.684   6.270  0.1883 -0.1960  1.0665
 6023TIP3    H139484   4.333   2.746   6.270 -0.4626 -0.8856 -0.9333
 6023TIP3    H239485   4.377   2.613   6.212  2.5615 -0.3694 -0.0024
 6024TIP3   OH239486   3.048   3.677   1.087  0.2321  0.4568  0.3811
 6024TIP3    H139487   3.127   3.694   1.036  1.4070  0.1400  1.9960
 6024TIP3    H239488   2.999   3.613   1.036 -0.0135  2.1657 -1.6285
 6025TIP3   OH239489   1.385   5.921  14.974  0.0087  0.0599 -0.3169
 6025TIP3    H139490   1.323   5.994  14.975  1.0218  0.9352 -0.1234
 6025TIP3    H239491   1.433   5.929  15.056  1.0595  0.0020 -0.9135
 6026TIP3   OH239492   5.841   4.993  13.148  0.0426 -0.2077  0.2704
 6026TIP3    H139493   5.819   4.946  13.228  0.0894  0.9422  0.9637
 6026TIP3    H239494   5.936   5.006  13.154  0.0272 -0.0117  0.0768
 6027TIP3   OH239495   1.575   4.011  15.149 -0.1547 -0.3385  0.1142
 6027TIP3    H139496   1.570   3.934  15.092  0.1084  0.1321 -0.5537
 6027TIP3    H239497   1.549   3.979  15.235 -2.2763 -0.7002 -0.6089
 6028TIP3   OH239498   3.101   5.249   6.165  0.9168 -0.6388  0.1554
 6028TIP3    H139499   3.138   5.161   6.163  1.2941 -0.5178  1.0318
 6028TIP3    H239500   3.070   5.260   6.255 -0.0577 -0.2423 -0.2091
 6029TIP3   OH239501   1.025   1.364   0.421  0.2830 -0.4478 -0.5566
 6029TIP3    H139502   1.022   1.456   0.392 -1.7445 -0.5848 -0.9831
 6029TIP3    H239503   1.065   1.317   0.347  1.3949  0.0830 -0.3078
 6030TIP3   OH239504   0.556   1.288   4.249 -0.6665 -0.2160  0.0343
 6030TIP3    H139505   0.589   1.206   4.287 -2.7867 -1.1541 -0.0263
 6030TIP3    H239506   0.616   1.355   4.282  0.7578 -1.6906  0.6067
 6031TIP3   OH239507   3.976   6.090   0.529 -0.2331  0.0650  0.0891
 6031TIP3    H139508   4.069   6.077   0.513 -0.4144 -0.4561 -0.5695
 6031TIP3    H239509   3.971   6.122   0.620  0.7742  2.3659 -0.5862
 6032TIP3   OH239510   2.661   0.462   0.246 -0.4247  0.1927 -0.9532
 6032TIP3    H139511   2.665   0.543   0.195  2.3464  0.0591 -1.1007
 6032TIP3    H239512   2.714   0.480   0.324 -1.8821 -0.6819  0.2836
 6033TIP3   OH239513   4.583   4.023  16.028 -0.3083 -0.0661 -0.3598
 6033TIP3    H139514   4.503   3.975  16.008  0.2692 -0.7859 -1.0358
 6033TIP3    H239515   4.628   3.969  16.093 -0.9217  0.9419  0.9450
 6034TIP3   OH239516   2.766   6.405  13.458  0.0029 -0.0942  0.0744
 6034TIP3    H139517   2.853   6.366  13.467  0.2637  0.5333  0.3905
 6034TIP3    H239518   2.780   6.481  13.401 -0.1105  0.6548  1.0006
 6035TIP3   OH239519   2.935   4.590   2.238  0.1987  0.2514  0.1258
 6035TIP3    H139520   2.956   4.508   2.193  0.0187  1.1561 -1.6982
 6035TIP3    H239521   3.017   4.616   2.279  0.7358  0.0584 -0.7989
 6036TIP3   OH239522   4.033   1.447  10.852 -0.3026 -0.4266  0.2089
 6036TIP3    H139523   3.950   1.444  10.805 -0.5349  1.9626  0.3303
 6036TIP3    H239524   4.036   1.366  10.902 -2.8773 -0.3169  0.6726
 6037TIP3   OH239525   0.645   2.931   3.147 -0.6591  0.0851  0.7294
 6037TIP3    H139526   0.577   2.869   3.173 -1.7136  1.0405  0.3173
 6037TIP3    H239527   0.691   2.887   3.075 -1.3332 -0.2623  0.4999
 6038TIP3   OH239528   0.497   0.645  16.275 -0.6810  0.5761  0.2295
 6038TIP3    H139529   0.556   0.717  16.254  0.3423  0.0094  1.0421
 6038TIP3    H239530   0.420   0.659  16.220  1.1785  0.0002 -2.6994
 6039TIP3   OH239531   2.004   4.896   3.095 -0.0103  0.1078  0.1920
 6039TIP3    H139532   1.920   4.888   3.141  0.3891  0.5595  1.0200
 6039TIP3    H239533   2.025   4.990   3.100  0.5581 -0.0069  0.0216
 6040TIP3   OH239534   4.997   2.725   4.330  0.1771  0.0279 -0.1486
 6040TIP3    H139535   5.064   2.773   4.281 -0.9795  2.5449  0.5880
 6040TIP3    H239536   5.040   2.703   4.413  0.3660  0.8556 -0.0198
 6041TIP3   OH239537   1.752   5.896   5.304 -0.5849 -0.1723 -0.7666
 6041TIP3    H139538   1.807   5.970   5.277  0.4360 -0.6120  0.0104
 6041TIP3    H239539   1.667   5.935   5.322 -0.6259  0.4930 -2.2469
 6042TIP3   OH239540   2.760   2.285   1.935  0.1567  0.0869 -0.1191
 6042TIP3    H139541   2.666   2.274   1.923  0.0507  0.9562 -0.1391
 6042TIP3    H239542   2.790   2.200   1.968 -0.4418 -0.5736 -1.2041
 6043TIP3   OH239543   6.411   4.068   1.163 -0.2513 -0.0117  0.3948
 6043TIP3    H139544   6.474   4.021   1.109  0.7915  0.1127  1.4661
 6043TIP3    H239545   6.329   4.064   1.114  0.5146 -0.4388 -0.8813
 6044TIP3   OH239546   5.090   6.363  15.591  0.4453 -0.1720 -0.2489
 6044TIP3    H139547   5.060   6.312  15.516  0.8831 -0.5820 -0.1579
 6044TIP3    H239548   5.168   6.409  15.560 -0.5198  1.2514 -0.6187
 6045TIP3   OH239549   2.852   4.301   5.662 -0.3067  0.1318 -0.1736
 6045TIP3    H139550   2.766   4.304   5.619 -0.4121 -0.1903  0.0115
 6045TIP3    H239551   2.903   4.241   5.608 -0.1992  0.3092 -0.2731
 6046TIP3   OH239552   1.511   1.668   2.226 -0.2868 -0.4853  0.1815
 6046TIP3    H139553   1.521   1.748   2.176 -1.1730 -0.1313  0.5440
 6046TIP3    H239554   1.553   1.600   2.173 -0.3268  0.0574 -0.5515
 6047TIP3   OH239555   1.582   1.500  11.305  0.5507 -0.4939 -0.2885
 6047TIP3    H139556   1.670   1.529  11.330  1.1085 -1.4779 -0.9817
 6047TIP3    H239557   1.542   1.470  11.386  1.3248 -1.1590 -0.1368
 6048TIP3   OH239558   4.615   4.169   0.284 -0.1498  0.3599 -0.0833
 6048TIP3    H139559   4.689   4.226   0.306  0.4960 -0.0363 -1.1418
 6048TIP3    H239560   4.570   4.214   0.212  0.5554 -0.5857 -1.1521
 6049TIP3   OH239561   6.314   6.127  16.232 -0.4550 -0.4430  0.3713
 6049TIP3    H139562   6.329   6.112  16.139 -1.8854  2.3877 -0.4332
 6049TIP3    H239563   6.219   6.139  16.240 -0.2689  0.2786  2.0259
 6050TIP3   OH239564   3.037   3.895   4.389  0.7012 -0.6289 -0.0461
 6050TIP3    H139565   2.976   3.859   4.325  1.2493  2.0515 -2.2463
 6050TIP3    H239566   3.000   3.980   4.413  1.5498 -0.7006  1.7172
 6051TIP3   OH239567   3.086   1.983  12.316 -0.5180  0.2310 -0.3323
 6051TIP3    H139568   3.041   1.961  12.234 -0.5336 -0.7036 -0.0901
 6051TIP3    H239569   3.042   1.930  12.382 -0.8074  1.3230  0.3754
 6052TIP3   OH239570   3.456   2.198   1.913 -0.0011 -0.3080 -0.7119
 6052TIP3    H139571   3.397   2.211   1.838 -0.2146 -1.4533 -0.7628
 6052TIP3    H239572   3.499   2.114   1.895  1.9367  0.6700 -0.8625
 6053TIP3   OH239573   5.158   4.170  15.350 -0.2536 -0.1085 -0.5243
 6053TIP3    H139574   5.154   4.257  15.389 -0.1606  0.0484 -0.8666
 6053TIP3    H239575   5.243   4.166  15.308  1.1868 -1.5259  2.2025
 6054TIP3   OH239576   5.702   4.136   6.553 -0.0866  0.3408  0.4974
 6054TIP3    H139577   5.691   4.129   6.458  1.2757  1.0991  0.2600
 6054TIP3    H239578   5.690   4.046   6.585  0.4642 -0.1181 -0.5254
 6055TIP3   OH239579   4.165   2.177  16.173 -0.1718 -0.4200 -0.5170
 6055TIP3    H139580   4.150   2.224  16.255  2.4288  1.7068 -1.1200
 6055TIP3    H239581   4.168   2.085  16.199  2.4164  0.2563  2.2115
 6056TIP3   OH239582   5.545   4.582   4.551 -0.1388  0.0192 -0.2629
 6056TIP3    H139583   5.470   4.631   4.583 -0.8128 -0.5945 -0.8601
 6056TIP3    H239584   5.617   4.608   4.608 -0.7567  0.7603  0.1994
 6057TIP3   OH239585   6.474   1.049  12.018  0.0362 -0.4942 -0.5260
 6057TIP3    H139586   6.422   1.113  12.067  1.3070  0.1522  0.0463
 6057TIP3    H239587   6.547   1.028  12.077 -0.2897 -2.4046 -0.7613
 6058TIP3   OH239588   2.898   3.370   5.773 -0.3000  0.2270 -0.6555
 6058TIP3    H139589   2.836   3.300   5.757  0.9713 -0.5610 -2.4986
 6058TIP3    H239590   2.932   3.353   5.860 -1.0527 -0.6129 -0.5154
 6059TIP3   OH239591   2.571   4.566   3.871 -0.1154 -0.1256 -0.1470
 6059TIP3    H139592   2.611   4.486   3.905  0.0329 -0.1599 -0.4038
 6059TIP3    H239593   2.590   4.632   3.937 -0.7079 -0.4214  0.3341
 6060TIP3   OH239594   1.293   0.925   5.158 -0.0431  0.6832  0.0270
 6060TIP3    H139595   1.328   0.945   5.072 -2.7160 -0.1031 -1.3395
 6060TIP3    H239596   1.199   0.914   5.144 -0.4483 -0.3337  2.8929
 6061TIP3   OH239597   2.750   2.922   0.689  0.1831  0.5471  0.0015
 6061TIP3    H139598   2.815   2.919   0.759 -2.4037 -1.6235  2.5549
 6061TIP3    H239599   2.678   2.973   0.725 -1.6361 -1.4619 -0.5793
 6062TIP3   OH239600   1.515   6.038   2.339 -0.7838  0.4151 -0.3037
 6062TIP3    H139601   1.464   6.119   2.339 -0.2403  0.7635 -0.4791
 6062TIP3    H239602   1.606   6.067   2.346 -0.6113 -0.2017  0.0499
 6063TIP3   OH239603   0.506   0.809  16.630  0.3510  0.2322  0.3410
 6063TIP3    H139604   0.553   0.893  16.629  0.1072  0.3770  0.6925
 6063TIP3    H239605   0.546   0.760  16.702  2.0958 -0.9006 -1.3099
 6064TIP3   OH239606   0.751   5.708   4.055  0.2732 -0.0994 -0.4979
 6064TIP3    H139607   0.666   5.670   4.033  0.7452 -1.2047 -0.5116
 6064TIP3    H239608   0.787   5.648   4.121  1.1119  0.2589 -0.6199
 6065TIP3   OH239609   3.862   0.350  13.556 -0.5069  0.2417  0.2712
 6065TIP3    H139610   3.955   0.333  13.541 -0.4631  0.5107  0.2353
 6065TIP3    H239611   3.853   0.353  13.651 -0.9417 -2.3614  0.3876
 6066TIP3   OH239612   6.308   5.229   4.719 -0.4181  0.1372  0.6583
 6066TIP3    H139613   6.288   5.200   4.808  0.0323 -1.6800  0.1893
 6066TIP3    H239614   6.294   5.152   4.664  3.3150 -0.0225 -0.3199
 6067TIP3   OH239615   4.997   6.363  11.377  0.0652  0.0234  0.1071
 6067TIP3    H139616   4.945   6.442  11.388  0.3343  0.5549 -2.0062
 6067TIP3    H239617   5.042   6.352  11.461 -0.4950  1.7229  0.6673
 6068TIP3   OH239618   1.073   0.244  11.465  0.0308  0.5085  0.5251
 6068TIP3    H139619   1.136   0.311  11.436  0.8697 -0.9649 -1.2775
 6068TIP3    H239620   1.123   0.189  11.525 -0.1748  0.5419  0.7273
 6069TIP3   OH239621   4.323   1.100   4.940 -0.2812 -0.3611  0.1263
 6069TIP3    H139622   4.342   1.008   4.927 -0.5551 -0.2684 -1.0746
 6069TIP3    H239623   4.401   1.135   4.983 -0.2606 -1.1792  0.7806
 6070TIP3   OH239624   3.286   5.689  11.203 -0.2647  0.2612 -0.2377
 6070TIP3    H139625   3.368   5.697  11.153 -0.7785 -1.2188 -1.4189
 6070TIP3    H239626   3.252   5.603  11.178 -2.0850  0.7536  0.3912
 6071TIP3   OH239627   6.222   3.545   4.639  0.5968  0.3578  0.3077
 6071TIP3    H139628   6.196   3.633   4.614 -0.1647  0.1995  0.5292
 6071TIP3    H239629   6.316   3.541   4.619  1.2965  2.0813  2.7525
 6072TIP3   OH239630   1.580   2.964   1.960 -0.2485  0.4472  0.3038
 6072TIP3    H139631   1.573   2.969   1.865 -0.2006 -0.6144  0.2280
 6072TIP3    H239632   1.490   2.953   1.990 -0.1692 -0.3467  0.2838
 6073TIP3   OH239633   0.317   5.936   5.756 -0.1257  0.1117  0.4580
 6073TIP3    H139634   0.312   5.849   5.717 -1.7130  1.2838 -2.1625
 6073TIP3    H239635   0.232   5.948   5.798  0.0400  0.4632  0.6959
 6074TIP3   OH239636   2.113   4.845  15.105 -0.1758  0.5601  0.1175
 6074TIP3    H139637   2.191   4.832  15.158 -0.3642  1.6724  0.6866
 6074TIP3    H239638   2.051   4.890  15.163 -1.2051 -0.1860 -0.3555
 6075TIP3   OH239639   5.897   0.049   5.071  0.3252 -0.5759 -0.3558
 6075TIP3    H139640   5.905   0.042   4.976  1.9142  1.1169 -0.4064
 6075TIP3    H239641   5.804   0.038   5.088 -0.2102  0.4629 -2.2744
 6076TIP3   OH239642   3.550   1.033   2.278  0.1135  0.3310  0.1773
 6076TIP3    H139643   3.475   0.975   2.269  0.5486 -0.3660  0.8946
 6076TIP3    H239644   3.586   1.040   2.190  0.4924 -1.1082  0.1858
 6077TIP3   OH239645   0.757   3.405   0.550 -0.4640  0.3203 -0.0938
 6077TIP3    H139646   0.806   3.406   0.632 -0.3849 -0.8359 -0.1188
 6077TIP3    H239647   0.801   3.340   0.496  0.2939  1.9674 -1.5880
 6078TIP3   OH239648   1.606   6.723  15.611 -0.5006 -0.4908  0.0608
 6078TIP3    H139649   1.683   6.781  15.606 -0.2936 -0.5618  1.8205
 6078TIP3    H239650   1.614   6.680  15.696 -1.2559 -2.2892 -0.7160
 6079TIP3   OH239651   2.650   2.859   2.522  0.0237 -0.4665 -0.2675
 6079TIP3    H139652   2.702   2.779   2.531 -1.1142 -1.3389 -1.1352
 6079TIP3    H239653   2.559   2.829   2.529 -0.4637  0.5927 -1.6117
 6080TIP3   OH239654   5.789   3.523   1.350  0.3820 -0.6849  1.0204
 6080TIP3    H139655   5.799   3.558   1.439  0.6077  0.3425  0.6014
 6080TIP3    H239656   5.847   3.447   1.348  0.0858 -0.9468  1.8671
 6081TIP3   OH239657   3.722   5.306   1.051  0.0988 -0.2853 -0.7471
 6081TIP3    H139658   3.814   5.298   1.026 -0.4243  0.1053 -3.1188
 6081TIP3    H239659   3.711   5.397   1.075  1.0331 -1.0472  3.2079
 6082TIP3   OH239660   5.416   3.153  13.538  0.3698 -0.3119  0.0564
 6082TIP3    H139661   5.379   3.211  13.605  0.9225  0.5759 -0.3815
 6082TIP3    H239662   5.508   3.144  13.562  0.4274 -0.5003 -0.2370
 6083TIP3   OH239663   3.280   5.532  14.257 -0.2498  0.3524  0.3641
 6083TIP3    H139664   3.318   5.444  14.253 -0.3933  0.2981  0.1473
 6083TIP3    H239665   3.331   5.577  14.324  1.7328  0.9836 -1.4616
 6084TIP3   OH239666   3.404   6.454  16.913 -0.0324  0.1039 -0.0913
 6084TIP3    H139667   3.481   6.470  16.968 -0.1418  0.5257 -0.0540
 6084TIP3    H239668   3.439   6.439  16.826  0.1076  0.0617 -0.0269
 6085TIP3   OH239669   0.426   2.856   5.103  0.3026 -0.3288 -0.1438
 6085TIP3    H139670   0.371   2.867   5.181 -0.4662  0.2048 -0.7448
 6085TIP3    H239671   0.511   2.827   5.137  0.1773  0.5337  0.9431
 6086TIP3   OH239672   4.742   6.639  16.895 -0.5777  0.2460  0.6653
 6086TIP3    H139673   4.664   6.669  16.847 -0.0194  0.4568 -0.1382
 6086TIP3    H239674   4.801   6.714  16.893 -0.5621  0.2804  1.7679
 6087TIP3   OH239675   0.275   4.632   2.666 -0.1871  0.1963  0.0141
 6087TIP3    H139676   0.195   4.606   2.713 -0.0023 -0.3014  0.0632
 6087TIP3    H239677   0.344   4.578   2.705  0.0805  0.2410 -0.3920
 6088TIP3   OH239678   4.474   1.628  11.226 -0.0881  0.4522 -0.0511
 6088TIP3    H139679   4.515   1.542  11.235 -0.1262  0.6375  2.6942
 6088TIP3    H239680   4.546   1.690  11.232 -0.2140  0.6632 -0.6305
 6089TIP3   OH239681   1.793   3.661  12.261 -0.2760  0.1641  0.0015
 6089TIP3    H139682   1.719   3.683  12.205  1.0539  1.9829 -1.1359
 6089TIP3    H239683   1.787   3.723  12.334 -0.7762 -0.7699  0.7715
 6090TIP3   OH239684   0.983   4.509   0.333  0.5363 -0.4276 -0.0451
 6090TIP3    H139685   0.890   4.523   0.351  0.1974 -1.9363 -0.5181
 6090TIP3    H239686   1.023   4.498   0.420  0.2854  0.1653  0.1534
 6091TIP3   OH239687   4.274   5.736   5.309  0.1777 -0.4982 -0.9268
 6091TIP3    H139688   4.188   5.737   5.266 -0.0114  2.2141 -0.7042
 6091TIP3    H239689   4.329   5.681   5.253 -0.5745  1.2560 -3.6029
 6092TIP3   OH239690   6.173   6.340   0.115  0.2761 -0.0946 -0.1576
 6092TIP3    H139691   6.188   6.245   0.118 -1.7594 -0.5394 -1.6856
 6092TIP3    H239692   6.213   6.367   0.032  1.5181  0.5674  0.6267
 6093TIP3   OH239693   4.375   1.187   2.968 -0.3819  0.1987  0.5145
 6093TIP3    H139694   4.437   1.243   2.921  1.5466 -1.4496  0.9243
 6093TIP3    H239695   4.428   1.147   3.038 -1.5874 -2.1697  0.1800
 6094TIP3   OH239696   6.019   4.828  11.892 -0.0019  0.6452 -0.8039
 6094TIP3    H139697   6.044   4.742  11.925 -0.3454  0.6000 -0.6540
 6094TIP3    H239698   5.969   4.809  11.812 -1.8374  0.5892  0.3114
 6095TIP3   OH239699   0.160   1.073  14.517 -0.3108  0.5469  0.4232
 6095TIP3    H139700   0.154   1.019  14.596 -0.2304  0.0509  0.0879
 6095TIP3    H239701   0.247   1.112  14.521  1.1094 -2.1628 -1.1373
 6096TIP3   OH239702   1.616   4.438  13.611  0.0468  0.0736 -0.2205
 6096TIP3    H139703   1.688   4.399  13.562  0.2784 -1.4831  1.2369
 6096TIP3    H239704   1.538   4.397  13.575  0.2635 -1.5755  1.0460
 6097TIP3   OH239705   4.036   1.410   1.447  0.0965 -0.0446  0.4870
 6097TIP3    H139706   4.098   1.349   1.487  1.0099 -0.1544 -1.0036
 6097TIP3    H239707   4.073   1.497   1.464  0.2770 -0.0686  0.2177
 6098TIP3   OH239708   3.045   3.025   0.186 -0.0149  0.4501  0.0341
 6098TIP3    H139709   3.006   3.067   0.263  0.9569  1.0795  0.2056
 6098TIP3    H239710   3.072   2.938   0.217  0.1130  0.5947  0.3285
 6099TIP3   OH239711   4.532   0.168   1.438 -0.3561  0.1275 -0.8560
 6099TIP3    H139712   4.494   0.100   1.382  1.7934  0.5785 -3.0522
 6099TIP3    H239713   4.539   0.127   1.524 -1.6653 -1.4516 -1.4542
 6100TIP3   OH239714   2.399   2.346   4.771 -0.0466 -0.5831  0.3272
 6100TIP3    H139715   2.318   2.391   4.751 -0.1126 -1.3291 -1.2568
 6100TIP3    H239716   2.386   2.310   4.859 -1.0337  0.1266  0.4857
 6101TIP3   OH239717   2.078   3.224   3.220 -0.3987 -0.0589 -0.2441
 6101TIP3    H139718   2.103   3.184   3.304  0.3796  0.6180 -0.1403
 6101TIP3    H239719   2.019   3.160   3.180  0.4889 -1.1274  0.0942
 6102TIP3   OH239720   4.217   3.978  12.773 -0.4326 -0.2620 -0.2515
 6102TIP3    H139721   4.174   4.036  12.710  1.1585 -2.4049 -3.6303
 6102TIP3    H239722   4.310   4.002  12.768 -0.1828 -0.9861  0.7373
 6103TIP3   OH239723   3.829   3.607   4.742  0.4805  0.0362 -0.1774
 6103TIP3    H139724   3.876   3.526   4.723  0.4646 -0.3137  1.1369
 6103TIP3    H239725   3.739   3.579   4.761  0.4537  0.3644  0.2019
 6104TIP3   OH239726   4.694   1.465  11.700 -0.1943 -0.3961 -0.2784
 6104TIP3    H139727   4.620   1.446  11.757 -0.4311  0.9065 -0.1207
 6104TIP3    H239728   4.666   1.437  11.613 -0.9058  0.1281 -0.2278
 6105TIP3   OH239729   2.305   3.902   2.919 -1.2011  0.5035  0.3128
 6105TIP3    H139730   2.218   3.900   2.881  0.2995  0.6088 -3.5599
 6105TIP3    H239731   2.354   3.835   2.872  1.0249  0.9299  1.8309
 6106TIP3   OH239732   4.955   5.378  11.847 -0.3591  0.4190 -0.1214
 6106TIP3    H139733   5.017   5.341  11.785  0.2680 -0.9280  1.2152
 6106TIP3    H239734   4.872   5.381  11.799  0.1211 -0.4745 -1.0585
 6107TIP3   OH239735   1.180   0.110   6.467  0.0315 -0.0451  0.0548
 6107TIP3    H139736   1.112   0.129   6.404  1.1546  0.2477 -1.1045
 6107TIP3    H239737   1.216   0.026   6.439  0.3024 -0.0906  0.5207
 6108TIP3   OH239738   1.583   4.948   5.696 -0.0425  0.1129 -0.2681
 6108TIP3    H139739   1.666   4.971   5.655 -0.3906  0.3030 -0.8689
 6108TIP3    H239740   1.579   5.004   5.774  0.1375  0.4927 -0.5310
 6109TIP3   OH239741   2.578   3.577   4.435 -0.4876 -0.5777 -0.4774
 6109TIP3    H139742   2.540   3.655   4.393  0.2831  0.3351  0.4856
 6109TIP3    H239743   2.516   3.507   4.413 -0.5879  0.0310 -2.3667
 6110TIP3   OH239744   1.283   3.159   4.125  0.4827  0.7376 -0.3109
 6110TIP3    H139745   1.196   3.197   4.133  0.1801  0.2169 -1.0170
 6110TIP3    H239746   1.343   3.234   4.129 -0.0637  1.2176 -0.9625
 6111TIP3   OH239747   1.201   1.494   1.236  0.6402 -0.1075 -0.3378
 6111TIP3    H139748   1.192   1.482   1.331 -1.4045 -0.5547 -0.5463
 6111TIP3    H239749   1.128   1.551   1.212  2.5046  2.0057 -1.3513
 6112TIP3   OH239750   3.730   4.179  16.751  0.0168 -0.2487 -0.1474
 6112TIP3    H139751   3.758   4.223  16.831  1.3621  0.2662 -0.8703
 6112TIP3    H239752   3.798   4.200  16.687  0.0575 -2.3321 -0.8805
 6113TIP3   OH239753   4.136   5.972  14.603  0.1328  0.8445 -0.4328
 6113TIP3    H139754   4.148   5.878  14.617  2.9002  1.0873 -0.5750
 6113TIP3    H239755   4.101   5.979  14.514 -0.6593 -0.0540 -0.2051
 6114TIP3   OH239756   2.526   5.335  14.463 -0.3103 -0.3898  0.4063
 6114TIP3    H139757   2.491   5.392  14.531 -0.5923 -1.1723  0.9226
 6114TIP3    H239758   2.576   5.269  14.510  0.2541 -0.4130 -0.2059
 6115TIP3   OH239759   4.423   0.087  14.395  0.2253  0.1242 -0.4030
 6115TIP3    H139760   4.357   0.145  14.359  1.5511  2.1538  0.2749
 6115TIP3    H239761   4.506   0.121  14.363  1.1416 -0.6157  1.0384
 6116TIP3   OH239762   3.221   4.076  14.771  0.1807 -0.0230  0.4279
 6116TIP3    H139763   3.183   4.037  14.849 -0.3085 -1.0202 -0.2940
 6116TIP3    H239764   3.314   4.084  14.791  0.2329 -1.2157  0.7422
 6117TIP3   OH239765   1.996   2.780   1.144  0.2686 -0.2590  0.0210
 6117TIP3    H139766   1.929   2.840   1.112 -1.1379 -1.3019  0.9191
 6117TIP3    H239767   2.051   2.834   1.201  1.1843  0.9626 -1.9029
 6118TIP3   OH239768   2.088   5.327   0.271  0.0259 -0.8238 -0.6279
 6118TIP3    H139769   2.107   5.320   0.364 -0.3863 -0.5140 -0.5157
 6118TIP3    H239770   2.146   5.263   0.229  2.4018  1.1108 -0.4879
 6119TIP3   OH239771   1.104   6.537   4.938  0.4927  0.4748  0.4014
 6119TIP3    H139772   1.120   6.449   4.904  0.6239  0.7260 -0.2019
 6119TIP3    H239773   1.191   6.575   4.947  0.3730  1.2760 -1.3507
 6120TIP3   OH239774   1.088   1.006  16.511  0.0530 -0.4678  0.0112
 6120TIP3    H139775   1.102   1.000  16.606 -0.4938 -0.6503  0.0841
 6120TIP3    H239776   1.134   0.930  16.476 -0.8000 -1.1240  0.2622
 6121TIP3   OH239777   4.707   4.865  13.595 -0.2201 -0.0689 -0.1476
 6121TIP3    H139778   4.710   4.777  13.631  1.5913  0.2666  0.6637
 6121TIP3    H239779   4.796   4.880  13.561 -0.5400  1.3629 -0.4315
 6122TIP3   OH239780   3.631   2.120  14.165 -0.3325  0.7972  0.3989
 6122TIP3    H139781   3.565   2.140  14.098  1.3092  0.7417 -1.3312
 6122TIP3    H239782   3.581   2.092  14.241 -2.2798  0.2233 -1.0233
 6123TIP3   OH239783   4.389   2.072  12.772 -0.6815 -0.1986  0.1644
 6123TIP3    H139784   4.407   1.978  12.773 -0.5459 -0.1818 -0.2584
 6123TIP3    H239785   4.446   2.108  12.840 -0.4566 -0.3760  0.0727
 6124TIP3   OH239786   4.434   3.525  16.945  0.0387  0.3041 -0.4081
 6124TIP3    H139787   4.462   3.509  17.035 -0.2930  0.2768 -0.3073
 6124TIP3    H239788   4.367   3.593  16.952  0.1964  0.4885 -0.6608
 6125TIP3   OH239789   0.010   1.285  14.111  0.0150 -0.1004  0.4038
 6125TIP3    H139790   0.102   1.269  14.130 -0.6792 -1.2597  3.2927
 6125TIP3    H239791  -0.008   1.371  14.150 -0.2001 -0.0128  0.1140
 6126TIP3   OH239792   2.829   6.543  16.900  0.3353  0.0890 -0.0128
 6126TIP3    H139793   2.873   6.464  16.933 -0.5251  0.4167  2.1046
 6126TIP3    H239794   2.747   6.510  16.863  0.4441 -0.1092 -0.0789
 6127TIP3   OH239795   1.135   0.954   0.433  0.4151 -0.6812  0.0792
 6127TIP3    H139796   1.059   0.903   0.462 -0.4838  0.2104 -0.6460
 6127TIP3    H239797   1.140   1.027   0.494 -0.1332 -0.0200 -0.6412
 6128TIP3   OH239798   3.487   2.344   5.794  0.5503  0.2082 -0.1345
 6128TIP3    H139799   3.552   2.302   5.850  2.9074  1.0344 -2.1160
 6128TIP3    H239800   3.484   2.290   5.715 -1.1751  0.2297 -0.1295
 6129TIP3   OH239801   4.680   0.081   2.260  0.0690 -0.3681 -0.3639
 6129TIP3    H139802   4.770   0.067   2.231 -0.1015 -0.5159 -0.8383
 6129TIP3    H239803   4.679   0.172   2.292  0.7700 -0.8576  1.1520
 6130TIP3   OH239804   0.805   5.217  15.856 -0.1218  0.0600 -0.1747
 6130TIP3    H139805   0.731   5.232  15.915  0.9413 -1.4409  1.6652
 6130TIP3    H239806   0.860   5.295  15.866 -1.4933  1.2930 -1.7354
 6131TIP3   OH239807   5.598   2.309   2.155 -0.0287  0.4240 -1.0059
 6131TIP3    H139808   5.531   2.246   2.182 -0.9627  1.4917 -0.7554
 6131TIP3    H239809   5.565   2.345   2.073  0.9108  0.0030 -1.5894
 6132TIP3   OH239810   5.338   6.696   3.605 -0.0379 -0.3921  0.5217
 6132TIP3    H139811   5.401   6.631   3.573  0.7424  0.4681  0.2718
 6132TIP3    H239812   5.392   6.760   3.651 -0.7812  0.1525  0.6385
 6133TIP3   OH239813   3.673   0.697   0.495  0.2823 -0.3523  0.0807
 6133TIP3    H139814   3.653   0.605   0.478  0.2662 -0.5253  0.9980
 6133TIP3    H239815   3.605   0.745   0.447  0.2867 -0.8081 -0.4000
 6134TIP3   OH239816   2.410   1.102  11.677  0.4302  0.8204  0.4912
 6134TIP3    H139817   2.462   1.038  11.725 -1.2140 -1.0205 -0.0705
 6134TIP3    H239818   2.366   1.153  11.745  1.2097  0.9060  0.9452
 6135TIP3   OH239819   0.737   1.702  11.503 -0.1350  0.0521 -0.1288
 6135TIP3    H139820   0.705   1.716  11.592  1.3754 -0.4239  0.5187
 6135TIP3    H239821   0.692   1.768  11.450 -1.8144 -0.2982  0.7893
 6136TIP3   OH239822   4.521   3.837  16.520  0.5591 -0.7285  0.9420
 6136TIP3    H139823   4.605   3.852  16.564  1.1845  1.1822 -0.7335
 6136TIP3    H239824   4.542   3.781  16.445  0.7625  1.1119 -0.4698
 6137TIP3   OH239825   6.709   0.418   5.501  0.1846  0.7453 -0.0923
 6137TIP3    H139826   6.748   0.493   5.545  0.6948  0.1464  0.4957
 6137TIP3    H239827   6.627   0.403   5.547  0.9486 -0.1858  1.0095
 6138TIP3   OH239828   0.567   4.200   5.210 -0.1967 -0.2819  0.3601
 6138TIP3    H139829   0.501   4.258   5.249 -0.3873 -0.2850  0.0446
 6138TIP3    H239830   0.610   4.159   5.285  0.2753  0.6268  0.6038
 6139TIP3   OH239831   3.428   4.662   2.399 -0.0060  0.2037  0.4399
 6139TIP3    H139832   3.405   4.569   2.397 -0.4017  0.2478 -3.5081
 6139TIP3    H239833   3.521   4.665   2.379  0.0660  0.6770  0.8163
 6140TIP3   OH239834   3.441   5.178  16.600  0.3800 -0.4166  0.4049
 6140TIP3    H139835   3.392   5.096  16.594 -1.9198  0.8762  0.3858
 6140TIP3    H239836   3.474   5.193  16.512  1.0492 -1.4330  0.4715
 6141TIP3   OH239837   2.962   5.264  16.301  0.1247 -0.4247 -0.0605
 6141TIP3    H139838   2.917   5.256  16.385  1.2429  2.2466  0.9130
 6141TIP3    H239839   2.961   5.175  16.264  0.6682 -2.0151  3.3507
 6142TIP3   OH239840   1.791   5.954  14.176 -0.7253 -0.3726  0.1443
 6142TIP3    H139841   1.805   5.870  14.131  2.1036 -0.2206  0.5691
 6142TIP3    H239842   1.719   5.936  14.237  1.3686 -3.3634  2.0592
 6143TIP3   OH239843   2.911   5.132   4.898  0.1419 -0.0603  0.3172
 6143TIP3    H139844   2.823   5.161   4.923  0.4695  0.3136  1.0719
 6143TIP3    H239845   2.964   5.212   4.898  0.6853 -0.4103  0.7965
 6144TIP3   OH239846   1.055   5.505   4.832 -0.0090  0.4446 -0.2208
 6144TIP3    H139847   0.960   5.504   4.821  0.1018 -1.7786 -1.4518
 6144TIP3    H239848   1.068   5.500   4.927 -1.0421  3.1541  0.1666
 6145TIP3   OH239849   4.060   2.417   1.795  0.0716  0.0576  0.2246
 6145TIP3    H139850   4.043   2.420   1.700  2.9548 -2.3147 -0.5314
 6145TIP3    H239851   4.074   2.324   1.813  1.6982  0.6794  2.5447
 6146TIP3   OH239852   6.572   1.882  11.774 -0.5528  0.1459  0.7689
 6146TIP3    H139853   6.638   1.838  11.721 -1.1132 -1.5184  1.3803
 6146TIP3    H239854   6.611   1.967  11.795 -0.1593  0.6965 -1.9077
 6147TIP3   OH239855   5.327   5.800   1.513  0.7253 -0.0633  0.5339
 6147TIP3    H139856   5.392   5.765   1.453 -0.0262 -0.4436 -0.0805
 6147TIP3    H239857   5.273   5.724   1.537  0.2034  0.3295  0.6365
 6148TIP3   OH239858   3.219   1.209  14.972 -0.0084  0.6193  0.3423
 6148TIP3    H139859   3.308   1.244  14.971  0.1690  0.1625 -0.3334
 6148TIP3    H239860   3.226   1.123  14.931 -0.8170  0.7359 -0.0682
 6149TIP3   OH239861   4.334   3.424  12.626 -0.5204 -0.2048 -0.0362
 6149TIP3    H139862   4.337   3.519  12.643 -2.3060 -0.2231  0.6422
 6149TIP3    H239863   4.344   3.416  12.531 -1.8687  0.8047 -0.2934
 6150TIP3   OH239864   1.558   2.974  17.082 -0.2113 -0.1032 -0.4584
 6150TIP3    H139865   1.465   2.961  17.062 -0.2408  1.3481 -1.4371
 6150TIP3    H239866   1.582   2.899  17.136 -1.5253 -1.4007 -1.5922
 6151TIP3   OH239867   1.950   2.306   5.007  0.7410  0.2805  0.1188
 6151TIP3    H139868   1.865   2.271   5.033  0.5467  1.4754  1.2073
 6151TIP3    H239869   1.999   2.313   5.088  1.5848  0.4015 -0.3847
 6152TIP3   OH239870   6.212   0.322   5.733 -0.4727 -0.0127 -0.0832
 6152TIP3    H139871   6.199   0.366   5.817  0.0863  2.1575 -1.0669
 6152TIP3    H239872   6.222   0.394   5.670 -0.8316 -1.5779 -2.0000
 6153TIP3   OH239873   3.692   5.388   3.261  0.1827  0.3484 -0.6619
 6153TIP3    H139874   3.737   5.472   3.264  3.1084 -1.0934  0.7901
 6153TIP3    H239875   3.708   5.354   3.173  0.2170  0.6908 -0.7870
 6154TIP3   OH239876   5.044   2.528   0.890  0.1297 -0.9138  0.2112
 6154TIP3    H139877   4.969   2.474   0.915 -0.0521 -0.4298  0.7465
 6154TIP3    H239878   5.085   2.551   0.973 -0.6823  1.0225  0.1371
 6155TIP3   OH239879   5.865   5.740  14.522 -0.0373 -0.4378  0.3197
 6155TIP3    H139880   5.890   5.708  14.436 -1.6380  0.1223 -0.3892
 6155TIP3    H239881   5.944   5.730  14.575  0.9089 -1.0146 -1.1350
 6156TIP3   OH239882   6.589   5.262   4.090 -0.1453  0.1562  0.9657
 6156TIP3    H139883   6.680   5.236   4.078  0.3890  1.8507  1.2000
 6156TIP3    H239884   6.591   5.356   4.104 -1.9953  0.3480  0.3455
 6157TIP3   OH239885   4.894   5.181  13.226  0.6742 -0.0693 -0.3209
 6157TIP3    H139886   4.861   5.197  13.138 -0.2063  0.5934  0.1107
 6157TIP3    H239887   4.819   5.145  13.274  0.9450  0.2057  0.3239
 6158TIP3   OH239888   0.712   3.360  13.794  0.0521  0.2038  0.3844
 6158TIP3    H139889   0.652   3.419  13.839  1.6769  2.2693  0.0135
 6158TIP3    H239890   0.798   3.381  13.830  0.7001 -2.1354  0.3787
 6159TIP3   OH239891   0.209   3.385   6.248  0.7371 -0.4791 -0.1531
 6159TIP3    H139892   0.242   3.440   6.318  2.7998 -2.3573  0.4495
 6159TIP3    H239893   0.128   3.429   6.219  0.0635  0.6290  3.0143
 6160TIP3   OH239894   1.456   3.710  14.613 -0.5466 -0.6509 -0.2487
 6160TIP3    H139895   1.551   3.721  14.613 -0.5355 -0.7547 -0.1596
 6160TIP3    H239896   1.429   3.727  14.703 -0.4923 -1.7023 -0.0284
 6161TIP3   OH239897   3.630   6.133  13.409  0.0903  0.3650  0.5887
 6161TIP3    H139898   3.649   6.103  13.320  0.1327  1.0494  0.3647
 6161TIP3    H239899   3.578   6.212  13.397  1.4979  1.4251  1.1318
 6162TIP3   OH239900   5.609   4.909   6.605 -0.2183 -0.1064 -0.0118
 6162TIP3    H139901   5.543   4.957   6.656 -1.3578  0.5205 -1.9742
 6162TIP3    H239902   5.605   4.820   6.640  0.2061  0.6283  2.0560
 6163TIP3   OH239903   0.929   2.964  11.870 -0.0551  0.2445 -0.0994
 6163TIP3    H139904   0.945   2.886  11.816  0.3375 -0.1209  0.5378
 6163TIP3    H239905   0.864   2.936  11.934 -0.6604  0.7350 -0.4832
 6164TIP3   OH239906   0.235   3.816   5.473  0.0020 -0.1107 -0.3990
 6164TIP3    H139907   0.167   3.778   5.417 -2.3479  2.1641  0.6979
 6164TIP3    H239908   0.307   3.835   5.413 -1.2491 -0.4929 -2.1137
 6165TIP3   OH239909   6.166   1.570  16.246  0.1932  0.3001  0.6425
 6165TIP3    H139910   6.199   1.562  16.157  0.9863  1.5002  0.7976
 6165TIP3    H239911   6.244   1.589  16.299 -0.1966 -0.8669  1.6797
 6166TIP3   OH239912   5.694   4.575  14.789 -0.2949  0.3952 -0.4068
 6166TIP3    H139913   5.685   4.621  14.705  0.2677 -0.3492 -0.8881
 6166TIP3    H239914   5.680   4.483  14.767 -2.8798  0.4293  0.7845
 6167TIP3   OH239915   0.561   3.691  16.054 -0.4373 -0.1485  0.1208
 6167TIP3    H139916   0.649   3.657  16.034 -0.7634 -0.5420 -0.6797
 6167TIP3    H239917   0.518   3.620  16.101 -1.2439 -1.0651 -1.8684
 6168TIP3   OH239918   2.620   3.381  13.499  0.5324 -0.3389  0.1428
 6168TIP3    H139919   2.677   3.383  13.576  2.8086  1.4834 -1.4355
 6168TIP3    H239920   2.676   3.346  13.429 -0.5240  0.7609 -1.3161
 6169TIP3   OH239921   0.870   5.260   4.413 -0.4694 -0.3115  0.5981
 6169TIP3    H139922   0.878   5.169   4.442  0.3497  0.3576  2.6572
 6169TIP3    H239923   0.901   5.312   4.488  0.0558  1.6335 -0.8851
 6170TIP3   OH239924   0.919   4.121  12.125 -0.3809 -0.0352  0.3276
 6170TIP3    H139925   0.842   4.177  12.110 -0.9313 -0.1935  2.2888
 6170TIP3    H239926   0.893   4.035  12.092 -0.6484  0.1422  0.0652
 6171TIP3   OH239927   4.139   2.155   5.186 -0.3215  0.3542  0.3910
 6171TIP3    H139928   4.092   2.129   5.108  0.3283 -0.4938  0.2713
 6171TIP3    H239929   4.219   2.102   5.185  0.9526  2.1782  0.2482
 6172TIP3   OH239930   3.965   0.614   1.179  0.5259  0.4344 -0.6011
 6172TIP3    H139931   4.005   0.649   1.259 -2.3877  0.7612  0.8827
 6172TIP3    H239932   4.038   0.582   1.127  2.6192  0.7843  1.9198
 6173TIP3   OH239933   5.649   1.263  16.121 -0.0286  0.5467  0.0921
 6173TIP3    H139934   5.659   1.300  16.033 -0.8122  1.7359  0.4745
 6173TIP3    H239935   5.598   1.328  16.169 -0.1882 -0.3853  1.2459
 6174TIP3   OH239936   4.815   2.804  14.191 -0.0163 -0.0007  0.0792
 6174TIP3    H139937   4.777   2.740  14.131  0.2462 -0.0657 -0.0215
 6174TIP3    H239938   4.832   2.755  14.271 -0.0753  0.0103  0.0983
 6175TIP3   OH239939   3.899   3.991  15.677 -0.8066 -0.5748 -0.8169
 6175TIP3    H139940   3.824   3.971  15.621 -0.2950 -0.4076 -1.5834
 6175TIP3    H239941   3.973   3.996  15.617 -0.6442  2.0960 -0.4914
 6176TIP3   OH239942   6.055   2.006  12.067  0.4236  0.7769  0.0732
 6176TIP3    H139943   6.045   2.100  12.081 -0.0301  0.8754 -0.8223
 6176TIP3    H239944   6.005   1.989  11.987 -0.7726 -0.4920  1.0509
 6177TIP3   OH239945   6.177   6.586  12.985  0.5164  0.4388  0.1739
 6177TIP3    H139946   6.083   6.581  13.003  0.9014 -0.7570  2.2625
 6177TIP3    H239947   6.212   6.635  13.059  1.5711  0.6672 -0.4644
 6178TIP3   OH239948   1.490   0.254   2.901 -0.2602  0.1865 -0.6968
 6178TIP3    H139949   1.463   0.268   2.810 -0.4123  1.4565 -0.4667
 6178TIP3    H239950   1.479   0.160   2.915 -2.4042  0.3019 -1.3088
 6179TIP3   OH239951   2.034   4.022  10.918  0.0009 -0.2837  0.2079
 6179TIP3    H139952   2.062   4.102  10.963 -1.8317 -0.1782  1.2539
 6179TIP3    H239953   2.079   4.025  10.833  0.8718  1.2497  0.6867
 6180TIP3   OH239954   4.200   1.548  13.655  0.3415  0.1392  0.0733
 6180TIP3    H139955   4.288   1.572  13.624 -0.0165 -0.3688 -1.4219
 6180TIP3    H239956   4.213   1.465  13.702  1.0802  1.5222  2.4626
 6181TIP3   OH239957   2.450   3.304  11.327  0.5287  0.1494 -0.7886
 6181TIP3    H139958   2.545   3.315  11.320  0.3666  0.7900 -2.7418
 6181TIP3    H239959   2.437   3.252  11.406  2.3774  1.4298  0.4176
 6182TIP3   OH239960   1.905   6.663   3.002  0.7787  0.4515 -0.5260
 6182TIP3    H139961   1.899   6.720   3.079 -0.4963  0.5480 -0.6781
 6182TIP3    H239962   1.841   6.594   3.019  0.5170  0.4516 -1.4852
 6183TIP3   OH239963   6.190   3.078   0.995 -0.7038  0.1967 -0.5073
 6183TIP3    H139964   6.281   3.107   0.997 -0.6561  0.1853 -1.8329
 6183TIP3    H239965   6.195   2.984   0.981 -0.9136 -0.0937  1.1401
 6184TIP3   OH239966   5.220   4.311  13.100  0.3799 -0.0508  0.0032
 6184TIP3    H139967   5.282   4.372  13.141  0.4661 -0.4053  0.4077
 6184TIP3    H239968   5.134   4.345  13.123  0.4150  0.4532 -0.5734
 6185TIP3   OH239969   0.466   5.869   0.761  0.2307 -0.0479 -0.4512
 6185TIP3    H139970   0.411   5.859   0.838 -1.7323  0.8916 -1.6462
 6185TIP3    H239971   0.415   5.831   0.689  1.7361 -0.3700 -1.4097
 6186TIP3   OH239972   5.608   5.433   2.003 -0.1491  0.1766  0.1577
 6186TIP3    H139973   5.621   5.390   2.088 -0.0883  1.8133  1.0239
 6186TIP3    H239974   5.682   5.405   1.950  2.1938  2.2661  2.0381
 6187TIP3   OH239975   6.103   3.382  15.820 -0.2998 -0.1040 -0.2577
 6187TIP3    H139976   6.130   3.468  15.788  0.4307 -0.1041  0.3225
 6187TIP3    H239977   6.141   3.321  15.756 -0.8669  0.0018 -0.7015
 6188TIP3   OH239978   0.296   6.055  14.553  0.0417 -0.2217  0.4809
 6188TIP3    H139979   0.218   6.066  14.499 -0.3047 -0.1384  0.9895
 6188TIP3    H239980   0.262   6.042  14.642  0.5959 -0.5219  0.6543
 6189TIP3   OH239981   1.352   6.693  13.503  0.4479 -0.2130  0.6635
 6189TIP3    H139982   1.412   6.766  13.491  0.9447 -0.8205 -0.7610
 6189TIP3    H239983   1.409   6.618  13.521  0.0563 -0.5697  0.4458
 6190TIP3   OH239984   6.529   5.363   3.188 -0.1160  0.3049 -0.0682
 6190TIP3    H139985   6.473   5.310   3.245  1.8489  0.1767  1.8856
 6190TIP3    H239986   6.569   5.428   3.246 -0.6886  2.5350 -1.9807
 6191TIP3   OH239987   0.956   5.697  14.588 -0.0981 -0.6646  0.1725
 6191TIP3    H139988   1.012   5.633  14.632  0.9525  0.4516  0.5080
 6191TIP3    H239989   0.875   5.650  14.570  0.1352 -1.6866  1.6524
 6192TIP3   OH239990   3.391   3.889   5.064 -0.3400  0.1206  0.8076
 6192TIP3    H139991   3.454   3.961   5.052 -1.0060  0.8849  1.7325
 6192TIP3    H239992   3.425   3.818   5.010  0.6726  0.9251  0.3546
 6193TIP3   OH239993   2.120   1.378  12.049 -0.3438 -0.4045  0.1484
 6193TIP3    H139994   2.111   1.473  12.045 -0.3830 -0.4519 -2.1703
 6193TIP3    H239995   2.208   1.363  12.085 -1.0006  0.4343  2.2145
 6194TIP3   OH239996   1.127   3.149   5.081  0.1023  0.3348 -0.0375
 6194TIP3    H139997   1.124   3.231   5.130 -1.9392 -0.1984  0.8642
 6194TIP3    H239998   1.069   3.163   5.006  0.1029 -0.1458 -0.1328
 6195TIP3   OH239999   4.832   5.404   5.147  0.1055  0.4391 -0.0399
 6195TIP3    H140000   4.853   5.486   5.190 -0.1924  0.2760  0.4233
 6195TIP3    H240001   4.917   5.366   5.124  0.2441  0.8349 -0.1888
 6196TIP3   OH240002   4.849   4.067  11.764 -0.2520 -0.4529  0.1321
 6196TIP3    H140003   4.919   4.055  11.700  1.4151  2.8719  1.0995
 6196TIP3    H240004   4.883   4.029  11.844 -0.8152 -1.3935 -0.0625
 6197TIP3   OH240005   1.840   1.230  10.695  0.5261 -0.5910 -0.3022
 6197TIP3    H140006   1.865   1.322  10.684 -0.3253 -0.2997  0.1300
 6197TIP3    H240007   1.763   1.219  10.640 -0.4228 -0.5770  0.9787
 6198TIP3   OH240008   6.072   0.595  11.806  0.2676 -0.1083 -0.2537
 6198TIP3    H140009   6.020   0.544  11.744  1.5415 -0.5982 -0.9598
 6198TIP3    H240010   6.057   0.686  11.780  0.3891 -0.2850 -0.9790
 6199TIP3   OH240011   2.475   0.434   5.967  0.1785  0.2590  0.1864
 6199TIP3    H140012   2.399   0.482   6.002  0.8426  0.7608  0.9754
 6199TIP3    H240013   2.512   0.390   6.043  0.2446 -0.6136 -0.3332
 6200TIP3   OH240014   5.162   5.298   5.872  0.6122  0.0756  0.0615
 6200TIP3    H140015   5.105   5.318   5.946  2.9506  0.1540  1.9628
 6200TIP3    H240016   5.185   5.205   5.883  0.5230 -0.0809 -0.9205
 6201TIP3   OH240017   4.692   1.119  15.413 -0.0381 -0.7183 -0.3194
 6201TIP3    H140018   4.768   1.177  15.422  0.3813 -1.3731  0.4711
 6201TIP3    H240019   4.622   1.176  15.380  0.5101  0.1207 -0.0591
 6202TIP3   OH240020   6.505   6.106   3.742 -0.8443 -0.2435  0.4131
 6202TIP3    H140021   6.422   6.090   3.786 -1.0222 -1.0105 -0.1705
 6202TIP3    H240022   6.557   6.027   3.761  0.7056  1.2351  2.8366
 6203TIP3   OH240023   3.448   5.513   2.271 -0.0629 -0.1647  0.1995
 6203TIP3    H140024   3.460   5.425   2.235  0.1956  0.1718 -0.5474
 6203TIP3    H240025   3.493   5.570   2.210  0.1198  0.4547  0.9013
 6204TIP3   OH240026   0.751   0.931  15.070 -0.0004 -0.2432 -0.1930
 6204TIP3    H140027   0.749   0.888  14.985 -0.2600 -1.2444  0.3024
 6204TIP3    H240028   0.660   0.929  15.100  0.4184 -2.1193  1.1540
 6205TIP3   OH240029   6.430   2.727  12.439  0.5825 -0.8155  0.3373
 6205TIP3    H140030   6.523   2.734  12.462  0.0910 -1.3945  2.7669
 6205TIP3    H240031   6.393   2.811  12.462  0.3390 -0.8517  0.0862
 6206TIP3   OH240032   2.406   5.791  13.086  0.4535  0.0809 -0.5082
 6206TIP3    H140033   2.414   5.884  13.106  1.6203 -0.3800  1.4209
 6206TIP3    H240034   2.496   5.759  13.081  0.0759 -0.9005 -1.5041
 6207TIP3   OH240035   2.403   2.079  16.295 -0.4790  0.1830  0.2514
 6207TIP3    H140036   2.354   2.006  16.258  1.7661 -0.7425 -1.0735
 6207TIP3    H240037   2.431   2.048  16.381 -1.9853  0.6462  0.9351
 6208TIP3   OH240038   5.314   6.251  13.011  0.1244  0.1373  0.5658
 6208TIP3    H140039   5.340   6.186  13.077  1.6996 -1.5877 -1.6185
 6208TIP3    H240040   5.232   6.217  12.975  1.4602 -1.3318 -1.2884
 6209TIP3   OH240041   6.300   2.463  17.374  0.3030  0.0229  0.5133
 6209TIP3    H140042   6.213   2.470  17.412 -0.1388 -0.7905 -0.3222
 6209TIP3    H240043   6.357   2.442  17.448 -0.5922 -1.9209  0.7133
 6210TIP3   OH240044   4.080   3.440   2.485  0.2169  0.0517 -0.2093
 6210TIP3    H140045   4.107   3.419   2.396 -1.1833 -0.7248 -0.4848
 6210TIP3    H240046   4.100   3.361   2.536 -0.5117 -0.1266 -0.1925
 6211TIP3   OH240047   0.776   5.174  15.215  0.1006  0.3788  0.2694
 6211TIP3    H140048   0.718   5.250  15.220 -1.2452 -0.6181  0.4276
 6211TIP3    H240049   0.856   5.202  15.259 -0.7155  1.4130  1.1460
 6212TIP3   OH240050   6.293   5.950  12.215 -0.2034  0.4316  0.1629
 6212TIP3    H140051   6.300   5.928  12.308  0.0455  2.8176  0.7779
 6212TIP3    H240052   6.364   5.902  12.174  1.7069  1.7687  1.7454
 6213TIP3   OH240053   5.503   0.089   3.143  0.5254 -0.2025 -0.5518
 6213TIP3    H140054   5.489   0.180   3.117  1.4385  0.3482  0.8091
 6213TIP3    H240055   5.452   0.038   3.079 -0.1387  1.2532 -1.2287
 6214TIP3   OH240056   0.884   3.864   1.159 -0.0686 -0.2266 -0.4102
 6214TIP3    H140057   0.917   3.835   1.074  0.9235  0.9256 -0.4433
 6214TIP3    H240058   0.823   3.935   1.138  1.0493  0.8376 -0.1190
 6215TIP3   OH240059   2.988   0.799   4.337  0.0977  0.3679 -0.0883
 6215TIP3    H140060   2.941   0.716   4.350  1.6164 -0.5586 -0.2961
 6215TIP3    H240061   3.012   0.799   4.245  1.5694  0.2056  0.2655
 6216TIP3   OH240062   4.862   2.030   3.497 -0.4729  0.2210  0.3521
 6216TIP3    H140063   4.842   1.952   3.550  1.1284 -0.9512 -0.6629
 6216TIP3    H240064   4.939   2.067   3.539 -1.0852  1.1504  0.6808
 6217TIP3   OH240065   6.655   1.724   1.449 -0.0271 -0.1772 -0.1233
 6217TIP3    H140066   6.694   1.786   1.511  2.0236 -0.8103 -0.6961
 6217TIP3    H240067   6.633   1.648   1.503 -0.8206  0.3003  0.2570
 6218TIP3   OH240068   1.191   1.845   3.569  0.0320 -0.2616 -0.3363
 6218TIP3    H140069   1.130   1.916   3.548 -0.3345 -0.0401  1.3465
 6218TIP3    H240070   1.277   1.887   3.569 -0.0071 -0.1754 -0.9331
 6219TIP3   OH240071   2.693   0.813  15.757 -0.3295  0.0934  0.1036
 6219TIP3    H140072   2.728   0.863  15.831 -2.9392  0.4329  1.2258
 6219TIP3    H240073   2.655   0.879  15.700 -1.8615 -0.4028  0.5030
 6220TIP3   OH240074   3.136   1.050   2.327 -0.0091 -0.4411  0.2746
 6220TIP3    H140075   3.094   1.124   2.371 -0.9212 -0.9696  0.2964
 6220TIP3    H240076   3.140   0.981   2.394  2.3636  0.0892  0.7969
 6221TIP3   OH240077   4.790   4.484  13.988  0.0410  0.2067  0.2032
 6221TIP3    H140078   4.772   4.498  14.081  0.1888 -1.0394  0.4313
 6221TIP3    H240079   4.879   4.449  13.986 -0.4787 -1.1675 -0.2667
 6222TIP3   OH240080   6.706   0.448   0.677  0.2703  0.2562  0.5652
 6222TIP3    H140081   6.682   0.382   0.742  0.2957  0.5266  0.8473
 6222TIP3    H240082   6.791   0.418   0.643 -0.4524 -0.7278 -0.4663
 6223TIP3   OH240083   1.451   1.715  17.228  0.0124 -0.0783 -0.6492
 6223TIP3    H140084   1.373   1.761  17.259  0.0013 -0.5348  0.0313
 6223TIP3    H240085   1.508   1.784  17.195  0.0988  0.4590  0.5647
 6224TIP3   OH240086   6.679   4.270   5.751 -0.4533  0.0812 -0.0097
 6224TIP3    H140087   6.637   4.354   5.733  0.0364  0.0261 -1.5831
 6224TIP3    H240088   6.634   4.208   5.694 -0.1288 -0.5280  0.3836
 6225TIP3   OH240089   1.476   0.753  16.970  0.0044  0.6024 -0.2557
 6225TIP3    H140090   1.420   0.691  17.016  1.5010 -0.2943  0.4394
 6225TIP3    H240091   1.520   0.802  17.040 -0.8310  2.1987 -0.7868
 6226TIP3   OH240092   3.294   2.172  10.917 -0.0167 -0.5322  0.6078
 6226TIP3    H140093   3.338   2.199  10.998  1.3813 -1.0411  0.0546
 6226TIP3    H240094   3.238   2.099  10.943 -1.9497  1.2326  1.6583
 6227TIP3   OH240095   0.874   4.177  12.937 -0.1605 -0.6799 -0.3637
 6227TIP3    H140096   0.852   4.269  12.927  1.2930 -0.2131  0.3084
 6227TIP3    H240097   0.968   4.173  12.917  0.5902 -1.3776  2.6644
 6228TIP3   OH240098   2.798   2.490  14.438  0.1328 -0.0785  0.5305
 6228TIP3    H140099   2.869   2.468  14.499 -1.0788  2.1488  2.9702
 6228TIP3    H240100   2.769   2.406  14.403  1.4945 -1.4048  2.3951
 6229TIP3   OH240101   6.095   5.253   1.334  0.2521  0.0683  0.1948
 6229TIP3    H140102   6.041   5.177   1.352  0.3948  0.0427  0.5245
 6229TIP3    H240103   6.183   5.228   1.363  0.7227 -0.3582 -1.4996
 6230TIP3   OH240104   1.618   4.673  17.182  0.2756  0.1460  0.5667
 6230TIP3    H140105   1.697   4.635  17.220  0.9727  0.1588 -0.8317
 6230TIP3    H240106   1.607   4.629  17.098 -2.0056 -0.8566  1.3091
 6231TIP3   OH240107   2.254   3.516   1.898  0.1620  0.5347 -0.0896
 6231TIP3    H140108   2.234   3.492   1.988 -1.7856  1.0698 -0.3477
 6231TIP3    H240109   2.221   3.605   1.888  0.0482  0.3655 -1.4227
 6232TIP3   OH240110   0.051   4.846  13.599  1.3013 -0.0990  0.1645
 6232TIP3    H140111   0.110   4.816  13.668  1.4481  0.3102  0.2226
 6232TIP3    H240112   0.075   4.794  13.523  0.1523 -1.5968  0.7801
 6233TIP3   OH240113   1.446   4.701  11.245  0.6876 -0.1550 -0.1289
 6233TIP3    H140114   1.451   4.790  11.211  0.9257 -0.0382  0.2130
 6233TIP3    H240115   1.455   4.645  11.168 -0.4350  0.1158 -0.4829
 6234TIP3   OH240116   0.711   6.294  12.572  0.0719 -0.3265 -0.3290
 6234TIP3    H140117   0.694   6.362  12.507  2.1629  2.1228  1.4661
 6234TIP3    H240118   0.806   6.287  12.576 -0.0547 -2.1312  0.7730
 6235TIP3   OH240119   2.491   5.542  14.129  0.5496  0.5968  0.1733
 6235TIP3    H140120   2.403   5.565  14.157  0.8961  1.1167  0.8601
 6235TIP3    H240121   2.539   5.528  14.211  0.1661 -3.5373 -0.0874
 6236TIP3   OH240122   3.718   2.170   3.563 -0.3474 -0.5752 -0.2869
 6236TIP3    H140123   3.625   2.150   3.561 -0.5367 -0.5272  2.9201
 6236TIP3    H240124   3.761   2.084   3.557 -0.4315 -0.5242 -3.0592
 6237TIP3   OH240125   6.093   3.013   4.755 -0.1026 -0.7513 -0.0476
 6237TIP3    H140126   6.001   3.035   4.774 -0.0218 -0.4735  0.0164
 6237TIP3    H240127   6.144   3.067   4.815  0.1037 -0.9277 -0.0645
 6238TIP3   OH240128   0.891   3.122  13.664 -0.1125  0.2824  0.5418
 6238TIP3    H140129   0.819   3.164  13.711 -0.6015 -1.1300  1.1052
 6238TIP3    H240130   0.912   3.045  13.717  1.0292  0.0445 -0.2375
 6239TIP3   OH240131   0.816   5.028   1.661 -0.0982 -0.3167 -0.0484
 6239TIP3    H140132   0.895   4.984   1.692 -0.3519  0.1698  1.3276
 6239TIP3    H240133   0.790   4.978   1.584  1.2856 -0.7590 -0.2618
 6240TIP3   OH240134   6.519   1.531   4.085 -0.3965 -0.1161  0.3529
 6240TIP3    H140135   6.442   1.506   4.035  0.5715 -0.9312 -0.7699
 6240TIP3    H240136   6.483   1.569   4.166 -1.9552 -1.6036  0.4212
 6241TIP3   OH240137   5.518   1.820  16.399  0.1230  0.9358  0.0337
 6241TIP3    H140138   5.479   1.740  16.362  0.2719  1.0378 -0.3482
 6241TIP3    H240139   5.469   1.891  16.358 -1.2592  1.0273  1.7547
 6242TIP3   OH240140   2.532   2.343   4.177  0.1313 -0.1814  0.1731
 6242TIP3    H140141   2.602   2.346   4.112  0.6373 -2.4369  0.5328
 6242TIP3    H240142   2.452   2.364   4.127  0.6869 -0.4652 -0.8659
 6243TIP3   OH240143   0.434   3.480   5.242  0.2672 -0.2640 -0.4390
 6243TIP3    H140144   0.352   3.440   5.271  1.2209 -2.7420 -0.9540
 6243TIP3    H240145   0.475   3.511   5.323 -1.2955  1.4079 -0.2089
 6244TIP3   OH240146   4.790   5.460  12.185 -0.3217  0.2351  0.8280
 6244TIP3    H140147   4.826   5.544  12.154 -1.3545  0.1085 -0.8487
 6244TIP3    H240148   4.860   5.397  12.167 -0.2198  0.4629  0.3913
 6245TIP3   OH240149   4.846   4.632   1.444 -0.0804 -0.1033  0.1196
 6245TIP3    H140150   4.901   4.553   1.439  0.8587  0.6082 -1.3566
 6245TIP3    H240151   4.780   4.618   1.376 -0.6469 -0.1466  0.6764
 6246TIP3   OH240152   1.272   5.704  11.965  0.1299 -0.2638  0.2521
 6246TIP3    H140153   1.341   5.638  11.960 -0.9249 -1.3132 -1.3638
 6246TIP3    H240154   1.319   5.787  11.968  1.4671 -1.0114  0.7800
 6247TIP3   OH240155   1.289   0.211   0.425  0.2565 -0.1832  0.2520
 6247TIP3    H140156   1.236   0.278   0.470 -1.7335  0.0121 -2.1835
 6247TIP3    H240157   1.342   0.261   0.363  0.2182 -0.7144 -0.2094
 6248TIP3   OH240158   3.950   6.461  12.561  0.2242  0.1521  0.0262
 6248TIP3    H140159   3.890   6.389  12.540  0.1226  0.4445 -0.7251
 6248TIP3    H240160   4.024   6.448  12.502  0.4401  0.3729  0.2443
 6249TIP3   OH240161   2.960   0.788   0.197 -0.5350 -0.6145  0.4092
 6249TIP3    H140162   2.959   0.860   0.133 -0.2887 -0.4946  0.5348
 6249TIP3    H240163   3.044   0.744   0.182  0.3447  0.4849  1.8068
 6250TIP3   OH240164   2.875   1.785   4.898  0.1459 -0.2402  0.4675
 6250TIP3    H140165   2.949   1.779   4.838  0.9721  0.3157  1.3940
 6250TIP3    H240166   2.803   1.820   4.845  0.5050 -0.8661 -0.4646
 6251TIP3   OH240167   1.699   3.122   3.646 -0.1280  0.1313  0.4625
 6251TIP3    H140168   1.734   3.051   3.592 -1.9848 -0.1486 -0.4247
 6251TIP3    H240169   1.651   3.178   3.584  2.1449  2.8255  0.9161
 6252TIP3   OH240170   2.826   5.740   1.596 -0.2704 -0.1691  0.6634
 6252TIP3    H140171   2.756   5.709   1.653  0.8806 -3.0750  0.6302
 6252TIP3    H240172   2.903   5.690   1.622  1.6011  2.1949  0.0160
 6253TIP3   OH240173   5.037   4.868   1.735  0.8821 -0.6611  0.5050
 6253TIP3    H140174   4.947   4.876   1.768  1.1907 -0.0994  1.2554
 6253TIP3    H240175   5.091   4.870   1.814  1.6046 -0.0235  0.0038
 6254TIP3   OH240176   6.038   5.822  15.779  0.6108 -0.0839 -0.1344
 6254TIP3    H140177   6.121   5.831  15.732  0.2319  1.3405 -0.5830
 6254TIP3    H240178   5.996   5.746  15.738  1.7601 -0.9409  0.2302
 6255TIP3   OH240179   0.525   6.451   1.048  0.1734 -0.0099  0.0280
 6255TIP3    H140180   0.595   6.387   1.037  0.6092  0.2153  1.3074
 6255TIP3    H240181   0.532   6.507   0.971  1.6520  0.2241  0.2953
 6256TIP3   OH240182   1.239   3.144   0.895  0.0779 -0.0749  0.8028
 6256TIP3    H140183   1.302   3.083   0.858  0.7503  0.5951  0.8201
 6256TIP3    H240184   1.292   3.214   0.934 -0.6440 -0.2340  2.1293
 6257TIP3   OH240185   6.210   3.198  13.242  0.2456 -0.5985 -0.3534
 6257TIP3    H140186   6.180   3.157  13.323  0.6876 -1.3256 -0.5443
 6257TIP3    H240187   6.214   3.291  13.261  0.2611 -0.7571  0.4308
 6258TIP3   OH240188   4.194   4.995   3.777 -0.2167  0.3462 -0.2529
 6258TIP3    H140189   4.177   5.036   3.692  0.9625 -1.2213 -1.3051
 6258TIP3    H240190   4.121   5.023   3.832 -0.7232  1.8637 -1.5914
 6259TIP3   OH240191   5.331   0.453   1.971  0.1490 -0.1255 -0.0836
 6259TIP3    H140192   5.285   0.522   2.020 -0.7110 -0.3194 -0.6096
 6259TIP3    H240193   5.415   0.493   1.948  0.5269  0.0225  1.4141
 6260TIP3   OH240194   6.579   0.712  14.305 -0.1560  0.5469 -0.7441
 6260TIP3    H140195   6.621   0.784  14.352 -0.0108 -0.3609  0.5628
 6260TIP3    H240196   6.651   0.666  14.264 -0.0343  0.0170  0.0444
 6261TIP3   OH240197   1.481   0.947   4.147 -0.2778 -0.4768 -0.6432
 6261TIP3    H140198   1.542   0.932   4.219 -2.0672 -1.1992  0.7984
 6261TIP3    H240199   1.522   1.017   4.096  1.9921 -1.2780 -0.0787
 6262TIP3   OH240200   5.764   5.224  14.900  0.1947 -0.1727  0.6683
 6262TIP3    H140201   5.805   5.199  14.983 -1.5128  0.1366  1.6714
 6262TIP3    H240202   5.802   5.309  14.879 -0.3294  0.3918  1.8873
 6263TIP3   OH240203   6.173   2.337   3.816  0.7795  0.4899  0.2171
 6263TIP3    H140204   6.095   2.346   3.871  0.4485 -1.8915  0.2327
 6263TIP3    H240205   6.157   2.396   3.742 -0.3221  1.1611  0.9515
 6264TIP3   OH240206   2.775   6.273  14.614  0.1566 -0.2326 -0.0047
 6264TIP3    H140207   2.697   6.318  14.582  0.4902  1.5528  1.5290
 6264TIP3    H240208   2.786   6.199  14.554 -0.2424  1.8712 -2.8668
 6265TIP3   OH240209   4.166   6.357   1.753  0.1023  0.0282 -0.2184
 6265TIP3    H140210   4.236   6.363   1.688 -0.4013 -2.6442 -1.1375
 6265TIP3    H240211   4.184   6.275   1.800 -2.0323 -0.4107 -0.0594
 6266TIP3   OH240212   6.581   2.797   3.726 -0.3004 -0.0666  0.3426
 6266TIP3    H140213   6.624   2.739   3.663 -0.0660  0.0155  0.4265
 6266TIP3    H240214   6.528   2.738   3.780 -2.8445  0.1136 -1.7506
 6267TIP3   OH240215   1.774   6.044   2.086  0.1345 -0.3414 -0.5605
 6267TIP3    H140216   1.746   5.955   2.109 -0.0387 -0.5859 -1.6631
 6267TIP3    H240217   1.838   6.031   2.015 -1.5320  0.4891 -2.2896
 6268TIP3   OH240218   0.017   0.682  12.434 -0.3576  0.2829  0.0085
 6268TIP3    H140219   0.005   0.601  12.485 -0.9199  0.9868  1.0210
 6268TIP3    H240220   0.110   0.681  12.410 -0.5645 -1.1465 -0.8514
 6269TIP3   OH240221   5.669   4.467  14.410  0.4837  0.4640 -1.0177
 6269TIP3    H140222   5.578   4.496  14.412  0.4430  0.2969 -0.0429
 6269TIP3    H240223   5.716   4.532  14.462  0.6964 -0.1585 -0.4122
 6270TIP3   OH240224   0.197   2.348  13.322  0.1054  0.0126  0.0787
 6270TIP3    H140225   0.177   2.265  13.278 -0.0410 -0.0492  0.2624
 6270TIP3    H240226   0.292   2.357  13.315 -0.1587  1.7545 -3.4729
 6271TIP3   OH240227   3.779   1.798   4.126  0.0685 -0.0080  0.6924
 6271TIP3    H140228   3.730   1.880   4.125  0.1670  0.0575  1.0219
 6271TIP3    H240229   3.870   1.825   4.138  0.4088 -0.0261 -1.4089
 6272TIP3   OH240230   6.284   4.839   3.920 -0.9782  0.3167 -0.4968
 6272TIP3    H140231   6.308   4.813   3.831 -0.5925  0.4128 -0.4245
 6272TIP3    H240232   6.333   4.920   3.935 -0.1143 -0.3267  0.2329
 6273TIP3   OH240233   0.091   2.398  16.258 -0.2670  0.0904 -0.5069
 6273TIP3    H140234   0.002   2.395  16.223 -0.9146  1.8803  0.8173
 6273TIP3    H240235   0.083   2.367  16.348  0.5593 -0.2343 -0.5350
 6274TIP3   OH240236   4.245   3.900  15.862 -0.2950 -0.1888 -0.4240
 6274TIP3    H140237   4.200   3.817  15.850 -1.8012  0.2442  1.6616
 6274TIP3    H240238   4.279   3.897  15.952 -3.3326  2.6191  1.0800
 6275TIP3   OH240239   2.648   4.699   2.145  0.2432 -0.7826 -0.2946
 6275TIP3    H140240   2.713   4.766   2.127  0.3350 -0.8658 -0.2689
 6275TIP3    H240241   2.698   4.621   2.169  0.1537  0.0865  3.2836
 6276TIP3   OH240242   1.522   3.519   4.178 -0.5055  0.0403  0.4323
 6276TIP3    H140243   1.428   3.504   4.165 -1.0460  0.4194  3.1888
 6276TIP3    H240244   1.541   3.479   4.263  1.6584  0.6985  0.3266
 6277TIP3   OH240245   1.404   4.640  15.179 -0.2199 -0.5946 -0.3131
 6277TIP3    H140246   1.464   4.588  15.233  0.8461 -1.4804 -2.2567
 6277TIP3    H240247   1.383   4.583  15.105 -2.6573  0.0911 -0.2466
 6278TIP3   OH240248   4.188   6.427  12.403  0.3454 -0.3657 -0.0047
 6278TIP3    H140249   4.203   6.438  12.309  5.0718 -0.7489  0.4424
 6278TIP3    H240250   4.230   6.344  12.424 -0.2468 -0.0971  2.5269
 6279TIP3   OH240251   5.271   5.262   1.693 -0.3594 -0.3590  0.1924
 6279TIP3    H140252   5.321   5.187   1.660 -0.5619 -0.3794 -0.0686
 6279TIP3    H240253   5.305   5.277   1.782  0.7037  0.1596 -0.2909
 6280TIP3   OH240254   0.824   1.055  14.710  0.2164 -1.0330  0.6765
 6280TIP3    H140255   0.821   1.042  14.615  1.6553 -0.9067  0.5881
 6280TIP3    H240256   0.756   1.120  14.728  1.3079  0.5352 -0.5834
 6281TIP3   OH240257   2.809   4.868  15.519  0.2272  0.0745 -0.3644
 6281TIP3    H140258   2.892   4.840  15.558 -0.1398  0.3288  0.6507
 6281TIP3    H240259   2.832   4.946  15.468  0.4850  0.6692  0.6283
 6282TIP3   OH240260   1.890   5.008  17.106  0.3713  0.1055  0.1362
 6282TIP3    H140261   1.924   4.990  17.018  0.1651 -1.4836  0.3655
 6282TIP3    H240262   1.930   5.092  17.130  1.2669  0.0433 -1.0490
 6283TIP3   OH240263   6.391   0.807  13.173  0.2515 -1.0893  0.1741
 6283TIP3    H140264   6.482   0.805  13.203  0.1338  0.7051  0.7365
 6283TIP3    H240265   6.371   0.900  13.163 -0.8754 -1.5062 -2.0033
 6284TIP3   OH240266   0.627   1.135   5.496  0.3373  0.0479 -0.1708
 6284TIP3    H140267   0.665   1.167   5.414 -1.8816  1.4637 -0.7288
 6284TIP3    H240268   0.591   1.049   5.473 -2.4381  1.4151 -1.4977
 6285TIP3   OH240269   0.100   3.269   5.106 -0.5157 -0.4970 -0.4517
 6285TIP3    H140270   0.092   3.173   5.112 -0.3591 -0.5560 -1.0659
 6285TIP3    H240271   0.148   3.294   5.184  3.9448 -1.4902 -2.5393
 6286TIP3   OH240272   5.984   1.265   4.879 -0.3908  0.7370  0.6332
 6286TIP3    H140273   5.978   1.333   4.946 -2.0413 -0.3123  1.6241
 6286TIP3    H240274   6.012   1.187   4.927 -0.2441  0.2825 -0.1723
 6287TIP3   OH240275   4.169   2.199   0.342 -0.2342  0.5189 -0.0269
 6287TIP3    H140276   4.096   2.180   0.283  0.9030  1.2445 -1.7438
 6287TIP3    H240277   4.184   2.293   0.333  0.5082  0.4959  0.7825
 6288TIP3   OH240278   5.411   3.035   4.111 -0.6885  0.1245  0.2205
 6288TIP3    H140279   5.462   3.101   4.159  1.0496  0.4675 -1.9326
 6288TIP3    H240280   5.469   3.008   4.040 -3.1305 -0.3107 -1.7312
 6289TIP3   OH240281   3.765   2.409   5.209 -0.0670  0.0635  0.1178
 6289TIP3    H140282   3.784   2.315   5.215 -1.6807 -0.4381 -1.5970
 6289TIP3    H240283   3.708   2.427   5.284 -0.2905 -0.4891  0.0847
 6290TIP3   OH240284   1.421   6.706  14.992 -0.4561 -0.3372 -0.2199
 6290TIP3    H140285   1.513   6.681  14.983  0.2644  1.6909  1.0123
 6290TIP3    H240286   1.381   6.631  15.037  0.8871 -0.7058  0.4169
 6291TIP3   OH240287   4.854   2.780   3.582  0.1851 -0.3179  0.6282
 6291TIP3    H140288   4.840   2.769   3.676 -0.8387 -0.8217  0.4304
 6291TIP3    H240289   4.867   2.691   3.549 -1.2206 -0.3227  0.0399
 6292TIP3   OH240290   2.419   0.345   2.415  0.2733 -0.0011  0.0426
 6292TIP3    H140291   2.397   0.275   2.476  0.7304  0.2540  0.5086
 6292TIP3    H240292   2.349   0.343   2.350  0.8165 -1.5820 -0.5547
 6293TIP3   OH240293   3.519   0.034   1.395  0.0744  0.5014  0.2835
 6293TIP3    H140294   3.613   0.015   1.397 -0.0322 -0.2033 -0.7248
 6293TIP3    H240295   3.500   0.072   1.481  1.0279 -0.5544  0.9807
 6294TIP3   OH240296   2.379   3.888   1.898 -0.3206 -0.7832  0.3837
 6294TIP3    H140297   2.306   3.948   1.912  0.2715 -0.7017  3.9213
 6294TIP3    H240298   2.410   3.866   1.986  3.1581 -1.7779 -0.9264
 6295TIP3   OH240299   6.441   2.997  11.265 -0.2977  0.2091 -0.1650
 6295TIP3    H140300   6.351   2.997  11.232  0.2653 -0.1790 -1.7591
 6295TIP3    H240301   6.432   3.021  11.357 -1.7081  4.1037 -1.1415
 6296TIP3   OH240302   4.764   2.071   4.232 -0.4019  0.7256 -0.2284
 6296TIP3    H140303   4.750   1.980   4.209  0.4158  0.6488 -0.4589
 6296TIP3    H240304   4.837   2.099   4.177 -0.7337  1.5620 -0.2649
 6297TIP3   OH240305   2.369   0.264  14.862  0.2470  0.0934  0.1346
 6297TIP3    H140306   2.433   0.317  14.911 -0.1790  0.7149  0.0369
 6297TIP3    H240307   2.284   0.303  14.884  0.0152  0.1308 -0.7842
 6298TIP3   OH240308   6.315   2.677  11.235  0.8252  0.6763 -0.3757
 6298TIP3    H140309   6.284   2.617  11.168 -1.7871 -0.1272  1.3968
 6298TIP3    H240310   6.408   2.657  11.243  0.1559 -3.0410 -0.0844
 6299TIP3   OH240311   3.264   4.324   1.601 -0.3481  0.4178  0.4491
 6299TIP3    H140312   3.204   4.395   1.626 -1.6477 -0.9313  1.3938
 6299TIP3    H240313   3.225   4.246   1.642  0.8434 -0.8877 -0.8391
 6300TIP3   OH240314   4.971   1.213  12.248  0.3785  0.2136 -0.2934
 6300TIP3    H140315   5.044   1.172  12.201  0.6636 -0.2751  0.5496
 6300TIP3    H240316   4.970   1.303  12.217  1.7941  0.4224  0.1723
 6301TIP3   OH240317   3.391   6.037   2.782  0.3782  1.0210  0.1074
 6301TIP3    H140318   3.360   5.962   2.832 -3.0641  0.8085 -2.0781
 6301TIP3    H240319   3.320   6.101   2.787  1.7975  2.7687 -0.9080
 6302TIP3   OH240320   3.630   5.420  12.239 -0.2385 -0.1794  0.4227
 6302TIP3    H140321   3.602   5.486  12.176  0.0427 -0.2595  0.2120
 6302TIP3    H240322   3.726   5.426  12.239 -0.2702  0.4260  1.5001
 6303TIP3   OH240323   5.503   0.168   2.037 -0.1463  0.3861  0.3285
 6303TIP3    H140324   5.441   0.149   1.966  0.2193  1.1243 -0.2099
 6303TIP3    H240325   5.520   0.084   2.078  0.3516 -0.2282 -1.0683
 6304TIP3   OH240326   4.759   4.680   3.424 -0.7249 -0.3726 -0.1788
 6304TIP3    H140327   4.832   4.711   3.371  0.2997  0.1062  1.4209
 6304TIP3    H240328   4.712   4.618   3.368  0.5121 -0.1839 -1.4729
 6305TIP3   OH240329   3.333   0.799  14.573  0.5509 -0.4814 -0.0029
 6305TIP3    H140330   3.376   0.716  14.594 -0.4850 -1.1319 -0.3557
 6305TIP3    H240331   3.390   0.841  14.509  2.9841  0.8139  2.7524
 6306TIP3   OH240332   6.748   4.920  15.491  0.5011  0.4122  0.7387
 6306TIP3    H140333   6.771   4.832  15.462  1.0174  0.5653  0.6634
 6306TIP3    H240334   6.776   4.976  15.418  0.2040  0.6389  0.7998
 6307TIP3   OH240335   5.960   6.383  16.454  0.3700  0.2480 -0.7888
 6307TIP3    H140336   5.877   6.352  16.419 -0.4679  0.6641  0.7825
 6307TIP3    H240337   5.977   6.327  16.530 -0.7636  2.9803  1.6225
 6308TIP3   OH240338   2.763   0.750   1.018  0.0423  0.5567  0.1956
 6308TIP3    H140339   2.779   0.820   1.082  0.2298  0.8426 -0.1615
 6308TIP3    H240340   2.780   0.790   0.933 -2.8157  0.9945 -0.2871
 6309TIP3   OH240341   3.500   2.543   3.858 -0.6366 -0.0935 -0.2753
 6309TIP3    H140342   3.420   2.528   3.808 -0.3731 -0.3514 -0.6174
 6309TIP3    H240343   3.477   2.616   3.917 -1.3333 -0.6115  0.1102
 6310TIP3   OH240344   5.555   1.110   1.160  0.1922  0.0996  0.3454
 6310TIP3    H140345   5.514   1.036   1.117 -0.2325  1.6091 -1.9973
 6310TIP3    H240346   5.499   1.128   1.236 -0.9113 -0.6378 -0.2722
 6311TIP3   OH240347   3.770   2.104   5.153  0.0849 -0.0766  0.3008
 6311TIP3    H140348   3.699   2.052   5.115  1.5598 -3.2106  1.4838
 6311TIP3    H240349   3.850   2.061   5.123  1.3815  0.8525  2.2398
 6312TIP3   OH240350   0.425   6.325   1.804  0.2043 -0.3326 -0.8078
 6312TIP3    H140351   0.492   6.391   1.823  1.1380 -0.9103 -1.9708
 6312TIP3    H240352   0.473   6.255   1.761 -0.7346 -1.8787  0.5726
 6313TIP3   OH240353   6.045   3.304   3.110 -0.3702  0.0937  0.2194
 6313TIP3    H140354   6.017   3.393   3.130 -2.5020 -0.6427  0.7571
 6313TIP3    H240355   6.092   3.275   3.188 -2.0280 -0.1423  1.1752
 6314TIP3   OH240356   4.020   1.240  16.796  0.0662 -0.9150  0.1762
 6314TIP3    H140357   4.002   1.248  16.702 -2.4629 -0.9183  0.6092
 6314TIP3    H240358   4.029   1.331  16.826  0.5669 -0.9044  0.0105
 6315TIP3   OH240359   3.917   1.597   1.085 -0.0475 -0.0354 -0.2447
 6315TIP3    H140360   3.918   1.511   1.127  0.6734 -0.8324 -1.7808
 6315TIP3    H240361   3.844   1.593   1.024  1.0361 -0.2503 -1.5896
 6316TIP3   OH240362   0.875   6.691  11.641  0.0623  0.0684  0.3751
 6316TIP3    H140363   0.890   6.656  11.553 -0.9051 -1.1641  0.6692
 6316TIP3    H240364   0.839   6.779  11.626  0.4075  0.0810 -0.4389
 6317TIP3   OH240365   1.566   1.842   2.909 -0.7976 -0.7943 -0.3794
 6317TIP3    H140366   1.578   1.852   3.004 -0.6743  0.7597 -0.5286
 6317TIP3    H240367   1.581   1.930   2.874 -2.9127 -0.8477 -1.6181
 6318TIP3   OH240368   0.291   0.620  13.296  0.6753  0.0952  0.0097
 6318TIP3    H140369   0.321   0.647  13.209 -2.6361 -1.0287 -1.6486
 6318TIP3    H240370   0.295   0.525  13.294  1.4619  0.0698  1.5123
 6319TIP3   OH240371   3.176   3.077  13.557 -0.8137  0.1337  0.5421
 6319TIP3    H140372   3.158   2.984  13.548 -0.9213  0.0754  1.3280
 6319TIP3    H240373   3.176   3.110  13.467 -0.5100 -0.6684  0.2420
 6320TIP3   OH240374   5.640   0.199  11.667 -0.2938  0.3411 -0.1919
 6320TIP3    H140375   5.672   0.124  11.616 -1.6424  0.8800 -1.9356
 6320TIP3    H240376   5.715   0.224  11.721  0.9033 -0.8941 -1.1886
 6321TIP3   OH240377   6.307   1.019  15.162 -0.0833  0.1026 -0.1386
 6321TIP3    H140378   6.327   0.930  15.133  4.2981  0.2743  1.6276
 6321TIP3    H240379   6.316   1.073  15.084  0.2591 -0.6434 -0.6226
 6322TIP3   OH240380   4.205   4.990  14.912  0.8290 -0.2423  0.5349
 6322TIP3    H140381   4.150   4.912  14.923  0.2975 -0.2279 -1.5935
 6322TIP3    H240382   4.295   4.956  14.912  0.6858 -0.6407  1.0635
 6323TIP3   OH240383   5.267   4.402  15.528  0.1108 -0.0602 -0.1517
 6323TIP3    H140384   5.235   4.470  15.587 -0.2821 -0.1029 -0.3135
 6323TIP3    H240385   5.305   4.450  15.455 -1.1134 -0.0120 -0.7719
 6324TIP3   OH240386   0.621   6.196   4.381 -0.0069 -0.0250  0.4257
 6324TIP3    H140387   0.696   6.138   4.370  0.7716  1.3209 -2.1587
 6324TIP3    H240388   0.546   6.137   4.389  0.7455 -1.4640 -2.0725
 6325TIP3   OH240389   4.814   4.823   3.881  0.4906 -0.1020 -0.7012
 6325TIP3    H140390   4.728   4.841   3.842 -0.1317 -1.6408 -0.1547
 6325TIP3    H240391   4.877   4.853   3.816 -0.4124  2.0643 -0.6599
 6326TIP3   OH240392   4.168   0.508  14.925  0.2949  0.5055  0.2213
 6326TIP3    H140393   4.083   0.549  14.908 -0.2763 -0.2241  1.2716
 6326TIP3    H240394   4.204   0.557  14.999 -0.2425 -0.6237  1.2640
 6327TIP3   OH240395   5.054   4.777  12.796 -0.0692 -0.3983 -0.3696
 6327TIP3    H140396   5.063   4.729  12.714  1.4464 -1.4371  0.3536
 6327TIP3    H240397   5.063   4.869  12.771 -1.4052 -0.5741 -1.5745
 6328TIP3   OH240398   2.103   6.015   5.449 -0.4020  0.0237 -0.3360
 6328TIP3    H140399   2.040   6.069   5.497  1.3737  1.0324  0.9648
 6328TIP3    H240400   2.188   6.058   5.464  1.0610 -2.9156  0.4837
 6329TIP3   OH240401   1.793   3.907  16.648  0.1263  0.0108 -0.6264
 6329TIP3    H140402   1.721   3.858  16.689  1.0639 -0.7204  0.2024
 6329TIP3    H240403   1.767   3.914  16.556 -1.7309  1.1463 -0.0753
 6330TIP3   OH240404   3.555   3.100   3.361 -0.0383 -0.4707 -0.4048
 6330TIP3    H140405   3.600   3.165   3.414  0.1034 -0.7815 -0.1353
 6330TIP3    H240406   3.617   3.077   3.292 -0.8991  1.2953 -1.8585
 6331TIP3   OH240407   4.128   5.202  12.185 -0.5549 -0.4136 -0.2616
 6331TIP3    H140408   4.195   5.145  12.146  0.2682  1.1536 -1.2460
 6331TIP3    H240409   4.170   5.239  12.262 -0.7540 -0.4017 -0.1575
 6332TIP3   OH240410   4.169   5.245   2.388 -0.1458  0.9319  0.0862
 6332TIP3    H140411   4.211   5.173   2.341 -1.2987 -0.3586  0.9430
 6332TIP3    H240412   4.178   5.321   2.330  0.0299 -0.1822 -1.3894
 6333TIP3   OH240413   2.305   3.484   3.398 -0.3066 -0.3057  0.2160
 6333TIP3    H140414   2.342   3.566   3.365  0.3476 -0.2526  1.0347
 6333TIP3    H240415   2.353   3.416   3.352  1.2092 -0.2429  1.6030
 6334TIP3   OH240416   1.183   6.556  11.055  0.1578  0.2111  0.2855
 6334TIP3    H140417   1.198   6.605  10.974 -0.9593  1.3969  0.7630
 6334TIP3    H240418   1.194   6.620  11.125 -0.6781 -0.3512  0.9599
 6335TIP3   OH240419   2.832   6.312   3.094  0.4825  0.0569 -0.1314
 6335TIP3    H140420   2.791   6.378   3.039  0.1970  0.7568  0.8955
 6335TIP3    H240421   2.863   6.360   3.171  0.8166 -0.8994  0.3578
 6336TIP3   OH240422   4.795   6.345   1.989  0.4741 -0.1675 -0.4612
 6336TIP3    H140423   4.882   6.379   2.006  0.2817  0.4468 -0.6935
 6336TIP3    H240424   4.740   6.423   1.978  0.2452 -0.5261 -2.1189
 6337TIP3   OH240425   5.738   2.957   4.275  0.4221  0.3649  0.6167
 6337TIP3    H140426   5.665   3.017   4.293  1.0098  1.1702  0.3639
 6337TIP3    H240427   5.785   2.949   4.358  0.7799  0.8533  0.4619
 6338TIP3   OH240428   0.450   4.334   4.429  0.0712  0.0416 -0.1358
 6338TIP3    H140429   0.544   4.336   4.447  0.1250  1.6605 -0.4503
 6338TIP3    H240430   0.433   4.245   4.399  1.5781 -0.1549 -0.4748
 6339TIP3   OH240431   2.524   6.362  16.359 -0.1942  0.4537  0.5781
 6339TIP3    H140432   2.551   6.300  16.292 -2.0336  0.7015 -0.4585
 6339TIP3    H240433   2.519   6.310  16.439  0.9249 -0.1009  0.3098
 6340TIP3   OH240434   2.040   1.349  10.416  0.2134  0.4285 -0.4813
 6340TIP3    H140435   2.133   1.335  10.434  0.3398  2.6667  0.9448
 6340TIP3    H240436   2.010   1.409  10.485 -1.7699  1.4820 -2.1271
 6341TIP3   OH240437   1.884   0.682   0.678  0.3878  0.3075 -0.5036
 6341TIP3    H140438   1.946   0.655   0.746  1.3221  2.3555 -0.4568
 6341TIP3    H240439   1.811   0.620   0.685  1.7776 -1.2988  0.3948
 6342TIP3   OH240440   2.096   5.501  15.807 -0.5298 -0.0254 -0.1035
 6342TIP3    H140441   2.085   5.454  15.725 -1.1723 -1.5594  0.8220
 6342TIP3    H240442   2.107   5.432  15.873  0.4006  1.1684  1.0537
 6343TIP3   OH240443   6.312   4.516  11.818 -0.1578  0.0987  0.5870
 6343TIP3    H140444   6.381   4.449  11.820 -0.9038 -0.7594 -0.5242
 6343TIP3    H240445   6.303   4.544  11.909  2.0839  0.7297  0.6803
 6344TIP3   OH240446   2.850   3.962   4.955 -0.5299  0.3137  0.1681
 6344TIP3    H140447   2.905   4.004   5.021  1.3700 -1.0590 -0.4383
 6344TIP3    H240448   2.760   3.982   4.982  0.2262  2.6507  1.2089
 6345TIP3   OH240449   5.540   3.002   3.646  0.1530  0.9186 -0.2955
 6345TIP3    H140450   5.529   2.971   3.556 -1.2057  1.8134 -0.4730
 6345TIP3    H240451   5.556   3.096   3.637 -1.9833  1.3972  0.4480
 6346TIP3   OH240452   1.561   2.015  17.236  0.9664  0.3969 -0.0111
 6346TIP3    H140453   1.493   2.075  17.264 -0.1051 -0.2537 -1.1371
 6346TIP3    H240454   1.621   2.011  17.310 -0.5577  0.4899  1.2817
 6347TIP3   OH240455   2.737   2.774   2.011 -0.0367 -0.5417 -0.3507
 6347TIP3    H140456   2.812   2.736   1.963  2.0877  1.0675  1.4905
 6347TIP3    H240457   2.686   2.819   1.943  2.1008  0.5023 -1.3721
 6348TIP3   OH240458   3.608   5.804  12.298 -0.2515 -0.0937  0.4536
 6348TIP3    H140459   3.588   5.849  12.216 -0.3328  1.0896  1.1024
 6348TIP3    H240460   3.704   5.807  12.304 -0.0088 -2.6239 -0.9121
 6349TIP3   OH240461   2.244   1.864  12.981 -0.5687 -0.1117 -0.2085
 6349TIP3    H140462   2.322   1.860  12.927 -1.3338 -0.9093 -1.2980
 6349TIP3    H240463   2.241   1.954  13.013  1.6018 -0.4468  1.1195
 6350TIP3   OH240464   2.357   5.431   3.306  0.5138 -0.3603  0.2126
 6350TIP3    H140465   2.271   5.391   3.293  0.2232  0.2886  0.1040
 6350TIP3    H240466   2.345   5.523   3.283  0.9154  0.0273  1.4775
 6351TIP3   OH240467   5.294   4.626   6.653 -0.3163  0.2344  0.5034
 6351TIP3    H140468   5.214   4.674   6.632 -0.6724  0.4914  2.2622
 6351TIP3    H240469   5.301   4.558   6.586 -1.4069  0.8947 -0.3016
 6352TIP3   OH240470   3.454   3.790  12.095 -0.0616 -0.3943 -0.6048
 6352TIP3    H140471   3.424   3.741  12.019 -0.2920  0.2268 -0.9267
 6352TIP3    H240472   3.548   3.775  12.098 -0.1744 -1.1073 -0.5031
 6353TIP3   OH240473   4.717   3.676  15.583  0.0962 -0.1873 -0.3546
 6353TIP3    H140474   4.642   3.701  15.636 -0.3904 -1.1735 -0.5611
 6353TIP3    H240475   4.699   3.586  15.556  0.4640  0.1830 -1.9568
 6354TIP3   OH240476   1.052   6.098   5.152  0.3720 -0.3647 -0.0658
 6354TIP3    H140477   1.098   6.021   5.118  1.2048 -0.5347  1.3411
 6354TIP3    H240478   1.105   6.127   5.226 -1.2411  0.0595  0.9939
 6355TIP3   OH240479   4.337   5.177   0.575  0.3228 -0.1130  0.0825
 6355TIP3    H140480   4.394   5.231   0.629  0.1227 -0.6387  0.8332
 6355TIP3    H240481   4.379   5.175   0.489 -1.2351  3.8372 -0.9761
 6356TIP3   OH240482   3.291   1.984   2.628  0.4203 -0.0008  0.0889
 6356TIP3    H140483   3.221   2.003   2.566 -0.3732 -1.0121  0.6518
 6356TIP3    H240484   3.279   1.892   2.651  1.6857 -0.0866  0.5127
 6357TIP3   OH240485   4.952   4.429   3.700  0.1953  0.5981  0.6472
 6357TIP3    H140486   4.983   4.494   3.636 -0.5785 -0.0890 -0.4647
 6357TIP3    H240487   4.920   4.356   3.646 -0.9411  0.1952  1.8164
 6358TIP3   OH240488   2.591   3.669   0.816  0.3405 -0.1797 -0.4427
 6358TIP3    H140489   2.533   3.731   0.861  0.6160 -1.0826  1.2194
 6358TIP3    H240490   2.580   3.587   0.864  1.7081 -0.8208 -1.1785
 6359TIP3   OH240491   2.125   2.006   1.010 -0.1566 -0.1863 -0.3032
 6359TIP3    H140492   2.150   2.041   0.925 -0.5329 -1.2399 -0.8555
 6359TIP3    H240493   2.143   2.078   1.071 -1.3480  1.1547 -1.4516
 6360TIP3   OH240494   1.820   6.398  16.197 -0.0071  0.4021  0.4241
 6360TIP3    H140495   1.830   6.347  16.277  1.9139  0.0728  0.0213
 6360TIP3    H240496   1.726   6.414  16.190 -0.3421 -0.6569  2.0507
 6361TIP3   OH240497   1.022   3.670  11.698  0.7297  0.4549  0.3432
 6361TIP3    H140498   1.067   3.606  11.643 -1.1606 -0.3562 -0.3560
 6361TIP3    H240499   0.999   3.620  11.777  0.2745  0.6022  0.3038
 6362TIP3   OH240500   1.493   4.365   5.213 -0.5124  0.0198 -0.2520
 6362TIP3    H140501   1.570   4.390   5.263 -1.3222 -1.3200  1.8183
 6362TIP3    H240502   1.441   4.445   5.205 -0.1606  0.3497  0.7017
 6363TIP3   OH240503   2.243   4.656   5.740  0.1358  0.4034  0.3160
 6363TIP3    H140504   2.313   4.721   5.731  2.3481 -1.8481 -0.1633
 6363TIP3    H240505   2.277   4.594   5.805 -1.1569 -1.0698 -0.3528
 6364TIP3   OH240506   0.467   5.010   6.328 -0.3699  0.0376  0.2861
 6364TIP3    H140507   0.552   5.055   6.323  0.0692 -0.6264  1.4495
 6364TIP3    H240508   0.432   5.017   6.240  0.1380  1.7859  0.1808
 6365TIP3   OH240509   0.574   5.578  14.155  0.1128 -0.1757 -0.1094
 6365TIP3    H140510   0.598   5.556  14.245  1.7600 -0.0308 -0.4816
 6365TIP3    H240511   0.501   5.640  14.164  0.8144  0.5133  1.1471
 6366TIP3   OH240512   2.017   0.561   0.470 -0.4179  0.4251 -0.4075
 6366TIP3    H140513   1.963   0.617   0.526 -2.8504 -0.1011 -2.0451
 6366TIP3    H240514   2.095   0.613   0.452  1.0043  0.2219  4.1267
 6367TIP3   OH240515   3.491   3.759  15.004  0.6040  0.4514  0.2639
 6367TIP3    H140516   3.411   3.774  15.054  0.7578 -0.7380  0.9054
 6367TIP3    H240517   3.474   3.677  14.957  0.7160  1.2019 -1.1450
 6368TIP3   OH240518   2.288   4.953  11.650  0.1543  0.1693 -0.0150
 6368TIP3    H140519   2.282   4.871  11.602  0.5675  0.3458 -0.3792
 6368TIP3    H240520   2.377   4.985  11.633 -0.0749  0.8028 -0.0687
 6369TIP3   OH240521   6.755   0.007  11.968 -0.3109 -0.3374  0.2024
 6369TIP3    H140522   6.668   0.000  11.928  0.1804 -2.0245 -0.6737
 6369TIP3    H240523   6.738   0.007  12.062 -1.3834  1.8840  0.0809
 6370TIP3   OH240524   5.303   0.979   2.716  0.0080  0.0871  0.2233
 6370TIP3    H140525   5.362   0.926   2.770  0.2328  0.1910  0.0821
 6370TIP3    H240526   5.339   1.068   2.721 -0.5694  0.2991  0.7466
 6371TIP3   OH240527   2.035   5.065  11.018  0.2212 -0.3935 -0.1321
 6371TIP3    H140528   2.128   5.088  11.011 -0.0023  0.6464  0.0934
 6371TIP3    H240529   2.034   4.973  11.043  1.2217 -0.1216  0.9902
 6372TIP3   OH240530   3.841   4.615   6.312  0.3129 -0.5404  0.2972
 6372TIP3    H140531   3.825   4.547   6.377 -2.1361 -1.0233 -0.7110
 6372TIP3    H240532   3.847   4.696   6.364  2.2024 -1.3243  1.4061
 6373TIP3   OH240533   2.082   1.901   0.375 -0.8586  0.8680 -0.0193
 6373TIP3    H140534   2.104   1.808   0.369  0.1789  1.1549 -0.7484
 6373TIP3    H240535   2.164   1.944   0.400 -0.6687  1.8756 -2.1885
 6374TIP3   OH240536   1.159   5.552  14.740 -0.0885  0.1447  0.0849
 6374TIP3    H140537   1.232   5.610  14.716 -1.2437  1.0129 -1.5034
 6374TIP3    H240538   1.156   5.557  14.836  2.7144 -0.9443  0.3306
 6375TIP3   OH240539   3.194   5.378  11.635  0.4815 -0.3823  0.3727
 6375TIP3    H140540   3.163   5.305  11.581  0.1706 -0.2446  0.3643
 6375TIP3    H240541   3.186   5.455  11.579 -0.3067 -0.1623  0.7754
 6376TIP3   OH240542   3.634   1.896   3.759 -0.4623  0.4265 -0.1155
 6376TIP3    H140543   3.542   1.901   3.785 -0.2456 -1.2755  1.1359
 6376TIP3    H240544   3.678   1.961   3.814 -0.4420 -1.1757  1.8708
 6377TIP3   OH240545   1.216   4.071  14.882 -0.0377 -0.0164 -0.4199
 6377TIP3    H140546   1.143   4.061  14.943 -0.3015  0.8981 -0.5744
 6377TIP3    H240547   1.267   4.145  14.916  0.0317  0.2519 -1.0889
 6378TIP3   OH240548   2.407   5.964  15.252 -0.4825 -0.0907 -0.3944
 6378TIP3    H140549   2.380   6.013  15.330 -0.9094  0.0057 -0.6031
 6378TIP3    H240550   2.371   5.877  15.264  1.4235 -0.8003  0.6342
 6379TIP3   OH240551   4.706   2.299   0.659  0.3494 -0.0936  0.5364
 6379TIP3    H140552   4.774   2.366   0.645  1.1969 -0.9996  0.2189
 6379TIP3    H240553   4.681   2.273   0.570 -0.4957  0.3109  0.6539
 6380TIP3   OH240554   0.443   6.260   5.870 -0.1980 -0.4969  0.1459
 6380TIP3    H140555   0.436   6.337   5.925 -0.7890  0.0771 -0.7079
 6380TIP3    H240556   0.441   6.186   5.931 -0.2359  0.1381  0.9240
 6381TIP3   OH240557   3.529   1.497  17.020  0.3249 -0.2060 -0.1191
 6381TIP3    H140558   3.450   1.443  17.024 -0.3925  0.5355 -2.6234
 6381TIP3    H240559   3.504   1.578  17.066 -0.2686 -0.1061 -0.6033
 6382TIP3   OH240560   5.165   2.525  17.287  0.4152  0.1294  0.1502
 6382TIP3    H140561   5.103   2.576  17.340  0.3217  0.5007 -0.3092
 6382TIP3    H240562   5.226   2.591  17.252 -0.0129 -0.0003 -0.8661
 6383TIP3   OH240563   4.242   6.745  15.896  0.3805 -0.1283  0.2236
 6383TIP3    H140564   4.273   6.754  15.806 -0.0325 -0.9715 -0.0156
 6383TIP3    H240565   4.183   6.819  15.909  1.7135  0.9376  0.3612
 6384TIP3   OH240566   4.673   0.085  14.845 -0.2940  0.0561  0.8353
 6384TIP3    H140567   4.592   0.102  14.796 -0.2543  2.2253  1.4184
 6384TIP3    H240568   4.644   0.048  14.928 -0.5104 -1.3483  0.1587
 6385TIP3   OH240569   6.752   1.372   0.781  0.2862 -0.6802 -0.5867
 6385TIP3    H140570   6.821   1.333   0.837  0.4273  0.8988  0.3897
 6385TIP3    H240571   6.791   1.452   0.747 -0.6605 -0.3934 -1.0219
 6386TIP3   OH240572   1.251   5.892   0.779 -0.3917  0.0250  0.7485
 6386TIP3    H140573   1.188   5.890   0.707  1.6566 -0.6879 -1.1769
 6386TIP3    H240574   1.260   5.985   0.800 -1.6815  0.1685  0.7272
 6387TIP3   OH240575   2.287   5.548  13.184  0.1982  0.2440  0.2532
 6387TIP3    H140576   2.333   5.470  13.215 -0.1495  1.0214  3.0864
 6387TIP3    H240577   2.356   5.613  13.172  0.6397 -0.7036 -3.2916
 6388TIP3   OH240578   3.756   3.191   1.557  0.0190  0.2815  0.0404
 6388TIP3    H140579   3.800   3.110   1.584 -0.4988 -0.8023 -2.0970
 6388TIP3    H240580   3.731   3.234   1.639 -2.0555 -3.0384  1.3544
 6389TIP3   OH240581   0.404   5.765   6.017  0.4855  0.2917 -0.1064
 6389TIP3    H140582   0.368   5.853   6.010 -1.7952 -0.4120  1.5174
 6389TIP3    H240583   0.377   5.735   6.104  1.1261 -2.0364 -0.6379
 6390TIP3   OH240584   5.452   5.645  16.096 -0.0447  1.0474 -0.3940
 6390TIP3    H140585   5.382   5.623  16.157 -0.7894 -0.9002 -1.8354
 6390TIP3    H240586   5.503   5.713  16.141 -1.7350  1.1689  1.4800
 6391TIP3   OH240587   4.065   2.339  15.951 -0.1954  0.3384  0.1106
 6391TIP3    H140588   3.970   2.331  15.956 -0.1943 -0.0476 -0.4546
 6391TIP3    H240589   4.099   2.275  16.013 -0.2739 -1.0379 -1.2078
 6392TIP3   OH240590   0.986   1.997   4.635 -0.0970 -0.0682 -0.3464
 6392TIP3    H140591   0.920   1.942   4.676 -0.2713 -0.0977 -0.6720
 6392TIP3    H240592   1.059   1.938   4.616  0.1762  0.0309  0.3415
 6393TIP3   OH240593   2.619   1.051   6.723 -0.2808 -0.3203  0.4331
 6393TIP3    H140594   2.693   1.101   6.756 -0.9641  0.5668  0.6408
 6393TIP3    H240595   2.656   0.965   6.703  0.8923  0.2302  0.1399
 6394TIP3   OH240596   4.491   4.168  13.925 -0.1024 -0.2812  0.1795
 6394TIP3    H140597   4.401   4.143  13.903 -0.2244 -0.2108  0.5838
 6394TIP3    H240598   4.490   4.263  13.930 -0.0359 -0.2871  0.3164
 6395TIP3   OH240599   2.874   3.229  17.013  0.1860  0.2665  0.8766
 6395TIP3    H140600   2.869   3.227  16.917 -1.0374  1.8591  0.8590
 6395TIP3    H240601   2.846   3.317  17.036 -1.4689 -0.6935  2.7990
 6396TIP3   OH240602   2.209   3.684  16.831 -0.1594 -0.5144 -0.3982
 6396TIP3    H140603   2.133   3.685  16.772 -1.0449  3.2364  0.5437
 6396TIP3    H240604   2.284   3.678  16.772 -1.0894  1.0141 -1.8326
 6397TIP3   OH240605   6.607   6.466   5.530  0.5373  0.0517 -0.1840
 6397TIP3    H140606   6.578   6.386   5.574 -1.0317  0.7735  0.1874
 6397TIP3    H240607   6.529   6.496   5.482  1.1193  1.3011 -0.3741
 6398TIP3   OH240608   2.042   3.901  15.780  0.4687 -0.0353  0.3111
 6398TIP3    H140609   2.010   3.866  15.863 -0.9490  0.5843  0.0534
 6398TIP3    H240610   2.098   3.974  15.804  1.3286 -0.8127  0.7513
 6399TIP3   OH240611   2.724   2.916   5.963 -0.6588 -0.3816  0.4137
 6399TIP3    H140612   2.697   2.969   6.037  0.1884  1.1044 -0.2888
 6399TIP3    H240613   2.644   2.870   5.935 -1.0968 -0.5447  1.8811
 6400TIP3   OH240614   2.040   0.034   5.685  0.0745 -0.4494  0.2053
 6400TIP3    H140615   1.960   0.055   5.733 -0.1373 -0.3731 -0.1727
 6400TIP3    H240616   2.031  -0.058   5.661 -2.3186  0.6314 -4.1930
 6401TIP3   OH240617   1.528   5.105   0.684 -0.5829 -0.3645  0.0155
 6401TIP3    H140618   1.446   5.154   0.683 -0.0548  0.6208  2.0451
 6401TIP3    H240619   1.516   5.039   0.615 -2.6722  0.3698 -0.4089
 6402TIP3   OH240620   2.093   5.508   1.907 -0.0736  0.4927  0.5098
 6402TIP3    H140621   2.089   5.590   1.956  1.1046  0.2931  0.9957
 6402TIP3    H240622   2.087   5.533   1.815 -1.6303  0.9381  0.7042
 6403TIP3   OH240623   0.877   3.497   1.545  0.0200 -0.5778  0.0064
 6403TIP3    H140624   0.794   3.542   1.533 -0.3209 -0.9306  0.8879
 6403TIP3    H240625   0.883   3.483   1.640  2.0771  1.2966  0.2332
 6404TIP3   OH240626   6.579   6.292   3.537  0.2848  0.0970 -0.0895
 6404TIP3    H140627   6.504   6.350   3.549 -1.8066 -1.8264 -2.4851
 6404TIP3    H240628   6.565   6.221   3.600 -0.3648 -0.6092 -0.9968
 6405TIP3   OH240629   4.852   6.580  15.012  0.3031 -0.0154 -0.8883
 6405TIP3    H140630   4.844   6.675  15.016  1.7822  0.1027  1.2575
 6405TIP3    H240631   4.934   6.564  14.966  1.1781 -0.1145  0.6288
 6406TIP3   OH240632   0.515   2.690  16.734  0.1168 -0.0803 -0.3573
 6406TIP3    H140633   0.533   2.652  16.648  1.3847  0.3322 -0.2931
 6406TIP3    H240634   0.537   2.621  16.796 -0.6072 -0.3085 -0.3440
 6407TIP3   OH240635   6.751   0.024   5.562 -0.7422  0.0512 -0.0594
 6407TIP3    H140636   6.807  -0.049   5.587 -0.8376 -0.3692 -1.0240
 6407TIP3    H240637   6.748   0.020   5.466 -1.5575  0.7130 -0.0734
 6408TIP3   OH240638   6.189   6.587  16.782  1.2170 -0.1515 -0.2675
 6408TIP3    H140639   6.267   6.531  16.789  0.9363 -0.4801  0.3536
 6408TIP3    H240640   6.116   6.525  16.782  0.8324  0.2423  1.6129
 6409TIP3   OH240641   1.840   3.208  11.315 -0.3144  0.2665  0.7281
 6409TIP3    H140642   1.929   3.176  11.330 -1.1190 -1.8704  1.3489
 6409TIP3    H240643   1.823   3.191  11.223 -0.7205 -1.1835  1.0425
 6410TIP3   OH240644   4.938   4.664   4.348  0.2449 -0.1993 -0.1217
 6410TIP3    H140645   5.028   4.632   4.346  0.0656 -0.6928 -1.0032
 6410TIP3    H240646   4.884   4.587   4.331 -0.2892  0.2440 -0.5054
 6411TIP3   OH240647   0.898   5.929  12.869  0.9464  0.8545 -0.0650
 6411TIP3    H140648   0.824   5.885  12.910  0.4710  1.8459  0.1811
 6411TIP3    H240649   0.869   6.020  12.858  2.4971  1.5241  1.0002
 6412TIP3   OH240650   5.794   2.199  13.840 -0.3193 -0.0168  0.0336
 6412TIP3    H140651   5.879   2.223  13.878 -0.1782 -0.6778  0.1489
 6412TIP3    H240652   5.765   2.124  13.891 -1.7654  1.1848  1.0794
 6413TIP3   OH240653   2.741   0.561   3.251 -0.0908  0.3828 -0.2325
 6413TIP3    H140654   2.740   0.629   3.184 -0.2839  0.2628 -0.3539
 6413TIP3    H240655   2.822   0.513   3.236 -0.0925  0.4088 -0.3250
 6414TIP3   OH240656   5.780   0.480  13.851 -0.2758  0.3213 -0.0611
 6414TIP3    H140657   5.872   0.494  13.829 -0.5500 -0.1767 -1.7155
 6414TIP3    H240658   5.732   0.542  13.795 -0.9194  1.6131  1.8184
 6415TIP3   OH240659   5.746   0.867   1.414  0.6459  0.2261  0.1103
 6415TIP3    H140660   5.717   0.800   1.476  0.9147 -0.7984 -0.8378
 6415TIP3    H240661   5.665   0.903   1.377  0.4955 -1.3479 -1.1915
 6416TIP3   OH240662   5.899   5.060  16.549 -0.7292 -0.3617 -0.1166
 6416TIP3    H140663   5.841   5.032  16.620 -1.4044 -0.5500 -0.7321
 6416TIP3    H240664   5.912   5.153  16.564 -0.2236 -0.5485  0.7030
 6417TIP3   OH240665   3.427   4.824  11.953  0.0295 -0.0549 -0.0997
 6417TIP3    H140666   3.355   4.843  12.014  0.4500  0.2851  0.3030
 6417TIP3    H240667   3.482   4.903  11.956  0.0089  0.0071 -0.9987
 6418TIP3   OH240668   6.751   5.563   4.839  0.4031 -0.1166 -0.6994
 6418TIP3    H140669   6.673   5.528   4.797 -0.9250  2.3090 -0.4374
 6418TIP3    H240670   6.775   5.497   4.904 -2.4783 -0.2202  0.4123
 6419TIP3   OH240671   4.602   1.787   3.570  0.0197  0.1580  0.8488
 6419TIP3    H140672   4.554   1.859   3.612  0.4712 -0.3150  2.2258
 6419TIP3    H240673   4.692   1.798   3.600  0.5832  0.3874 -0.8355
 6420TIP3   OH240674   0.896   2.959  14.288  0.6116 -0.4581 -0.3169
 6420TIP3    H140675   0.922   3.039  14.242 -0.3725 -0.2444 -0.5302
 6420TIP3    H240676   0.967   2.897  14.271  2.3981  0.9383  1.4911
 6421TIP3   OH240677   1.706   0.665   2.504 -0.4278  0.1601  0.4779
 6421TIP3    H140678   1.707   0.755   2.538 -0.3206  1.2763 -2.1882
 6421TIP3    H240679   1.661   0.673   2.420  0.0088 -2.2335 -0.0345
 6422TIP3   OH240680   3.213   6.726  11.956 -0.0100 -0.4376  0.0458
 6422TIP3    H140681   3.175   6.809  11.927  2.8745  1.9483  2.3335
 6422TIP3    H240682   3.144   6.684  12.006 -1.7810  0.1593 -1.7398
 6423TIP3   OH240683   1.233   0.625  13.565  0.0861  0.6197  0.0433
 6423TIP3    H140684   1.226   0.536  13.531 -1.4129  0.3449  1.0245
 6423TIP3    H240685   1.277   0.616  13.649 -0.3395  0.7569  0.2849
 6424TIP3   OH240686   6.745   1.449   2.526  0.1227 -0.8501  0.0125
 6424TIP3    H140687   6.727   1.516   2.591  1.1699  0.7964 -1.3013
 6424TIP3    H240688   6.813   1.394   2.565  0.2901 -0.2696  0.5462
 6425TIP3   OH240689   4.532   5.539   4.410  0.1330 -0.6591  0.2106
 6425TIP3    H140690   4.460   5.476   4.408  0.3195 -0.8590 -1.1734
 6425TIP3    H240691   4.547   5.555   4.504 -1.4499 -0.8814  0.5362
 6426TIP3   OH240692   1.077   2.329   1.135 -0.5589  0.3430  0.3732
 6426TIP3    H140693   1.120   2.261   1.187  0.4887 -0.2622 -1.2207
 6426TIP3    H240694   1.145   2.396   1.123  0.0056 -0.5920 -2.1242
 6427TIP3   OH240695   1.825   4.765   2.266  0.2714  0.4018 -0.4414
 6427TIP3    H140696   1.844   4.858   2.281 -2.3660  0.9434 -0.0776
 6427TIP3    H240697   1.753   4.764   2.204  0.7468 -1.4629 -1.0376
 6428TIP3   OH240698   0.800   5.465   1.497  0.1901  0.2304 -0.6983
 6428TIP3    H140699   0.862   5.449   1.426  2.0996 -1.1818  1.1698
 6428TIP3    H240700   0.754   5.382   1.509  0.1596  0.3425 -0.0114
 6429TIP3   OH240701   1.854   6.176   4.025 -0.5593  0.0606 -0.5386
 6429TIP3    H140702   1.826   6.110   3.962 -0.2116  1.4965 -2.2845
 6429TIP3    H240703   1.950   6.171   4.025 -0.5349  0.4475 -0.5620
 6430TIP3   OH240704   0.394   1.891  11.905 -0.2834 -0.8745  0.3360
 6430TIP3    H140705   0.333   1.914  11.976 -1.5536  0.4789 -1.1234
 6430TIP3    H240706   0.480   1.891  11.947 -0.9892 -0.0509  1.8721
 6431TIP3   OH240707   0.379   2.651   0.291  0.6476  0.2211 -0.1474
 6431TIP3    H140708   0.417   2.738   0.283 -0.7336  0.8908  0.1700
 6431TIP3    H240709   0.287   2.667   0.312  0.5199 -1.3147  0.6487
 6432TIP3   OH240710   2.871   6.611   4.383  0.6146 -0.1649  0.2317
 6432TIP3    H140711   2.896   6.631   4.473  3.3874  2.7062 -0.9938
 6432TIP3    H240712   2.810   6.681   4.359  0.9859 -0.0866 -0.5095
 6433TIP3   OH240713   2.825   3.331  15.447 -0.2763 -0.6226  0.3117
 6433TIP3    H140714   2.878   3.269  15.496 -0.3624 -0.4450  0.6293
 6433TIP3    H240715   2.739   3.289  15.439 -0.3892 -0.4675  0.6857
 6434TIP3   OH240716   1.984   3.093   1.507 -0.4814  0.0815 -0.6861
 6434TIP3    H140717   1.938   3.060   1.584 -0.5357 -0.8396 -1.0994
 6434TIP3    H240718   1.954   3.037   1.435  0.6965 -0.0361 -1.1030
 6435TIP3   OH240719   4.776   3.911   2.289 -0.1383 -0.5070  0.3462
 6435TIP3    H140720   4.724   3.873   2.218  0.5578 -1.0409  0.1153
 6435TIP3    H240721   4.799   3.998   2.257 -1.2235 -0.1042  0.6212
 6436TIP3   OH240722   1.606   6.545   5.687 -0.5584 -0.7506 -0.2388
 6436TIP3    H140723   1.664   6.544   5.763 -0.0568  0.3870 -0.5916
 6436TIP3    H240724   1.589   6.452   5.669  1.3342 -1.1364 -0.2699
 6437TIP3   OH240725   4.188   0.224  14.360 -0.2539 -0.3259  0.2402
 6437TIP3    H140726   4.174   0.295  14.298  0.8374 -0.9981 -0.8231
 6437TIP3    H240727   4.214   0.268  14.441 -0.0789  0.5086 -0.2533
 6438TIP3   OH240728   4.129   6.613  13.437  0.2159 -0.2052  0.1978
 6438TIP3    H140729   4.127   6.642  13.528  1.5338 -0.3268  0.2931
 6438TIP3    H240730   4.195   6.544  13.436  0.4973  0.0675 -0.9250
 6439TIP3   OH240731   6.464   0.241   4.298 -0.0056 -0.0459 -0.0505
 6439TIP3    H140732   6.432   0.298   4.228  1.8544  0.1103 -0.8240
 6439TIP3    H240733   6.551   0.212   4.269  1.0575  0.4096  2.3708
 6440TIP3   OH240734   1.504   5.021  12.465 -0.2115  0.6688 -0.2736
 6440TIP3    H140735   1.516   5.055  12.553 -0.6836  0.6840 -0.2155
 6440TIP3    H240736   1.469   5.094  12.415 -0.6779  0.4411 -0.2865
 6441TIP3   OH240737   1.971   1.639  14.229 -0.1239 -0.3653 -0.0383
 6441TIP3    H140738   1.910   1.566  14.228 -1.6571  0.8538  0.4388
 6441TIP3    H240739   1.920   1.713  14.261  1.7024  0.6419  0.7445
 6442TIP3   OH240740   1.603   3.897  15.414 -0.1188 -0.0168  0.4724
 6442TIP3    H140741   1.643   3.813  15.437 -0.6466 -0.4614 -0.1925
 6442TIP3    H240742   1.671   3.961  15.435  0.8526 -0.7340 -0.3329
 6443TIP3   OH240743   6.637   5.487  14.081  0.1488 -0.4691 -0.0487
 6443TIP3    H140744   6.672   5.524  14.162  0.4109  1.9935 -1.1930
 6443TIP3    H240745   6.542   5.490  14.094  0.1913 -2.4641  1.0958
 6444TIP3   OH240746   0.398   3.515  15.870 -0.6255  0.5249 -0.5780
 6444TIP3    H140747   0.371   3.495  15.960 -0.5363  0.2763 -0.6059
 6444TIP3    H240748   0.360   3.601  15.852 -1.8506 -0.0335 -0.7995
 6445TIP3   OH240749   6.537   1.980   5.580  0.4285 -0.1474  0.7879
 6445TIP3    H140750   6.597   2.029   5.637  0.8291  0.1252  0.1461
 6445TIP3    H240751   6.484   2.047   5.538  2.1072 -0.0637 -1.3838
 6446TIP3   OH240752   5.794   6.582  16.862 -0.0223  0.0368 -0.1094
 6446TIP3    H140753   5.709   6.626  16.867  0.9080  1.8060  2.9623
 6446TIP3    H240754   5.813   6.556  16.952  3.3602  1.1985 -0.3336
 6447TIP3   OH240755   5.069   3.476   0.239  0.0229  0.9886  0.3517
 6447TIP3    H140756   5.099   3.416   0.170 -0.0009  2.4582 -1.0032
 6447TIP3    H240757   5.110   3.560   0.218  0.4009  1.3883  2.4417
 6448TIP3   OH240758   1.904   4.552  11.455  0.3208  0.0220  0.0599
 6448TIP3    H140759   1.945   4.511  11.532 -1.5679 -1.4948  0.3201
 6448TIP3    H240760   1.937   4.501  11.381 -1.8336 -1.9721  0.3640
 6449TIP3   OH240761   0.382   4.291  15.745 -0.1060  0.0258 -0.4454
 6449TIP3    H140762   0.444   4.322  15.811 -0.0644  0.8766 -0.8755
 6449TIP3    H240763   0.435   4.247  15.680 -0.1366 -0.7306  0.0371
 6450TIP3   OH240764   0.101   0.884  15.393  0.2952  0.6512  0.4180
 6450TIP3    H140765   0.055   0.832  15.459 -0.0633  0.7945  0.2812
 6450TIP3    H240766   0.066   0.853  15.310 -0.1592  1.3479  0.3482
 6451TIP3   OH240767   1.564   1.147   3.443  0.5352 -0.5463  0.2103
 6451TIP3    H140768   1.480   1.193   3.437 -0.2632 -2.0643 -0.7582
 6451TIP3    H240769   1.543   1.064   3.486  1.5701 -0.8625  0.1224
 6452TIP3   OH240770   5.164   2.837  15.444  0.2058  0.2072  0.0177
 6452TIP3    H140771   5.244   2.874  15.406  0.1025 -0.6221 -1.0657
 6452TIP3    H240772   5.094   2.892  15.408  0.2014  0.1861 -0.0058
 6453TIP3   OH240773   5.406   0.022   4.014  0.3339 -0.0831  0.0198
 6453TIP3    H140774   5.310   0.023   4.004  0.3234 -0.9462 -0.0101
 6453TIP3    H240775   5.419   0.009   4.108  0.4138 -0.4993 -0.0452
 6454TIP3   OH240776   2.217   2.307  14.356 -0.1572 -1.0455  0.2496
 6454TIP3    H140777   2.188   2.228  14.310 -0.4568  0.7693 -2.9646
 6454TIP3    H240778   2.150   2.372  14.338  1.3608  0.6873  0.5373
 6455TIP3   OH240779   3.677   2.155   5.914 -0.3377  0.6039  0.1578
 6455TIP3    H140780   3.630   2.104   5.979  0.2429  0.2735  0.3301
 6455TIP3    H240781   3.736   2.092   5.872  0.5225  1.1631  0.5004
 6456TIP3   OH240782   4.731   2.560  14.020  0.2290  0.8548  0.5203
 6456TIP3    H140783   4.735   2.498  14.093 -1.5352 -0.5841 -0.5196
 6456TIP3    H240784   4.817   2.552  13.978  0.4302 -0.0690  1.0714
 6457TIP3   OH240785   2.789   0.468   4.016  0.3580 -0.6459 -0.2226
 6457TIP3    H140786   2.821   0.380   3.995  0.0774 -0.7515 -0.2143
 6457TIP3    H240787   2.757   0.503   3.933  0.8005 -0.4121 -0.2954
 6458TIP3   OH240788   1.658   0.471   2.266 -0.4526 -0.4514  0.0434
 6458TIP3    H140789   1.654   0.446   2.359 -0.0463  0.2741  0.2649
 6458TIP3    H240790   1.582   0.529   2.254 -0.5226 -0.5701 -0.0818
 6459TIP3   OH240791   6.318   6.315  13.223 -0.2131 -0.3575  0.7960
 6459TIP3    H140792   6.325   6.256  13.298 -0.7169 -0.3647  0.8417
 6459TIP3    H240793   6.278   6.394  13.257 -0.0819 -0.2127  0.6150
 6460TIP3   OH240794   0.797   3.911   2.965  0.4720  0.4290  0.7198
 6460TIP3    H140795   0.873   3.869   3.006  0.9738  0.4697 -0.1497
 6460TIP3    H240796   0.786   3.864   2.882 -1.3076 -0.5046  1.4352
 6461TIP3   OH240797   0.910   0.304  13.358  0.4456 -0.5661  0.3630
 6461TIP3    H140798   0.895   0.268  13.446 -1.6512 -0.7702 -0.0222
 6461TIP3    H240799   0.877   0.393  13.363 -1.2298 -1.1010 -0.6213
 6462TIP3   OH240800   5.789   5.881  16.658 -0.5671  0.0130  0.3143
 6462TIP3    H140801   5.860   5.860  16.719  0.2498  1.0878 -0.2274
 6462TIP3    H240802   5.714   5.898  16.715  0.4499  2.0754  1.1662
 6463TIP3   OH240803   0.009   3.892   0.252 -0.5486  0.4360  0.1838
 6463TIP3    H140804  -0.058   3.950   0.288  0.6615  0.9720  1.7169
 6463TIP3    H240805  -0.025   3.804   0.265 -1.1463  0.7172  0.5432
 6464TIP3   OH240806   5.632   3.709  13.690  0.1355 -0.5543  0.1577
 6464TIP3    H140807   5.645   3.631  13.636  1.3156 -0.6499  0.5546
 6464TIP3    H240808   5.705   3.708  13.751 -0.5501  0.1736  1.0145
 6465TIP3   OH240809   3.828   0.286  15.716 -0.0556 -0.5087  0.0665
 6465TIP3    H140810   3.796   0.309  15.803 -2.0503  0.2099 -0.7964
 6465TIP3    H240811   3.873   0.202  15.728 -0.7768 -0.6855  1.6836
 6466TIP3   OH240812   4.602   1.500  12.933  0.1120 -0.4248 -0.1272
 6466TIP3    H140813   4.617   1.425  12.876  0.3283 -0.2478 -0.3028
 6466TIP3    H240814   4.681   1.552  12.926  0.3093 -0.6036  0.6516
 6467TIP3   OH240815   5.008   0.262   4.049  0.0106  0.1043 -0.3886
 6467TIP3    H140816   5.042   0.193   3.993 -0.5271 -0.3619 -0.1557
 6467TIP3    H240817   4.935   0.300   4.000 -0.4398 -0.2830 -0.0296
 6468TIP3   OH240818   0.789   4.551  13.330 -0.0603 -0.3349  0.3191
 6468TIP3    H140819   0.773   4.496  13.253 -0.8025  1.5321 -0.9678
 6468TIP3    H240820   0.820   4.634  13.293  1.2245  0.0717  2.1702
 6469TIP3   OH240821   2.126   4.461   4.888 -0.7920  0.1028 -0.1774
 6469TIP3    H140822   2.133   4.556   4.880 -0.5317  0.1129  0.1965
 6469TIP3    H240823   2.212   4.428   4.863 -1.3088 -0.1306 -1.7801
 6470TIP3   OH240824   1.733   5.082   4.887 -0.4364  0.0671 -0.0501
 6470TIP3    H140825   1.642   5.085   4.918 -0.1629 -0.0602  0.7714
 6470TIP3    H240826   1.786   5.074   4.966  0.2701 -0.3830 -0.5526
 6471TIP3   OH240827   0.370   5.852  12.397 -0.2915  0.3243 -0.4572
 6471TIP3    H140828   0.404   5.763  12.389 -1.5385 -0.2302 -0.0304
 6471TIP3    H240829   0.312   5.847  12.473  0.0400  1.6503 -0.0996
 6472TIP3   OH240830   3.554   0.272  11.878 -0.3137  0.1698 -0.3479
 6472TIP3    H140831   3.596   0.187  11.866 -1.9107 -1.1755  2.4303
 6472TIP3    H240832   3.492   0.279  11.805  1.0851 -0.1523 -1.6169
 6473TIP3   OH240833   5.692   2.647  12.028  0.3980  0.1675  0.3633
 6473TIP3    H140834   5.604   2.680  12.049  0.6340  0.0774  1.5520
 6473TIP3    H240835   5.751   2.714  12.061  0.7728  0.6645 -1.2573
 6474TIP3   OH240836   3.313   0.708   5.680  0.1747  0.5681 -0.0856
 6474TIP3    H140837   3.329   0.630   5.733  0.5292  0.2673 -0.6266
 6474TIP3    H240838   3.371   0.775   5.718 -1.0557  0.9501  1.1813
 6475TIP3   OH240839   0.984   1.424   2.884 -0.1699 -0.4498 -0.0177
 6475TIP3    H140840   0.911   1.480   2.858 -0.1415  0.3594  1.5256
 6475TIP3    H240841   0.975   1.346   2.828 -0.8891  0.5729 -1.3976
 6476TIP3   OH240842   6.427   4.009   1.672  0.5047  0.0879  0.2916
 6476TIP3    H140843   6.426   4.024   1.578  0.8341 -0.7931  0.1401
 6476TIP3    H240844   6.519   3.997   1.694  0.2777 -1.8878  0.3455
 6477TIP3   OH240845   2.476   2.560   3.184  0.3905 -0.3711 -0.4079
 6477TIP3    H140846   2.486   2.651   3.156  2.9629 -0.2548  0.6425
 6477TIP3    H240847   2.530   2.510   3.124 -0.5003 -1.1383 -0.5835
 6478TIP3   OH240848   0.670   4.587  15.662  0.0933  0.7810 -0.0708
 6478TIP3    H140849   0.669   4.610  15.569 -0.7475  1.1846  0.0273
 6478TIP3    H240850   0.727   4.510  15.668 -1.2496 -0.3395 -1.1752
 6479TIP3   OH240851   5.895   5.014  16.195 -0.2235  0.2010 -0.6388
 6479TIP3    H140852   5.893   5.069  16.273 -1.1659  1.3187 -1.4082
 6479TIP3    H240853   5.870   5.073  16.124 -2.1224 -1.4185 -1.3983
 6480TIP3   OH240854   1.196   4.753   4.244 -0.1205 -0.7335 -0.1169
 6480TIP3    H140855   1.111   4.778   4.280 -1.3153 -2.2478 -1.6726
 6480TIP3    H240856   1.195   4.657   4.247  2.7041 -0.8283  2.2811
 6481TIP3   OH240857   5.783   0.561   5.049 -0.1738 -0.3783 -0.0548
 6481TIP3    H140858   5.770   0.508   5.128  0.5219  0.1449  0.4142
 6481TIP3    H240859   5.874   0.590   5.053 -0.9626  2.2923  0.6192
 6482TIP3   OH240860   6.417   4.834   2.115 -0.6805 -0.2465  0.1144
 6482TIP3    H140861   6.343   4.873   2.163  0.2847 -0.6461  2.0242
 6482TIP3    H240862   6.475   4.908   2.097  1.2998 -0.5733  4.0090
 6483TIP3   OH240863   0.273   1.595   5.546 -0.4585 -1.0181  0.2739
 6483TIP3    H140864   0.320   1.574   5.626  1.3724 -0.6628 -0.6548
 6483TIP3    H240865   0.202   1.531   5.543 -1.3309 -0.2884  2.7572
 6484TIP3   OH240866   5.600   3.983  16.951 -0.5641  0.3413 -0.2888
 6484TIP3    H140867   5.507   4.007  16.946 -0.6665 -0.2497 -2.1556
 6484TIP3    H240868   5.603   3.894  16.914  0.6785  0.1455  0.2521
 6485TIP3   OH240869   3.305   2.609  12.756  0.1646  0.6303 -0.6559
 6485TIP3    H140870   3.399   2.623  12.745  0.4767 -1.2389 -0.5984
 6485TIP3    H240871   3.282   2.661  12.834  0.5695  3.2072 -2.1473
 6486TIP3   OH240872   1.290   5.022   0.030 -0.3630 -0.1158  0.3051
 6486TIP3    H140873   1.203   4.983   0.025  0.2230 -1.3456 -1.6870
 6486TIP3    H240874   1.309   5.048  -0.061  1.6752 -0.6661  0.5329
 6487TIP3   OH240875   6.540   3.481  17.341  0.0123  0.0914 -0.3257
 6487TIP3    H140876   6.586   3.425  17.403  0.3453  0.8696  0.1360
 6487TIP3    H240877   6.449   3.451  17.345  0.3512 -1.0559 -0.8082
 6488TIP3   OH240878   4.367   4.227   2.693  0.0031 -0.2095  0.3476
 6488TIP3    H140879   4.314   4.258   2.767 -1.7292 -1.2391 -0.3971
 6488TIP3    H240880   4.435   4.294   2.683  0.1190  0.1216  2.6522
 6489TIP3   OH240881   5.407   1.238   0.751 -0.6661 -0.0083 -0.5715
 6489TIP3    H140882   5.420   1.300   0.824  1.5161 -0.6633 -0.3396
 6489TIP3    H240883   5.374   1.159   0.793  1.9796 -0.8978  0.0291
 6490TIP3   OH240884   6.544   2.855   1.362  0.3964 -0.6435  0.8010
 6490TIP3    H140885   6.479   2.813   1.306 -1.2633 -1.2576  3.0587
 6490TIP3    H240886   6.627   2.817   1.334 -0.2162 -0.3425 -1.7077
 6491TIP3   OH240887   0.904   6.095  17.023  0.2621  0.2367 -0.0109
 6491TIP3    H140888   0.943   6.182  17.008  0.9923  0.0286  0.5901
 6491TIP3    H240889   0.939   6.041  16.953  1.1820  0.0207  0.5965
 6492TIP3   OH240890   4.663   6.036  13.113  0.7286  0.0597  0.5150
 6492TIP3    H140891   4.689   5.957  13.160 -1.6350 -0.7527  0.5893
 6492TIP3    H240892   4.583   6.011  13.066  0.0050  2.3503  0.3878
 6493TIP3   OH240893   5.969   5.171   4.294 -0.3223 -0.0163  0.7148
 6493TIP3    H140894   5.875   5.190   4.296 -0.1243  1.0443  0.6475
 6493TIP3    H240895   6.009   5.251   4.259  0.5645 -0.6281  0.2951
 6494TIP3   OH240896   1.823   2.211   0.544 -0.1408 -0.0929  0.2309
 6494TIP3    H140897   1.841   2.304   0.552 -0.5519 -0.0708  1.0011
 6494TIP3    H240898   1.855   2.173   0.625 -1.0934 -0.4316  0.4701
 6495TIP3   OH240899   4.186   5.436   4.540 -0.1601  0.4454 -0.2992
 6495TIP3    H140900   4.154   5.462   4.626  0.2162 -0.1110  0.0201
 6495TIP3    H240901   4.279   5.418   4.555 -0.2369 -0.2845 -0.6779
 6496TIP3   OH240902   2.041   0.729   3.012 -0.4079 -0.0837  0.0968
 6496TIP3    H140903   2.069   0.820   3.001 -0.7395 -0.1898 -1.8247
 6496TIP3    H240904   1.968   0.734   3.074  0.0091  0.8570  0.5449
 6497TIP3   OH240905   5.312   5.754   3.195  0.2703 -0.5060  0.4019
 6497TIP3    H140906   5.267   5.821   3.144 -1.0501 -1.6761 -0.0295
 6497TIP3    H240907   5.370   5.803   3.253  0.7039  0.9240 -1.1583
 6498TIP3   OH240908   6.585   3.724   3.262 -0.1824  0.1172 -0.2978
 6498TIP3    H140909   6.651   3.720   3.193  1.6199 -0.7120  1.3841
 6498TIP3    H240910   6.634   3.748   3.340 -1.5712 -2.0950  1.3661
 6499TIP3   OH240911   3.341   5.388   6.101 -0.1873 -0.2691 -0.8306
 6499TIP3    H140912   3.342   5.359   6.009 -2.0007  2.0752 -1.7103
 6499TIP3    H240913   3.261   5.351   6.137  0.1898 -0.6435 -0.3637
 6500TIP3   OH240914   3.812   6.674  12.699  0.7878  0.9650  0.0468
 6500TIP3    H140915   3.856   6.611  12.642 -1.2498  0.1243 -0.6799
 6500TIP3    H240916   3.801   6.752  12.644 -1.3657  0.0832 -0.8718
 6501TIP3   OH240917   2.666   2.932  11.264 -0.1725  0.1454 -0.5063
 6501TIP3    H140918   2.607   2.857  11.256 -1.3315  0.9055  0.4770
 6501TIP3    H240919   2.638   2.993  11.196 -1.0879  0.8409  0.4551
 6502TIP3   OH240920   4.335   5.547   6.107 -0.7613 -0.5961  0.3788
 6502TIP3    H140921   4.320   5.565   6.014 -1.3703 -2.0102  0.1770
 6502TIP3    H240922   4.405   5.482   6.108 -0.0434  0.1665  0.9736
 6503TIP3   OH240923   5.613   4.815   2.101  0.2177 -0.0419  0.8726
 6503TIP3    H140924   5.695   4.803   2.149 -0.6456 -0.3907  2.3361
 6503TIP3    H240925   5.639   4.817   2.009  1.6271 -2.7100  1.0953
 6504TIP3   OH240926   0.865   6.064  16.251  0.4202  0.2123  1.1663
 6504TIP3    H140927   0.861   5.994  16.317 -2.0823 -0.0205  0.8619
 6504TIP3    H240928   0.852   6.144  16.301 -0.7290  0.0963  1.0812
 6505TIP3   OH240929   0.115   4.670   3.953 -0.0866 -0.3381  0.3439
 6505TIP3    H140930   0.113   4.602   4.019  0.1470 -0.3457  0.3446
 6505TIP3    H240931   0.206   4.698   3.950 -0.4297  1.0059  1.3862
 6506TIP3   OH240932   1.917   5.749   3.065  0.6965  0.2622  0.3094
 6506TIP3    H140933   1.991   5.807   3.048 -1.2750  2.3069 -2.1643
 6506TIP3    H240934   1.874   5.788   3.141 -0.4244  2.0256 -1.1337
 6507TIP3   OH240935   4.243   4.477   6.420 -0.4207 -0.0585  0.3037
 6507TIP3    H140936   4.310   4.497   6.485  0.3139 -1.7637  0.1383
 6507TIP3    H240937   4.232   4.558   6.371  1.6055  0.2572  0.2893
 6508TIP3   OH240938   1.480   1.889   3.567  0.2338 -0.1783 -0.5743
 6508TIP3    H140939   1.455   1.870   3.657  1.8046  0.9806  0.1634
 6508TIP3    H240940   1.573   1.867   3.563  0.2030 -0.1482 -1.9094
 6509TIP3   OH240941   5.750   2.983  15.283  0.0437  0.4911 -0.5704
 6509TIP3    H140942   5.742   2.972  15.377 -0.0163  1.2875 -0.4716
 6509TIP3    H240943   5.725   3.074  15.268 -1.4715 -0.0401 -1.5276
 6510TIP3   OH240944   3.367   2.512  11.695  0.6149  0.1520  0.3526
 6510TIP3    H140945   3.344   2.532  11.604  1.8311 -0.3486 -0.0864
 6510TIP3    H240946   3.284   2.489  11.736  0.1617 -0.4997 -0.8711
 6511TIP3   OH240947   0.685   0.465   5.491  0.1041  0.2716 -0.1054
 6511TIP3    H140948   0.607   0.415   5.469  0.7688 -1.4454  1.1909
 6511TIP3    H240949   0.710   0.509   5.409 -0.8595 -1.0481 -1.1420
 6512TIP3   OH240950   5.256   4.610   3.375 -0.4284  0.3768 -0.0263
 6512TIP3    H140951   5.309   4.650   3.444  0.7674  0.3092 -0.8765
 6512TIP3    H240952   5.314   4.607   3.299 -0.0181 -3.9416  0.2259
 6513TIP3   OH240953   4.071   6.483  12.117 -0.4122  0.0520  0.2137
 6513TIP3    H140954   4.112   6.484  12.030  0.3710  2.1475  0.5449
 6513TIP3    H240955   4.008   6.411  12.113  1.1481 -1.3507 -1.3377
 6514TIP3   OH240956   2.030   1.201  10.961  0.0295  0.5697  0.0878
 6514TIP3    H140957   1.940   1.201  10.929  0.4246 -0.6766 -1.0975
 6514TIP3    H240958   2.081   1.240  10.890  0.7168 -0.8231 -0.2109
 6515TIP3   OH240959   6.242   0.727   2.941 -0.0934  0.3385  0.5126
 6515TIP3    H140960   6.321   0.778   2.924  0.3148  0.3075  2.1652
 6515TIP3    H240961   6.245   0.656   2.877  1.2002  0.3623  0.5213
 6516TIP3   OH240962   5.284   3.205   5.283 -0.8399  0.3828  0.0058
 6516TIP3    H140963   5.273   3.127   5.338 -3.1272  1.4586  1.1782
 6516TIP3    H240964   5.288   3.171   5.193 -1.5297 -1.0985  0.5073
 6517TIP3   OH240965   4.094   6.562  14.037  0.1774 -0.4054 -0.2265
 6517TIP3    H140966   4.079   6.470  14.013  0.9275 -0.6874  0.3783
 6517TIP3    H240967   4.089   6.563  14.132 -0.7991  0.3698 -0.2661
 6518TIP3   OH240968   0.370   1.501  16.819  0.2208 -0.6208 -0.4641
 6518TIP3    H140969   0.435   1.571  16.828  1.0308 -1.4087 -0.0583
 6518TIP3    H240970   0.337   1.488  16.908 -1.1793  0.3904 -0.8035
 6519TIP3   OH240971   1.337   1.999   2.820  0.6078  0.1215  0.0497
 6519TIP3    H140972   1.259   1.973   2.870  0.5511  0.5930  0.2107
 6519TIP3    H240973   1.399   1.928   2.834  0.4169  0.0209  0.4002
 6520TIP3   OH240974   0.379   1.517  16.207 -0.1051  0.7478  0.4963
 6520TIP3    H140975   0.365   1.465  16.128  1.8033  1.0259 -0.1004
 6520TIP3    H240976   0.387   1.453  16.277  0.4987  0.3321  0.0583
 6521TIP3   OH240977   2.854   2.448  12.315  0.0466 -0.0372  0.2201
 6521TIP3    H140978   2.867   2.379  12.381  1.6412  0.0271  0.0169
 6521TIP3    H240979   2.927   2.508  12.329 -0.7332  1.0635 -0.3033
 6522TIP3   OH240980   2.410   2.106  12.229 -0.1271  0.5438  0.1247
 6522TIP3    H140981   2.368   2.192  12.235 -0.0426  0.6032 -0.1331
 6522TIP3    H240982   2.477   2.117  12.161  0.0134  0.3287  0.2292
 6523TIP3   OH240983   4.967   3.139  11.378  0.2550 -0.1307  0.3895
 6523TIP3    H140984   4.998   3.111  11.292 -2.2489 -0.8331 -0.3769
 6523TIP3    H240985   5.044   3.133  11.434  1.2572 -2.9677 -1.0648
 6524TIP3   OH240986   6.157   4.880   0.132 -0.1393 -0.0112 -0.4208
 6524TIP3    H140987   6.129   4.802   0.084  3.4590 -1.1445 -0.9153
 6524TIP3    H240988   6.112   4.872   0.217 -0.3783 -2.2825 -0.6880
 6525TIP3   OH240989   1.093   1.631  13.471 -0.4707  0.3476 -0.0164
 6525TIP3    H140990   1.017   1.574  13.470  0.0350 -0.3388 -0.0100
 6525TIP3    H240991   1.131   1.619  13.558 -0.9263  1.4668  0.3543
 6526TIP3   OH240992   4.384   5.257   5.257  0.7581 -0.1974 -0.2310
 6526TIP3    H140993   4.371   5.209   5.339 -2.1706 -0.8507 -0.9926
 6526TIP3    H240994   4.473   5.292   5.264  1.5448 -2.4005  2.0775
 6527TIP3   OH240995   6.093   2.938   5.789 -0.2554  0.0760  0.3481
 6527TIP3    H140996   6.045   3.021   5.795  1.6441  1.1649  1.5006
 6527TIP3    H240997   6.060   2.886   5.863 -0.1072  0.5709  0.7689
 6528TIP3   OH240998   5.578   6.022   6.696 -0.1341  0.6193 -0.4776
 6528TIP3    H140999   5.487   6.053   6.694  0.2665  1.8683  0.1262
 6528TIP3    H241000   5.626   6.089   6.744  1.0207 -0.3054 -0.2920
 6529TIP3   OH241001   1.716   5.557  13.213 -0.2546  0.1003  0.1880
 6529TIP3    H141002   1.671   5.534  13.132 -0.4374 -0.9299  0.5743
 6529TIP3    H241003   1.799   5.510  13.209  0.6289  1.6358 -0.3101
 6530TIP3   OH241004   3.003   1.378  13.869  0.2448  0.1388 -0.0659
 6530TIP3    H141005   2.967   1.299  13.908 -0.0551  0.5726  0.5560
 6530TIP3    H241006   3.097   1.374  13.887 -0.0651  1.0785  2.1324
 6531TIP3   OH241007   4.381   5.335  16.226  0.3728  0.1248 -0.0390
 6531TIP3    H141008   4.460   5.319  16.174  1.5572  0.0665  1.7175
 6531TIP3    H241009   4.407   5.319  16.316 -1.2868  1.4284  0.7393
 6532TIP3   OH241010   5.062   4.538  16.831 -0.6887  0.7573  0.2806
 6532TIP3    H141011   5.145   4.502  16.863 -1.7670 -0.2052  2.1783
 6532TIP3    H241012   5.002   4.529  16.905 -2.4412  1.6365 -0.9628
 6533TIP3   OH241013   4.722   6.178  15.527  0.2992 -0.1181 -0.2365
 6533TIP3    H141014   4.727   6.083  15.518 -1.1528 -0.1461 -1.0892
 6533TIP3    H241015   4.764   6.197  15.611 -0.8669 -1.6790  0.7413
 6534TIP3   OH241016   4.241   6.316   1.331  0.3148  0.1882  0.0560
 6534TIP3    H141017   4.306   6.340   1.397 -0.7112  0.0384  1.1439
 6534TIP3    H241018   4.164   6.289   1.381 -0.6641  0.5330 -1.1999
 6535TIP3   OH241019   5.139   5.269   4.174  0.1863 -0.5981 -0.3677
 6535TIP3    H141020   5.180   5.212   4.239  0.4526  0.4163  0.3901
 6535TIP3    H241021   5.182   5.248   4.092  2.0696  0.2232  0.3481
 6536TIP3   OH241022   0.318   1.541   5.839  0.4145  0.2406  0.1285
 6536TIP3    H141023   0.388   1.552   5.902 -0.5452  0.9874  1.1119
 6536TIP3    H241024   0.246   1.593   5.874 -1.0820 -1.5202 -0.1557
 6537TIP3   OH241025   5.681   3.653   4.215 -0.1506 -0.9141 -0.5977
 6537TIP3    H141026   5.636   3.616   4.291  0.1078 -0.6238 -0.3018
 6537TIP3    H241027   5.726   3.730   4.248  1.1675 -1.5928 -0.7266
 6538TIP3   OH241028   5.742   0.852   3.301  0.6271  0.4267  0.1755
 6538TIP3    H141029   5.786   0.767   3.310  0.9971  0.6696  0.6960
 6538TIP3    H241030   5.774   0.904   3.374 -0.8864  0.4609  0.8508
 6539TIP3   OH241031   6.248   4.518   3.874 -0.0854  0.3882  0.0710
 6539TIP3    H141032   6.174   4.503   3.933 -0.1710  0.3197 -0.0552
 6539TIP3    H241033   6.316   4.555   3.931  0.3162 -0.9381  0.4979
 6540TIP3   OH241034   4.954   4.964  15.744  0.2350 -0.4725  0.5071
 6540TIP3    H141035   4.897   4.923  15.679 -1.7526  0.4123  1.6173
 6540TIP3    H241036   4.964   4.898  15.812  0.2705 -0.5177  0.4574
 6541TIP3   OH241037   2.705   4.653   3.549  0.2235 -0.0112  0.3853
 6541TIP3    H141038   2.795   4.660   3.517 -0.1171  0.2625 -0.5498
 6541TIP3    H241039   2.675   4.743   3.556 -0.2873 -0.1263 -0.2354
 6542TIP3   OH241040   0.571   3.489   1.607  0.5103 -0.5213  0.2638
 6542TIP3    H141041   0.591   3.546   1.681  0.6172 -1.0333  0.6392
 6542TIP3    H241042   0.512   3.540   1.552 -1.0581 -0.7958  1.6273
 6543TIP3   OH241043   3.594   3.443   4.772  0.1026 -0.4742  0.3196
 6543TIP3    H141044   3.563   3.413   4.687  0.0470  3.1639 -1.1481
 6543TIP3    H241045   3.516   3.444   4.828 -0.3506 -0.7367 -0.3057
 6544TIP3   OH241046   4.776   3.644   1.658 -0.9673 -0.8337  0.1952
 6544TIP3    H141047   4.794   3.550   1.644  1.9987 -0.5949  1.6152
 6544TIP3    H241048   4.743   3.649   1.747 -1.9706 -0.5934 -0.1842
 6545TIP3   OH241049   1.433   5.780   0.595 -0.1214 -0.1534 -0.2906
 6545TIP3    H141050   1.521   5.802   0.626  0.9244 -3.2570 -0.7225
 6545TIP3    H241051   1.377   5.791   0.671 -0.1219  4.8238 -0.6758
 6546TIP3   OH241052   6.242   5.833  16.838 -0.4068 -0.5213 -0.1045
 6546TIP3    H141053   6.316   5.791  16.795  0.0630  1.1030 -0.9661
 6546TIP3    H241054   6.219   5.905  16.780 -1.9925 -0.3464  0.6843
 6547TIP3   OH241055   6.393   5.544  15.188  0.3081  0.4124  0.2044
 6547TIP3    H141056   6.388   5.496  15.106  0.0759  0.0697  0.4140
 6547TIP3    H241057   6.323   5.506  15.242 -0.5367  1.6601  0.0316
 6548TIP3   OH241058   4.659   5.667   2.853 -0.5526 -0.5298 -0.0189
 6548TIP3    H141059   4.582   5.714   2.884  0.7017  1.6403 -0.0020
 6548TIP3    H241060   4.675   5.599   2.920 -0.6437  1.0179  1.6449
 6549TIP3   OH241061   5.526   2.861  12.131 -0.0191  0.1015 -0.1579
 6549TIP3    H141062   5.488   2.912  12.061 -0.6826  0.9750  0.8087
 6549TIP3    H241063   5.595   2.917  12.167  1.3041 -0.9165 -1.0155
 6550TIP3   OH241064   1.383   2.227  12.243  0.1036  0.6491  0.2192
 6550TIP3    H141065   1.466   2.196  12.279 -0.2521  0.5675  0.9859
 6550TIP3    H241066   1.402   2.314  12.208  0.3835  0.8739  0.9164
 6551TIP3   OH241067   4.971   4.848  13.531  0.9977  0.2538  0.0854
 6551TIP3    H141068   5.016   4.764  13.533  1.2164  0.3821  0.9860
 6551TIP3    H241069   5.008   4.897  13.604  0.5170  0.9490 -0.1250
 6552TIP3   OH241070   3.528   5.630   0.652  0.2012 -0.1499 -0.3806
 6552TIP3    H141071   3.596   5.614   0.718  0.7410 -3.3558 -1.5106
 6552TIP3    H241072   3.533   5.723   0.634  2.6935  0.1441  1.2902
 6553TIP3   OH241073   5.948   3.069   2.077  0.2242  0.3372  0.2173
 6553TIP3    H141074   6.008   3.039   2.010 -1.5221 -1.3370 -0.6753
 6553TIP3    H241075   5.941   3.164   2.062  2.5113  0.5846  0.3292
 6554TIP3   OH241076   4.798   2.858   0.285  0.2456  0.5066 -0.1228
 6554TIP3    H141077   4.848   2.879   0.364 -0.0161  0.4336  0.0640
 6554TIP3    H241078   4.843   2.905   0.215  0.7371  0.2262 -0.0014
 6555TIP3   OH241079   0.048   1.728  11.975  0.3348  0.2320 -0.0887
 6555TIP3    H141080   0.094   1.808  11.950  1.9651 -0.6588 -0.0539
 6555TIP3    H241081   0.013   1.746  12.062 -0.3875  1.3181 -0.5816
 6556TIP3   OH241082   2.130   6.225   3.996  0.1673  0.5119  0.1804
 6556TIP3    H141083   2.129   6.277   3.916  2.1943 -0.5604 -0.6228
 6556TIP3    H241084   2.219   6.236   4.031 -0.1861 -0.3166  1.4210
 6557TIP3   OH241085   6.433   4.282   4.696  0.6043 -0.3058  0.0285
 6557TIP3    H141086   6.393   4.365   4.669  1.4333  0.2451  0.4601
 6557TIP3    H241087   6.467   4.299   4.783  2.0642 -0.6409 -0.4442
 6558TIP3   OH241088   5.901   2.777  13.748  0.6770 -0.0585 -0.0833
 6558TIP3    H141089   5.948   2.697  13.725  1.9092 -0.2454  2.6837
 6558TIP3    H241090   5.839   2.750  13.816  1.0420  1.2739  0.8263
 6559TIP3   OH241091   2.465   4.713   2.790  0.7362  0.0045 -0.5506
 6559TIP3    H141092   2.474   4.771   2.865  1.5004  0.8993 -1.3120
 6559TIP3    H241093   2.469   4.625   2.828 -3.0007  0.3189  0.9427
 6560TIP3   OH241094   5.731   2.054   5.342  0.3517  0.6524 -0.0594
 6560TIP3    H141095   5.715   2.030   5.250  0.7314 -2.0212  0.4981
 6560TIP3    H241096   5.664   2.119   5.361  0.6566  1.7775 -2.3903
 6561TIP3   OH241097   6.617   0.728   6.230  0.3667 -0.5646  0.0862
 6561TIP3    H141098   6.631   0.650   6.284  0.0820 -0.9436 -0.3817
 6561TIP3    H241099   6.522   0.739   6.229  0.4655  0.7113  1.4311
 6562TIP3   OH241100   0.444   5.703  10.620  0.3073  0.1449 -0.1133
 6562TIP3    H141101   0.457   5.785  10.668 -0.5419  1.5374 -2.1039
 6562TIP3    H241102   0.435   5.636  10.688  0.8072  1.7194  1.5895
 6563TIP3   OH241103   3.683   4.145   2.935  0.2840 -0.4103  0.1418
 6563TIP3    H141104   3.666   4.053   2.957  1.2911 -0.4657  0.7613
 6563TIP3    H241105   3.735   4.142   2.855 -1.6521 -0.2703 -1.2065
 6564TIP3   OH241106   3.658   0.165  13.850  0.6070 -0.4410 -0.0165
 6564TIP3    H141107   3.721   0.229  13.818  1.8248 -1.6925 -0.2145
 6564TIP3    H241108   3.573   0.209  13.843  1.3552  0.9660 -0.5753
 6565TIP3   OH241109   1.393   0.826   0.422  0.0664 -0.0193  0.3637
 6565TIP3    H141110   1.438   0.861   0.498 -0.2648  0.8553  0.1769
 6565TIP3    H241111   1.311   0.876   0.417  0.4979  0.6114 -1.0903
 6566TIP3   OH241112   1.795   6.679   1.607 -0.4617  0.2961  0.1440
 6566TIP3    H141113   1.880   6.696   1.568  0.0819 -0.9607  0.7418
 6566TIP3    H241114   1.773   6.760   1.654  0.3101  0.6884 -0.1674
 6567TIP3   OH241115   0.472   4.108   1.442  0.0909  0.6874  0.5411
 6567TIP3    H141116   0.547   4.142   1.491  1.0590 -0.1820 -0.2748
 6567TIP3    H241117   0.507   4.092   1.354 -1.1099  0.4217  0.0979
 6568TIP3   OH241118   4.210   2.073   2.563  0.1707 -0.7010 -0.1271
 6568TIP3    H141119   4.167   2.073   2.477  0.6745 -3.4150 -0.4919
 6568TIP3    H241120   4.152   2.124   2.619 -0.3775  0.8083 -1.9561
 6569TIP3   OH241121   0.595   3.057  15.735 -0.4877 -0.1470 -0.1537
 6569TIP3    H141122   0.595   3.151  15.749  0.4429 -0.4482  2.3372
 6569TIP3    H241123   0.509   3.038  15.698 -1.4837  1.4345  1.2159
 6570TIP3   OH241124   1.551   1.150   3.960  0.0315  0.0454 -0.1339
 6570TIP3    H141125   1.641   1.153   3.926  0.7452  2.3614  1.6899
 6570TIP3    H241126   1.496   1.150   3.882  1.6000  0.1410 -1.3014
 6571TIP3   OH241127   2.046   0.614  14.256 -0.4076  0.1874  0.1579
 6571TIP3    H141128   2.024   0.597  14.348 -0.1015 -1.0136  0.0278
 6571TIP3    H241129   1.983   0.561  14.207 -0.9254  1.2530 -0.3473
 6572TIP3   OH241130   3.920   5.118   5.577 -0.1410 -0.4684  0.0508
 6572TIP3    H141131   3.977   5.195   5.576 -0.6339  0.0031  2.0991
 6572TIP3    H241132   3.940   5.076   5.661 -1.8886 -0.9661  0.2526
 6573TIP3   OH241133   4.216   1.056   2.014  0.0814 -0.7314 -0.2291
 6573TIP3    H141134   4.156   1.002   2.066  0.1737  0.6237  1.3564
 6573TIP3    H241135   4.178   1.055   1.926 -1.2758 -1.3690  0.3288
 6574TIP3   OH241136   1.373   0.634  16.064 -0.3179 -0.1738  0.5227
 6574TIP3    H141137   1.331   0.549  16.053 -2.3562  0.9581 -1.3851
 6574TIP3    H241138   1.303   0.691  16.097  0.5874  1.1118  0.3185
 6575TIP3   OH241139   0.517   0.268   3.775 -0.1386 -0.0948  0.1419
 6575TIP3    H141140   0.458   0.343   3.769  0.7300  0.5387 -0.5546
 6575TIP3    H241141   0.487   0.221   3.854 -1.1879  0.5304  0.1367
 6576TIP3   OH241142   2.102   4.891  16.236  0.1663  0.1604  0.4457
 6576TIP3    H141143   2.012   4.910  16.263 -1.0241 -2.0168 -1.6580
 6576TIP3    H241144   2.126   4.966  16.181 -0.3113  0.7702  1.0353
 6577TIP3   OH241145   0.760   4.880  15.269  0.1396 -0.2357  0.2264
 6577TIP3    H141146   0.790   4.916  15.352  0.6664 -2.5885  1.1527
 6577TIP3    H241147   0.728   4.955  15.219  0.2313  1.2921  2.3676
 6578TIP3   OH241148   2.883   1.149  14.795 -0.1419 -0.2450 -0.3719
 6578TIP3    H141149   2.964   1.107  14.765 -0.8330 -0.3467 -2.2785
 6578TIP3    H241150   2.815   1.110  14.740 -1.4395  0.1512  0.8963
 6579TIP3   OH241151   1.080   0.111  12.430 -0.4293  0.2197 -0.3052
 6579TIP3    H141152   1.051   0.194  12.469 -0.2603  0.1177  0.0394
 6579TIP3    H241153   1.014   0.092  12.364 -1.8299 -0.6027  1.2599
 6580TIP3   OH241154   3.999   2.852   1.380 -0.1412  0.5226  0.4757
 6580TIP3    H141155   4.046   2.935   1.382  1.3520 -0.2232 -1.0328
 6580TIP3    H241156   4.063   2.787   1.410 -0.5071 -0.3874 -0.6277
 6581TIP3   OH241157   5.424   5.360   6.038  0.1495  0.2373 -0.5500
 6581TIP3    H141158   5.366   5.411   6.094  0.0750  1.8920 -2.0451
 6581TIP3    H241159   5.388   5.371   5.950  1.7754 -0.0742 -1.2936
 6582TIP3   OH241160   0.786   2.314   6.460  0.7804  0.3932  0.3210
 6582TIP3    H141161   0.838   2.233   6.464  1.4556  0.8512  1.1451
 6582TIP3    H241162   0.851   2.384   6.450  0.3200  0.9595  1.2033
 6583TIP3   OH241163   0.325   6.475   3.777 -0.3976  0.4281  0.0234
 6583TIP3    H141164   0.414   6.485   3.743 -0.5901 -1.2344 -1.0717
 6583TIP3    H241165   0.332   6.403   3.840 -0.7493  1.1235  0.8845
 6584TIP3   OH241166   1.180   6.585   0.807 -0.1623  0.0725 -0.5400
 6584TIP3    H141167   1.212   6.669   0.774 -0.1171 -0.0064 -0.6993
 6584TIP3    H241168   1.149   6.604   0.895 -0.1910  0.2659 -0.5907
 6585TIP3   OH241169   1.508   3.749   4.315 -0.3436 -0.1034 -0.3748
 6585TIP3    H141170   1.530   3.683   4.250 -2.4566  0.0484 -1.3363
 6585TIP3    H241171   1.481   3.699   4.392 -0.0196 -0.3147 -0.3975
 6586TIP3   OH241172   6.130   5.694  13.281  0.1542 -0.2895 -0.3528
 6586TIP3    H141173   6.123   5.746  13.201 -0.1870  0.1708 -0.0323
 6586TIP3    H241174   6.075   5.617  13.264  0.3558 -0.3620 -0.6845
 6587TIP3   OH241175   0.274   1.947  12.643  0.3618  0.2993 -0.3014
 6587TIP3    H141176   0.216   2.011  12.602 -1.6923 -0.3231  1.4406
 6587TIP3    H241177   0.252   1.864  12.602  2.0886  0.4250 -1.6113
 6588TIP3   OH241178   2.178   1.110  11.471  0.0590 -0.3094  0.2810
 6588TIP3    H141179   2.249   1.143  11.528  0.9991 -1.1726 -0.3655
 6588TIP3    H241180   2.128   1.188  11.449  1.1124  0.4163  0.3456
 6589TIP3   OH241181   3.859   6.652   4.136 -0.2222  0.0724 -0.4171
 6589TIP3    H141182   3.918   6.626   4.066  1.2517 -1.7399  1.3737
 6589TIP3    H241183   3.910   6.712   4.190 -0.8588  0.3742 -0.1334
 6590TIP3   OH241184   6.142   4.124   1.035  0.3964  0.0234  0.0971
 6590TIP3    H141185   6.090   4.188   1.085  0.5702 -0.6182  1.1478
 6590TIP3    H241186   6.094   4.042   1.045 -0.0273  0.0533 -1.5615
 6591TIP3   OH241187   1.324   6.700   1.973 -0.1601 -0.1796 -0.4115
 6591TIP3    H141188   1.305   6.615   1.932  0.0369 -0.4696  0.0984
 6591TIP3    H241189   1.262   6.706   2.045 -0.0644  0.0432 -0.3488
 6592TIP3   OH241190   5.827   2.005   0.425 -0.4580  0.3564  0.3691
 6592TIP3    H141191   5.785   2.091   0.429  0.6406  0.8946  3.5137
 6592TIP3    H241192   5.755   1.943   0.433 -1.0393  1.1254  1.3665
 6593TIP3   OH241193   6.640   3.189   5.372  0.2689  0.1298  0.0807
 6593TIP3    H141194   6.631   3.284   5.361  0.5451  0.2170  0.5933
 6593TIP3    H241195   6.550   3.157   5.377  0.1803  0.5553  1.4818
 6594TIP3   OH241196   1.750   5.343   4.469 -0.5257 -0.4379  0.1527
 6594TIP3    H141197   1.703   5.370   4.391  1.1529 -1.1604 -1.1888
 6594TIP3    H241198   1.750   5.421   4.526 -0.6823  0.5203 -1.1204
 6595TIP3   OH241199   4.336   1.931   5.677 -0.3757 -0.3436 -0.2585
 6595TIP3    H141200   4.362   2.023   5.672 -0.0823 -0.4118  0.0264
 6595TIP3    H241201   4.349   1.899   5.587 -1.3505  0.1210 -0.5769
 6596TIP3   OH241202   5.566   1.155  16.870 -0.1033 -0.5403  0.1189
 6596TIP3    H141203   5.595   1.235  16.827 -1.1611 -0.0023  0.3772
 6596TIP3    H241204   5.640   1.095  16.862  0.6248  0.3929 -0.2545
 6597TIP3   OH241205   4.395   1.913  16.430 -0.0687  0.1465  1.1833
 6597TIP3    H141206   4.451   1.988  16.446  1.4380 -0.5822 -0.3598
 6597TIP3    H241207   4.394   1.865  16.513  1.8266  0.0641  1.2037
 6598TIP3   OH241208   0.986   3.895   3.309 -0.0177  0.0929  0.4067
 6598TIP3    H141209   1.046   3.871   3.239  0.2295  0.2821  0.5507
 6598TIP3    H241210   0.900   3.871   3.276  0.1725 -0.5003  0.3438
 6599TIP3   OH241211   5.485   0.984   5.046  0.5103  0.1730  0.2046
 6599TIP3    H141212   5.470   0.936   4.965 -1.3181 -1.4255  1.3971
 6599TIP3    H241213   5.566   0.948   5.082 -0.2653 -1.3160  0.5368
 6600TIP3   OH241214   6.004   3.710   5.514  0.0270  0.2810  0.0796
 6600TIP3    H141215   6.017   3.727   5.607 -0.0000 -0.7347  0.2804
 6600TIP3    H241216   5.979   3.618   5.510  1.0878  0.0212 -1.0311
 6601TIP3   OH241217   2.353   1.607   1.205 -0.3448  0.4476 -0.5614
 6601TIP3    H141218   2.303   1.583   1.283 -0.2504  1.3330 -0.2197
 6601TIP3    H241219   2.415   1.534   1.193  0.2270  0.6938  0.7036
 6602TIP3   OH241220   0.815   3.083  12.911  0.1592 -0.1848  0.3196
 6602TIP3    H141221   0.741   3.106  12.967  0.7824  0.1556  1.0141
 6602TIP3    H241222   0.880   3.152  12.927  0.9505 -0.9131  0.3307
 6603TIP3   OH241223   5.835   2.047   3.887 -0.4007 -0.1007 -0.1993
 6603TIP3    H141224   5.779   2.125   3.885  1.0224  0.9783  0.2521
 6603TIP3    H241225   5.907   2.071   3.945  0.7631 -1.2660 -1.1109
 6604TIP3   OH241226   3.774   5.610   2.873 -0.0676 -0.1266 -0.6500
 6604TIP3    H141227   3.768   5.532   2.817 -2.5127 -1.0566  0.7405
 6604TIP3    H241228   3.864   5.608   2.906  0.1287 -1.9971 -1.1482
 6605TIP3   OH241229   3.818   3.934  11.091  0.2641 -0.2683  0.0360
 6605TIP3    H141230   3.784   3.909  11.005  1.7594  1.4164 -1.1403
 6605TIP3    H241231   3.745   3.980  11.132 -0.4698 -1.0749 -0.3342
 6606TIP3   OH241232   6.071   1.177  16.894  0.3206 -0.1912  0.2500
 6606TIP3    H141233   6.039   1.252  16.944 -2.2910 -1.3076  0.4008
 6606TIP3    H241234   6.120   1.124  16.958  0.2998  0.2896  0.6675
 6607TIP3   OH241235   1.599   4.525  16.962  0.5119  0.0496 -0.0698
 6607TIP3    H141236   1.586   4.527  16.867  0.8644  1.4218 -0.1160
 6607TIP3    H241237   1.549   4.450  16.991  0.2330 -0.2795 -1.3244
 6608TIP3   OH241238   5.763   0.067  12.977  0.5317  0.3942 -0.7441
 6608TIP3    H141239   5.834   0.114  13.022  1.0255  0.5453 -1.6497
 6608TIP3    H241240   5.683   0.096  13.020  1.0099  0.3269  0.2047
 6609TIP3   OH241241   4.778   5.469   3.061 -0.3463 -0.1493 -0.0096
 6609TIP3    H141242   4.768   5.386   3.108 -0.5327 -0.2204 -0.1721
 6609TIP3    H241243   4.868   5.495   3.078 -0.2633 -0.4234 -0.0146
 6610TIP3   OH241244   6.630   0.196  10.643 -0.2182 -0.1670  0.0076
 6610TIP3    H141245   6.578   0.261  10.596  1.6233  2.9170  1.8733
 6610TIP3    H241246   6.721   0.220  10.626  0.5842 -2.3914  0.7061
 6611TIP3   OH241247   2.103   5.350   5.645 -0.4517 -0.8017  0.2862
 6611TIP3    H141248   2.131   5.382   5.730  0.7417  0.3435 -0.4977
 6611TIP3    H241249   2.183   5.324   5.601 -0.7654  0.7130 -1.2943
 6612TIP3   OH241250   5.908   6.754  15.467 -0.1429  0.2063  0.3528
 6612TIP3    H141251   5.816   6.737  15.447  0.1162 -1.6139  0.4880
 6612TIP3    H241252   5.956   6.695  15.409  0.9413  1.0536  0.3704
 6613TIP3   OH241253   5.601   3.208  15.320 -0.0970  0.6522 -0.2234
 6613TIP3    H141254   5.550   3.194  15.401 -1.9337 -2.0123 -1.6931
 6613TIP3    H241255   5.590   3.302  15.301 -0.3437  1.1592  2.0987
 6614TIP3   OH241256   0.008   6.640  11.550  0.5153 -0.2206 -0.4890
 6614TIP3    H141257   0.101   6.642  11.527  0.3646 -1.4835 -1.3441
 6614TIP3    H241258  -0.011   6.547  11.565 -0.5631  0.0349 -0.1629
 6615TIP3   OH241259   0.225   0.597  15.629 -0.1919  0.1437  0.3591
 6615TIP3    H141260   0.254   0.554  15.549 -2.9610  0.9859 -1.2273
 6615TIP3    H241261   0.139   0.559  15.648 -2.1174  3.6887 -0.2851
 6616TIP3   OH241262   2.257   2.136   1.838 -0.1447 -0.0767  0.2132
 6616TIP3    H141263   2.228   2.224   1.817  4.3645  1.3176 -1.4685
 6616TIP3    H241264   2.235   2.084   1.760 -0.8149  0.1116  0.2735
 6617TIP3   OH241265   2.924   5.558   5.317  0.3488 -0.6315  0.0157
 6617TIP3    H141266   2.875   5.632   5.353 -0.7259 -1.1959 -0.2529
 6617TIP3    H241267   3.016   5.583   5.328  0.0343  0.0674  1.3397
 6618TIP3   OH241268   5.751   5.430  10.975  0.0886  0.4332 -0.3066
 6618TIP3    H141269   5.678   5.450  11.034  1.4688 -0.8360  1.9615
 6618TIP3    H241270   5.726   5.347  10.935 -0.7178  1.1494 -1.3456
 6619TIP3   OH241271   5.240   3.404  12.039  0.1230  0.5006 -0.3479
 6619TIP3    H141272   5.268   3.323  12.083  1.1767  1.0375 -0.0041
 6619TIP3    H241273   5.244   3.383  11.946 -0.0109  0.0392 -0.2543
 6620TIP3   OH241274   0.384   5.803  17.292 -0.8376 -0.7307  0.1362
 6620TIP3    H141275   0.394   5.765  17.379 -0.3613  0.6860  0.7129
 6620TIP3    H241276   0.342   5.733  17.241 -1.7390 -1.3561  1.6541
 6621TIP3   OH241277   2.605   1.748   5.616  0.0855 -0.3521 -0.3956
 6621TIP3    H141278   2.586   1.667   5.569 -1.1290 -1.5483  1.9942
 6621TIP3    H241279   2.542   1.749   5.688  1.3132  1.7912  0.7336
 6622TIP3   OH241280   0.982   6.409  13.877  0.5757 -0.3151 -0.2277
 6622TIP3    H141281   0.939   6.439  13.957  0.6663  0.0919 -0.3252
 6622TIP3    H241282   0.921   6.433  13.807  1.7518  2.0490 -0.5686
 6623TIP3   OH241283   4.948   3.962  14.562 -0.7816  0.3675 -0.2305
 6623TIP3    H141284   4.963   4.002  14.647 -0.9587  1.3448 -0.6505
 6623TIP3    H241285   4.940   3.868  14.580  0.9419  0.3419  0.6167
 6624TIP3   OH241286   5.219   5.566  11.541  0.6832  0.2242  0.2934
 6624TIP3    H141287   5.229   5.474  11.516  0.1788  0.5249 -1.1805
 6624TIP3    H241288   5.142   5.568  11.597  0.4272 -0.2141 -0.0375
 6625TIP3   OH241289   5.991   5.094   2.514  0.1932 -0.0608 -0.3840
 6625TIP3    H141290   5.900   5.064   2.527  0.1770  0.1012 -0.1350
 6625TIP3    H241291   5.982   5.174   2.462  0.1295  0.5377  0.5230
 6626TIP3   OH241292   6.107   6.600  13.287  0.0506 -0.0516 -0.1021
 6626TIP3    H141293   6.091   6.588  13.380  0.5745  2.6769  0.4144
 6626TIP3    H241294   6.137   6.690  13.279 -1.3353  0.2682 -3.0800
 6627TIP3   OH241295   0.415   0.011  13.509 -0.2030  0.0648  0.0869
 6627TIP3    H141296   0.492   0.042  13.557 -0.7309 -2.0706  2.4946
 6627TIP3    H241297   0.441  -0.074  13.474 -1.1283 -0.1881 -0.0151
 6628TIP3   OH241298   0.842   2.343   3.819 -0.2087  0.2121 -0.0065
 6628TIP3    H141299   0.911   2.314   3.759 -0.6222 -0.1614 -0.3147
 6628TIP3    H241300   0.881   2.415   3.869 -0.2250  1.3311 -1.5414
 6629TIP3   OH241301   0.981   5.512  16.049 -0.1759 -0.2112 -0.0497
 6629TIP3    H141302   0.977   5.498  15.955  1.2769 -0.3794 -0.1106
 6629TIP3    H241303   1.060   5.465  16.077  0.3046  1.1464  0.9808
 6630TIP3   OH241304   3.996   4.494   1.251  0.0675 -0.1779 -0.3049
 6630TIP3    H141305   3.960   4.406   1.258  1.3078 -0.6156  0.8419
 6630TIP3    H241306   3.994   4.528   1.341 -1.4809  1.4371 -0.8842
 6631TIP3   OH241307   3.920   5.455  11.427  0.6721  0.7452  0.4106
 6631TIP3    H141308   3.975   5.382  11.400  0.4379  0.5060  0.5770
 6631TIP3    H241309   3.918   5.450  11.522 -0.6974 -0.0458  0.3647
 6632TIP3   OH241310   6.462   6.676   4.608  0.0981  0.1755  0.1045
 6632TIP3    H141311   6.537   6.668   4.667 -0.3746 -0.2334  0.6603
 6632TIP3    H241312   6.443   6.770   4.607 -0.4578  0.0974  1.3453
 6633TIP3   OH241313   3.260   3.740  16.126 -0.2728 -0.1952  0.1853
 6633TIP3    H141314   3.328   3.705  16.069  0.6390  2.0490 -0.2290
 6633TIP3    H241315   3.214   3.663  16.158  2.3513 -1.8414  0.3603
 6634TIP3   OH241316   1.647   0.691  12.134  0.0990 -0.1117  0.0806
 6634TIP3    H141317   1.674   0.668  12.045 -0.2360  1.1333 -0.3658
 6634TIP3    H241318   1.568   0.745  12.122  0.6013  0.8818  1.0688
 6635TIP3   OH241319   2.998   1.190   0.829 -0.3731 -0.3519 -0.1179
 6635TIP3    H141320   2.929   1.137   0.868 -0.2563 -2.2364 -2.2594
 6635TIP3    H241321   2.966   1.210   0.741  1.7575 -1.2203 -1.1383
 6636TIP3   OH241322   5.105   3.429   2.368 -0.2835 -0.4686  0.4567
 6636TIP3    H141323   5.031   3.483   2.340  0.9693  2.0687  1.7346
 6636TIP3    H241324   5.074   3.388   2.449 -0.0471  1.3336  1.5110
 6637TIP3   OH241325   1.667   5.830   1.468  0.6515 -0.0412  0.6550
 6637TIP3    H141326   1.630   5.747   1.438  2.4466 -0.5840 -0.2453
 6637TIP3    H241327   1.630   5.844   1.555 -0.2639 -1.4044  0.5071
 6638TIP3   OH241328   3.616   3.127   5.556  0.2381 -0.5293  0.0452
 6638TIP3    H141329   3.683   3.099   5.493  1.6568  2.3948  0.0832
 6638TIP3    H241330   3.664   3.182   5.618 -1.4786 -1.7742  2.6387
 6639TIP3   OH241331   6.423   2.563   0.979 -0.1665  0.1373  0.0188
 6639TIP3    H141332   6.436   2.516   0.897 -2.5975  1.8253 -1.4426
 6639TIP3    H241333   6.477   2.641   0.971 -1.8155  1.2477 -0.8936
 6640TIP3   OH241334   3.366   0.986   4.857 -0.1894  0.0049 -0.0869
 6640TIP3    H141335   3.461   0.978   4.865 -0.1313  0.6732 -0.0948
 6640TIP3    H241336   3.353   1.055   4.792 -0.6687  0.9849  1.0113
 6641TIP3   OH241337   0.901   2.377  13.331  0.5311 -0.6290 -0.6257
 6641TIP3    H141338   0.969   2.435  13.296 -0.1662  1.9420  1.8022
 6641TIP3    H241339   0.915   2.380  13.426 -0.5124 -3.3657 -0.3005
 6642TIP3   OH241340   1.563   2.296  16.533  0.3833 -0.0758 -0.1947
 6642TIP3    H141341   1.549   2.370  16.592  2.2366 -0.0335  0.2635
 6642TIP3    H241342   1.603   2.229  16.589 -0.3375 -1.0562 -0.8274
 6643TIP3   OH241343   2.652   6.446  14.226  0.4431 -0.1103  0.0238
 6643TIP3    H141344   2.574   6.391  14.222  0.5630 -0.4488  1.6442
 6643TIP3    H241345   2.618   6.535  14.238  0.2602  0.1680 -2.2085
 6644TIP3   OH241346   0.284   2.474   5.357  0.2015  0.3779 -0.2192
 6644TIP3    H141347   0.292   2.543   5.423  1.7096  1.5933 -1.6091
 6644TIP3    H241348   0.296   2.393   5.406  1.0324  1.2289  1.0413
 6645TIP3   OH241349   2.700   0.239  14.176 -0.3195  0.2047 -0.0834
 6645TIP3    H141350   2.661   0.299  14.239  0.7028  0.6540  0.1378
 6645TIP3    H241351   2.680   0.152  14.210 -0.9730  0.4184  0.1042
 6646TIP3   OH241352   1.970   5.215   2.516 -0.1250 -0.6092  0.2575
 6646TIP3    H141353   1.920   5.187   2.593  0.7122  0.7161  1.3325
 6646TIP3    H241354   2.056   5.238   2.551  1.3766 -3.0070 -1.5547
 6647TIP3   OH241355   0.907   0.308  12.547 -0.2912  0.1845 -0.3174
 6647TIP3    H141356   0.918   0.330  12.640 -1.1483  4.7482 -1.0239
 6647TIP3    H241357   0.812   0.294  12.538 -0.0056 -2.0320 -0.2954
 6648TIP3   OH241358   5.242   6.314   5.800 -0.6564 -0.2464 -0.4771
 6648TIP3    H141359   5.228   6.251   5.730 -1.3275  0.1005 -0.6611
 6648TIP3    H241360   5.262   6.396   5.756 -0.9246 -0.0631 -0.2638
 6649TIP3   OH241361   5.034   2.377  13.229  0.3898  0.2721  0.0626
 6649TIP3    H141362   5.100   2.439  13.196  0.5505 -0.5903 -1.3050
 6649TIP3    H241363   4.958   2.432  13.249 -0.0719  0.7966 -2.7080
 6650TIP3   OH241364   2.434   1.675  16.422 -0.0147  0.4358 -0.1118
 6650TIP3    H141365   2.456   1.766  16.444 -0.7268  0.7408 -0.6164
 6650TIP3    H241366   2.519   1.632  16.412  0.3312  0.8829  0.7792
 6651TIP3   OH241367   2.161   6.293   3.730 -0.1423  0.0026 -0.2252
 6651TIP3    H141368   2.076   6.291   3.686 -0.5514 -1.2779  0.5517
 6651TIP3    H241369   2.194   6.203   3.721  0.1426 -0.0741  1.3087
 6652TIP3   OH241370   3.868   5.957  17.190  0.2420 -0.2367 -0.1138
 6652TIP3    H141371   3.960   5.940  17.211  0.4441 -0.4467 -1.0948
 6652TIP3    H241372   3.845   5.888  17.127 -0.2322  0.4922 -0.7591
 6653TIP3   OH241373   5.510   5.784   4.680  0.1080  0.0116 -0.1125
 6653TIP3    H141374   5.595   5.814   4.713 -0.8138  1.6955  0.8768
 6653TIP3    H241375   5.446   5.838   4.726 -1.4970 -0.9120 -1.1570
 6654TIP3   OH241376   5.054   4.154   0.938  0.2266  0.2918  0.2198
 6654TIP3    H141377   5.089   4.078   0.892  1.1623  0.7129  0.2008
 6654TIP3    H241378   4.960   4.139   0.941  0.5653 -1.9674  2.1884
 6655TIP3   OH241379   6.610   1.787   4.877 -0.0663 -0.0474  0.2190
 6655TIP3    H141380   6.582   1.763   4.966 -3.5554  0.9176 -0.4718
 6655TIP3    H241381   6.630   1.880   4.882 -0.2432  0.0028  0.0020
 6656TIP3   OH241382   4.835   4.398  14.467 -0.6548  0.1705  0.2479
 6656TIP3    H141383   4.913   4.429  14.513 -0.6156  0.1952  0.1653
 6656TIP3    H241384   4.866   4.326  14.412 -0.7341  0.0254  0.3929
 6657TIP3   OH241385   0.186   5.784  12.923  0.1866  0.1950  0.1040
 6657TIP3    H141386   0.239   5.706  12.907 -2.0108 -1.0469 -1.5739
 6657TIP3    H241387   0.193   5.835  12.842  0.0383  0.7808  0.4536
 6658TIP3   OH241388   6.141   4.343   0.676 -0.2306  0.1842 -0.4265
 6658TIP3    H141389   6.189   4.277   0.725 -0.1783  0.2128 -0.4391
 6658TIP3    H241390   6.172   4.333   0.586  2.2766  2.4022  0.0636
 6659TIP3   OH241391   4.029   5.916  15.779 -0.3112  0.3961 -0.5481
 6659TIP3    H141392   3.967   5.845  15.796  0.5864 -0.1377  0.6172
 6659TIP3    H241393   4.096   5.876  15.723  1.6827 -0.5727  2.3121
 6660TIP3   OH241394   2.629   1.081   3.221 -0.3652 -0.4709  0.3742
 6660TIP3    H141395   2.692   1.063   3.290  0.6800 -0.1077 -0.4473
 6660TIP3    H241396   2.599   1.170   3.238  3.0854  1.3748 -1.8909
 6661TIP3   OH241397   1.121   0.772   4.487 -0.3971 -0.1979  0.3399
 6661TIP3    H141398   1.207   0.738   4.509 -0.3041 -0.4172 -0.3399
 6661TIP3    H241399   1.136   0.828   4.411 -0.4553  1.8280  1.7173
 6662TIP3   OH241400   0.658   4.546   3.771 -0.5471 -0.8196 -0.4135
 6662TIP3    H141401   0.606   4.528   3.849 -0.4761 -2.5833 -0.7442
 6662TIP3    H241402   0.616   4.622   3.731  0.1588  0.9436  1.9687
 6663TIP3   OH241403   6.236   5.572   5.464  0.0652 -0.1744 -0.1649
 6663TIP3    H141404   6.238   5.598   5.556 -1.3287 -0.2875 -0.0719
 6663TIP3    H241405   6.327   5.552   5.442  0.4288 -0.0646  1.1562
 6664TIP3   OH241406   6.110   3.605  17.354 -0.2642  0.4076 -0.1410
 6664TIP3    H141407   6.165   3.529  17.372  0.4240  0.9948  0.2844
 6664TIP3    H241408   6.163   3.680  17.381 -0.2400  1.1680 -2.1559
 6665TIP3   OH241409   4.789   2.897   0.897  0.1398  0.3502  0.1485
 6665TIP3    H141410   4.703   2.855   0.901  0.3910 -0.1895  0.0010
 6665TIP3    H241411   4.787   2.947   0.815 -0.2067  0.7313  0.3864
 6666TIP3   OH241412   5.285   2.203   5.286 -0.7495 -0.2126  0.2799
 6666TIP3    H141413   5.304   2.277   5.229 -1.6104  0.5991  1.0221
 6666TIP3    H241414   5.365   2.191   5.336 -0.4768 -0.0281 -0.1042
 6667TIP3   OH241415   0.280   2.151   5.961 -0.0945  0.4253  1.6922
 6667TIP3    H141416   0.192   2.117   5.974  0.0455 -1.8982 -2.0087
 6667TIP3    H241417   0.335   2.096   6.018 -0.7025 -0.6001  1.3189
 6668TIP3   OH241418   0.994   0.138   6.273 -0.0839  0.7033  0.1959
 6668TIP3    H141419   1.024   0.060   6.226  0.1723  1.9214 -1.7871
 6668TIP3    H241420   0.905   0.153   6.240 -0.7166  0.4359  1.6892
 6669TIP3   OH241421   1.752   5.042  15.873  0.7806  0.0299 -0.3452
 6669TIP3    H141422   1.700   5.078  15.801  1.9330 -1.3389 -1.9577
 6669TIP3    H241423   1.695   5.048  15.950 -0.4982  1.5479 -1.3598
 6670TIP3   OH241424   1.599   4.326  12.158  0.1389  0.8405 -0.3804
 6670TIP3    H141425   1.603   4.284  12.072 -0.1675  1.0841 -0.5116
 6670TIP3    H241426   1.568   4.257  12.217 -0.5333  0.9266 -0.6269
 6671TIP3   OH241427   0.910   5.533  13.992  0.2048 -0.0999 -1.0946
 6671TIP3    H141428   0.835   5.498  13.944  0.7106 -1.3909 -0.9926
 6671TIP3    H241429   0.983   5.525  13.931  0.2701  1.1866 -1.2089
 6672TIP3   OH241430   2.682   2.142   1.588  0.4003 -0.1054 -0.4697
 6672TIP3    H141431   2.706   2.068   1.532  1.6416  0.5256 -0.8095
 6672TIP3    H241432   2.706   2.114   1.677 -1.0785 -0.9005 -0.2925
 6673TIP3   OH241433   6.220   1.531  12.901 -0.3320  0.5004 -0.2781
 6673TIP3    H141434   6.254   1.617  12.875  1.5665 -0.4127 -1.0220
 6673TIP3    H241435   6.153   1.510  12.836  0.6622  0.5377 -1.3468
 6674TIP3   OH241436   4.118   5.492   3.168 -0.2321  0.6400  0.3556
 6674TIP3    H141437   4.133   5.424   3.234 -0.5904 -0.2724 -0.4812
 6674TIP3    H241438   4.029   5.522   3.185 -0.9560 -0.7893 -0.7469
 6675TIP3   OH241439   6.100   5.567  15.176 -0.7310  0.3421 -0.4592
 6675TIP3    H141440   6.114   5.482  15.219 -0.0145  1.0163  0.6921
 6675TIP3    H241441   6.097   5.546  15.083  0.4158 -0.8498 -0.2653
 6676TIP3   OH241442   5.517   4.267  13.399  0.7373  0.1997 -0.5879
 6676TIP3    H141443   5.577   4.303  13.464 -0.4392  1.0951  0.0327
 6676TIP3    H241444   5.472   4.196  13.445 -1.3150  1.9147  0.1886
 6677TIP3   OH241445   2.976   1.989  17.154  0.1536 -0.4175  0.5047
 6677TIP3    H141446   2.883   1.989  17.178 -0.1096  0.9830 -0.3922
 6677TIP3    H241447   3.022   2.003  17.236 -0.4335 -1.0006  0.9423
 6678TIP3   OH241448   4.426   3.543  13.657  0.6292  0.9701 -0.0821
 6678TIP3    H141449   4.393   3.594  13.583 -1.9561 -0.8958 -0.3650
 6678TIP3    H241450   4.432   3.453  13.623 -0.3196  0.1221  1.8329
 6679TIP3   OH241451   6.073   5.629  12.787 -0.2631  0.5743  0.6136
 6679TIP3    H141452   6.054   5.705  12.731 -0.4130  0.3839  0.4029
 6679TIP3    H241453   6.116   5.666  12.864  0.2865  0.8051  0.2073
 6680TIP3   OH241454   5.612   2.080  16.741 -0.9057 -0.1585 -0.5632
 6680TIP3    H141455   5.528   2.125  16.747 -1.3666 -1.0587 -0.0446
 6680TIP3    H241456   5.589   1.988  16.731  0.0259 -0.3734 -0.8342
 6681TIP3   OH241457   1.593   0.351   1.053 -0.2651  0.0679  0.2722
 6681TIP3    H141458   1.532   0.413   1.014 -0.7964  0.8395  2.1747
 6681TIP3    H241459   1.582   0.271   1.002 -1.7964  0.6382 -0.3595
 6682TIP3   OH241460   3.283   6.271   4.077 -0.4011 -0.0375  0.2026
 6682TIP3    H141461   3.257   6.350   4.029  0.6970  0.0211 -0.3318
 6682TIP3    H241462   3.321   6.303   4.158 -0.4087 -0.0385  0.2065
 6683TIP3   OH241463   3.791   0.584  12.830 -0.3062 -0.2734  0.3297
 6683TIP3    H141464   3.850   0.562  12.758  0.7932  0.8388  0.8253
 6683TIP3    H241465   3.761   0.500  12.864 -0.4910 -0.8176 -1.1262
 6684TIP3   OH241466   1.535   4.627  13.219 -0.1967 -0.3362  0.4312
 6684TIP3    H141467   1.460   4.659  13.167 -1.4073 -0.4681  2.0117
 6684TIP3    H241468   1.495   4.593  13.299  1.5742 -0.5761  1.2471
 6685TIP3   OH241469   1.253   1.158  16.308 -0.4246 -0.5622  0.1457
 6685TIP3    H141470   1.297   1.189  16.229 -1.4504 -1.2581 -0.7293
 6685TIP3    H241471   1.315   1.176  16.379  0.7179 -0.3591 -0.8735
 6686TIP3   OH241472   2.376   1.846   4.995  0.6237 -0.0701  0.2561
 6686TIP3    H141473   2.456   1.898   4.999  0.5194  0.4227 -2.4365
 6686TIP3    H241474   2.398   1.764   5.040  1.8987  0.9013  1.4959
 6687TIP3   OH241475   5.000   6.503  11.777 -0.1695  0.7222 -0.2573
 6687TIP3    H141476   4.985   6.540  11.864 -0.4021  0.6880 -0.2813
 6687TIP3    H241477   5.029   6.577  11.724 -2.9472  1.4591 -0.9274
 6688TIP3   OH241478   5.326   0.949  16.711  0.3748  0.1740  0.2648
 6688TIP3    H141479   5.360   0.885  16.774  0.0058  2.3692  2.8988
 6688TIP3    H241480   5.384   1.025  16.721 -1.7656  1.8515  0.5391
 6689TIP3   OH241481   1.162   2.080   0.287  0.1004  0.2411  0.0682
 6689TIP3    H141482   1.196   2.117   0.369 -0.0657  2.3852 -0.7679
 6689TIP3    H241483   1.078   2.041   0.311  1.2080 -1.5069  1.3772
 6690TIP3   OH241484   6.710   2.832  10.933 -0.5870  0.0152 -0.2431
 6690TIP3    H141485   6.768   2.816  11.008 -0.0234 -0.3283 -0.7486
 6690TIP3    H241486   6.647   2.896  10.966  0.5900  1.0725  0.0581
 6691TIP3   OH241487   2.884   3.692   1.856  0.0869  0.8125  0.2491
 6691TIP3    H141488   2.940   3.634   1.805  0.9570  0.6558  1.3541
 6691TIP3    H241489   2.908   3.780   1.827  0.9555  0.7480  0.7333
 6692TIP3   OH241490   2.776   3.391  15.959  0.1344  0.4056  0.0178
 6692TIP3    H141491   2.804   3.302  15.980  1.2736  0.9399  0.8413
 6692TIP3    H241492   2.815   3.408  15.873  3.0515  1.3553  1.3958
 6693TIP3   OH241493   2.296   5.499  16.560 -0.3216  0.3090 -0.1584
 6693TIP3    H141494   2.309   5.473  16.469  0.1812 -0.2697  0.0777
 6693TIP3    H241495   2.382   5.490  16.601 -0.9244 -1.3464  0.8482
 6694TIP3   OH241496   3.949   3.379   4.492  0.5724  0.2463 -0.6928
 6694TIP3    H141497   3.929   3.471   4.480 -0.2883  0.3257  1.0925
 6694TIP3    H241498   3.989   3.373   4.579 -0.5573 -1.1954 -0.2149
 6695TIP3   OH241499   5.575   4.112  16.339 -0.8005  0.0432 -0.0053
 6695TIP3    H141500   5.659   4.076  16.311 -0.2804 -0.3460  1.9429
 6695TIP3    H241501   5.552   4.174  16.269 -1.1564 -3.0545 -2.8782
 6696TIP3   OH241502   3.853   2.306   5.534 -0.3086  0.0623  0.2403
 6696TIP3    H141503   3.854   2.399   5.511 -0.5746 -0.2876 -1.2884
 6696TIP3    H241504   3.791   2.267   5.472  1.2736 -1.4502 -0.4711
 6697TIP3   OH241505   5.226   0.793   5.571 -0.6794  0.1580 -0.5193
 6697TIP3    H141506   5.248   0.703   5.598  1.8314  0.9285  0.3012
 6697TIP3    H241507   5.149   0.815   5.622  0.2527 -0.6411  1.3544
 6698TIP3   OH241508   0.729   0.040  12.645  0.0204  0.4788 -0.4352
 6698TIP3    H141509   0.659   0.018  12.583 -0.4809  0.4007  0.1388
 6698TIP3    H241510   0.683   0.085  12.716  0.2930 -1.0477  0.7521
 6699TIP3   OH241511   0.587   0.082   3.208  0.0098 -0.5251 -0.1894
 6699TIP3    H141512   0.566   0.155   3.267 -0.4884 -0.8351  0.0222
 6699TIP3    H241513   0.608   0.010   3.267 -0.1154 -0.7304 -0.3967
 6700TIP3   OH241514   1.069   0.655   6.291 -0.3615  0.4901  0.2901
 6700TIP3    H141515   1.017   0.727   6.324  0.4916  1.7431 -0.9857
 6700TIP3    H241516   1.119   0.692   6.218 -0.6254 -1.6230 -1.0676
 6701TIP3   OH241517   1.349   1.702   5.248  0.1781 -0.0649  0.2302
 6701TIP3    H141518   1.387   1.790   5.246  1.7153 -0.6927 -0.3715
 6701TIP3    H241519   1.300   1.695   5.166  0.2007  0.1651  0.1964
 6702TIP3   OH241520   1.213   1.584  14.870 -0.1012 -0.5225 -0.1400
 6702TIP3    H141521   1.235   1.666  14.826 -0.1546 -0.4135  0.0342
 6702TIP3    H241522   1.256   1.591  14.955  1.7190 -1.5886 -0.9036
 6703TIP3   OH241523   0.474   3.861  12.047 -0.0214 -0.0650 -0.9722
 6703TIP3    H141524   0.466   3.770  12.019 -0.9191 -0.8067  1.4409
 6703TIP3    H241525   0.426   3.865  12.130 -0.4974  2.7515 -1.2815
 6704TIP3   OH241526   4.958   0.173  15.602 -0.0119 -0.8311  0.2770
 6704TIP3    H141527   4.883   0.216  15.644 -0.1833 -0.2197 -0.6195
 6704TIP3    H241528   5.007   0.245  15.562 -0.5246 -1.4918 -1.6049
 6705TIP3   OH241529   4.512   1.124   2.082  0.4068 -0.0195 -0.3575
 6705TIP3    H141530   4.584   1.070   2.051  0.9107  2.1685 -3.5644
 6705TIP3    H241531   4.433   1.075   2.056  0.7562 -0.9028  0.1974
 6706TIP3   OH241532   3.394   4.628  11.465 -0.2028  0.0504  0.2741
 6706TIP3    H141533   3.431   4.686  11.399  0.8029 -0.9210 -0.0567
 6706TIP3    H241534   3.299   4.631  11.450 -0.2011  1.8119  0.4801
 6707TIP3   OH241535   1.956   4.326   3.776  0.0656 -0.0434  0.5490
 6707TIP3    H141536   1.877   4.277   3.798 -0.0564 -0.2217 -0.2592
 6707TIP3    H241537   1.961   4.395   3.842 -0.3396 -0.5001  1.0664
 6708TIP3   OH241538   2.108   5.785  16.209  0.1701  0.3698  1.0384
 6708TIP3    H141539   2.131   5.706  16.257 -0.4890  0.3490  1.3242
 6708TIP3    H241540   2.177   5.848  16.232  1.7343 -0.6481 -0.6042
 6709TIP3   OH241541   0.196   2.851   2.995 -0.1505 -0.1203 -0.4058
 6709TIP3    H141542   0.113   2.822   2.956  0.9528 -2.7127 -1.0294
 6709TIP3    H241543   0.200   2.804   3.078  1.0681 -0.7281 -0.7868
 6710TIP3   OH241544   2.237   3.967  16.162 -0.0264 -0.5018 -0.3989
 6710TIP3    H141545   2.220   4.016  16.081  2.8598  0.9585 -0.2640
 6710TIP3    H241546   2.287   3.891  16.134 -1.0613 -1.2800 -0.1837
 6711TIP3   OH241547   1.367   3.777   5.528  1.0239  0.4025 -0.2440
 6711TIP3    H141548   1.345   3.867   5.552 -3.3387 -0.2076 -1.1462
 6711TIP3    H241549   1.355   3.727   5.609  1.4234  0.3430 -0.2197
 6712TIP3   OH241550   2.427   4.428  11.575 -0.2897 -0.0759 -0.4496
 6712TIP3    H141551   2.366   4.437  11.502  0.1123  2.6800 -0.5194
 6712TIP3    H241552   2.514   4.436  11.536 -0.0789  1.7166  0.2902
 6713TIP3   OH241553   6.200   5.821   1.879  0.0120 -0.0224 -0.4639
 6713TIP3    H141554   6.126   5.830   1.819 -1.6356 -0.2551  1.4382
 6713TIP3    H241555   6.237   5.909   1.886 -1.2990  0.5035  0.0228
 6714TIP3   OH241556   4.402   1.245  12.667 -0.0232  1.3082  0.1179
 6714TIP3    H141557   4.332   1.270  12.728 -1.3677 -0.4706 -0.6030
 6714TIP3    H241558   4.356   1.200  12.596  1.8502  0.1768 -0.4322
 6715TIP3   OH241559   2.327   3.070  12.903  0.2445  0.5340  0.2104
 6715TIP3    H141560   2.327   3.100  12.994 -1.9610  0.7602  0.1733
 6715TIP3    H241561   2.380   2.990  12.905  0.3717  0.6303  1.6637
 6716TIP3   OH241562   0.190   0.984   3.520  0.1986 -0.0946  0.3395
 6716TIP3    H141563   0.219   1.030   3.599  2.1907  0.3272 -0.5672
 6716TIP3    H241564   0.128   1.044   3.478 -1.3460 -0.5784  1.8362
 6717TIP3   OH241565   2.078   0.504  14.601  0.1384  0.5134 -0.7867
 6717TIP3    H141566   2.168   0.506  14.568 -0.5453  0.8073 -2.7660
 6717TIP3    H241567   2.050   0.413  14.590  0.9571 -0.2153  2.2355
 6718TIP3   OH241568   3.527   6.261   1.528  0.1616 -0.2306  0.1728
 6718TIP3    H141569   3.483   6.234   1.609  0.0624 -1.2916 -0.2259
 6718TIP3    H241570   3.619   6.236   1.541 -0.1481 -1.9106 -0.6733
 6719TIP3   OH241571   0.453   5.589  14.825 -0.5538 -0.4118 -0.2281
 6719TIP3    H141572   0.507   5.525  14.778  0.1982 -1.9016  2.4654
 6719TIP3    H241573   0.363   5.556  14.816 -0.2361 -1.5649  0.6356
 6720TIP3   OH241574   0.361   1.077  16.462  0.3185  0.0335  0.7735
 6720TIP3    H141575   0.453   1.053  16.478  0.6874  0.2506 -0.8230
 6720TIP3    H241576   0.321   0.996  16.430  0.5622  0.4824 -0.7583
 6721TIP3   OH241577   6.013   4.901  11.577  0.0190  0.0443  0.3880
 6721TIP3    H141578   5.961   4.977  11.602 -1.5894 -0.1630 -1.9703
 6721TIP3    H241579   6.095   4.937  11.543 -0.6481  0.7494 -0.5141
 6722TIP3   OH241580   1.052   6.289  15.105 -0.1234  0.3717  0.2201
 6722TIP3    H141581   1.042   6.281  15.200  4.2075  2.4349  1.1058
 6722TIP3    H241582   0.995   6.362  15.081  0.6456  1.5682  1.8094
 6723TIP3   OH241583   0.556   1.185  12.987 -0.6152  0.4030 -0.4819
 6723TIP3    H141584   0.466   1.155  13.003 -0.6729 -1.4336 -3.3690
 6723TIP3    H241585   0.560   1.272  13.026 -3.6409  0.5309 -0.2082
 6724TIP3   OH241586   2.928   5.572  11.708  0.1282  0.4849 -0.5455
 6724TIP3    H141587   2.951   5.537  11.794 -1.4043  2.3365  0.7033
 6724TIP3    H241588   2.924   5.495  11.651  1.7977 -0.7148  0.8523
 6725TIP3   OH241589   2.271   0.039  14.241 -0.1888  0.4111 -0.7731
 6725TIP3    H141590   2.314   0.017  14.158 -0.0774  0.6203 -0.7734
 6725TIP3    H241591   2.216  -0.036  14.261  1.4212 -0.6084  0.0618
 6726TIP3   OH241592   4.190   0.481  11.558  0.7486 -0.0543  0.4107
 6726TIP3    H141593   4.206   0.492  11.652  1.9230 -1.4032  0.3895
 6726TIP3    H241594   4.159   0.391  11.548 -1.2319  0.6492 -0.3058
 6727TIP3   OH241595   2.975   6.490  16.545  0.4465 -0.5187  0.6821
 6727TIP3    H141596   3.011   6.442  16.620  0.1980  0.3441  1.3786
 6727TIP3    H241597   3.046   6.490  16.481  2.1131  1.8379  2.3216
 6728TIP3   OH241598   2.536   0.405  15.064 -0.2206 -0.2621 -0.4519
 6728TIP3    H141599   2.578   0.385  15.148  1.9094 -1.1949 -1.6668
 6728TIP3    H241600   2.455   0.450  15.088  0.3665 -0.4195  2.0921
 6729TIP3   OH241601   3.215   1.674  16.462  0.4152 -1.0610 -0.2778
 6729TIP3    H141602   3.309   1.677  16.479  0.3957 -0.5003 -0.2652
 6729TIP3    H241603   3.177   1.737  16.523  0.1585 -0.4002 -1.0902
 6730TIP3   OH241604   2.557   1.980   5.279  0.5208 -0.1909  0.6535
 6730TIP3    H141605   2.614   1.924   5.226 -0.1532 -1.4542  1.2224
 6730TIP3    H241606   2.598   2.066   5.275  0.4604 -0.1946 -1.9721
 6731TIP3   OH241607   2.248   5.157  13.340  0.3890  0.1014 -0.5476
 6731TIP3    H141608   2.272   5.213  13.267  0.8203 -1.9287 -2.0456
 6731TIP3    H241609   2.256   5.214  13.417 -0.0567  2.3030 -2.0205
 6732TIP3   OH241610   5.642   1.450   2.700  0.3152 -0.1785 -0.2743
 6732TIP3    H141611   5.664   1.357   2.712  0.4341 -0.0624  0.4634
 6732TIP3    H241612   5.592   1.453   2.619  1.6885 -0.6778 -1.1761
 6733TIP3   OH241613   2.084   3.837   0.067 -0.3777 -0.3085 -0.2835
 6733TIP3    H141614   2.070   3.924   0.105  0.6689  0.0674 -0.6938
 6733TIP3    H241615   2.012   3.826   0.006 -0.6647  0.1705 -0.0394
 6734TIP3   OH241616   5.663   3.900   2.160 -0.1821  0.2076  0.3042
 6734TIP3    H141617   5.755   3.885   2.179 -0.4581 -0.4205  1.1677
 6734TIP3    H241618   5.621   3.814   2.172 -1.1258  0.7938  1.4143
 6735TIP3   OH241619   3.461   4.455   2.003  0.4707 -0.0302  0.0881
 6735TIP3    H141620   3.477   4.530   1.945  0.7837  0.3407  0.6486
 6735TIP3    H241621   3.378   4.477   2.046  0.3947 -0.1642  0.0110
 6736TIP3   OH241622   1.175   6.367  11.708  0.3928 -0.1899  0.2040
 6736TIP3    H141623   1.146   6.458  11.721  1.7809  0.3544 -0.3849
 6736TIP3    H241624   1.144   6.321  11.786 -2.0379  0.3248 -0.3659
 6737TIP3   OH241625   0.614   0.023   4.796  0.4703 -0.1148 -0.2215
 6737TIP3    H141626   0.677   0.087   4.762 -0.6223  0.0086 -2.2095
 6737TIP3    H241627   0.572  -0.012   4.717 -2.8527  0.7616  1.0039
 6738TIP3   OH241628   5.880   0.231   4.412  0.6017  0.2025  0.2499
 6738TIP3    H141629   5.970   0.208   4.434  0.6856 -1.4121 -1.5512
 6738TIP3    H241630   5.888   0.297   4.343  0.5641 -2.0917 -2.1208
 6739TIP3   OH241631   4.483   6.347  14.537 -0.3224 -0.5637  0.1639
 6739TIP3    H141632   4.439   6.397  14.469  2.1498  2.1371  0.3556
 6739TIP3    H241633   4.537   6.284  14.490 -0.9852 -0.8671 -0.2051
 6740TIP3   OH241634   3.915   6.131   4.456  0.2222  0.4052  0.3690
 6740TIP3    H141635   3.824   6.152   4.474  0.1718  0.3340  0.1980
 6740TIP3    H241636   3.965   6.187   4.515  0.1453  1.9765 -0.9861
 6741TIP3   OH241637   3.577   0.496   6.762 -0.1429 -0.0982  0.3772
 6741TIP3    H141638   3.530   0.579   6.760 -1.1604 -0.6536  0.6508
 6741TIP3    H241639   3.553   0.452   6.681  1.6917  0.5479 -0.5600
 6742TIP3   OH241640   2.069   3.083   1.215  0.3811 -0.1096 -0.4199
 6742TIP3    H141641   2.089   3.177   1.213  1.9201 -0.4236 -0.8535
 6742TIP3    H241642   2.150   3.042   1.247 -1.0382 -1.1195  2.2032
 6743TIP3   OH241643   6.585   1.802  12.267  0.0056  1.0447  0.3012
 6743TIP3    H141644   6.557   1.711  12.251  0.2628  1.1980 -1.1981
 6743TIP3    H241645   6.513   1.841  12.316 -0.6850  0.3589 -0.1360
 6744TIP3   OH241646   1.953   5.496   5.273  0.2546  0.4145 -0.1891
 6744TIP3    H141647   1.881   5.474   5.332 -0.7557  1.8292 -0.8355
 6744TIP3    H241648   1.973   5.588   5.292  2.1609 -0.0416  0.2196
 6745TIP3   OH241649   0.457   3.826   2.625  0.1832 -0.3204 -0.6018
 6745TIP3    H141650   0.408   3.825   2.707  1.4051 -1.9958  0.1805
 6745TIP3    H241651   0.400   3.871   2.563 -1.7764 -1.0788  0.5560
 6746TIP3   OH241652   5.221   3.757  12.834 -0.3124 -0.2231 -0.7135
 6746TIP3    H141653   5.265   3.793  12.911 -0.0469 -0.8244 -0.5772
 6746TIP3    H241654   5.221   3.663  12.848 -1.2988 -0.2709 -0.8990
 6747TIP3   OH241655   1.659   0.419   4.618 -0.2840 -0.1605 -0.4606
 6747TIP3    H141656   1.647   0.446   4.709 -0.8149 -0.6327 -0.3802
 6747TIP3    H241657   1.750   0.441   4.597  0.1227 -0.8973  0.4794
 6748TIP3   OH241658   5.319   4.260  17.379 -0.3859 -0.1542 -0.1659
 6748TIP3    H141659   5.334   4.239  17.471 -2.2492  0.0274  0.2173
 6748TIP3    H241660   5.406   4.274  17.343  0.3248  3.5431  2.4440
 6749TIP3   OH241661   3.259   0.195  17.114  0.1405  1.0150  0.6208
 6749TIP3    H141662   3.341   0.201  17.065 -0.6452  0.3887 -0.8267
 6749TIP3    H241663   3.220   0.282  17.107  0.3769  1.1288  0.7403
 6750TIP3   OH241664   6.736   3.109  14.086  0.0584 -0.4483 -0.4233
 6750TIP3    H141665   6.676   3.051  14.040 -0.3056  0.0580 -0.5916
 6750TIP3    H241666   6.789   3.051  14.141 -0.0938 -0.9650 -0.8248
 6751TIP3   OH241667   4.591   2.448   3.668 -0.0907  0.5588 -0.0687
 6751TIP3    H141668   4.575   2.355   3.654 -0.0408  0.4962  0.2669
 6751TIP3    H241669   4.555   2.491   3.591 -1.1125  0.3529  0.2732
 6752TIP3   OH241670   5.314   3.072  12.855  0.0247  0.5528  0.3400
 6752TIP3    H141671   5.398   3.031  12.836  0.1439  1.1478 -0.4584
 6752TIP3    H241672   5.302   3.136  12.785 -0.2780  1.7123  1.4184
 6753TIP3   OH241673   0.330   2.139   3.789 -0.1122  0.2888  0.3199
 6753TIP3    H141674   0.421   2.154   3.814 -0.0944  0.1565  0.3337
 6753TIP3    H241675   0.295   2.227   3.771  0.6448  0.2179 -1.8660
 6754TIP3   OH241676   4.813   3.294  14.038 -0.0962  0.4125 -0.2186
 6754TIP3    H141677   4.729   3.254  14.015 -0.0387  0.7053 -0.9760
 6754TIP3    H241678   4.791   3.366  14.097 -0.2080 -0.6637  1.1226
 6755TIP3   OH241679   3.744   0.791  11.587 -0.7808  0.5526 -0.4738
 6755TIP3    H141680   3.829   0.801  11.630 -1.2381  0.0509  0.5827
 6755TIP3    H241681   3.750   0.846  11.509  0.6647  0.1892 -0.6510
 6756TIP3   OH241682   3.655   6.161   5.107  0.5895 -0.8913  0.0588
 6756TIP3    H141683   3.565   6.154   5.139  1.0258 -1.5384  1.2145
 6756TIP3    H241684   3.661   6.249   5.070 -0.7554 -1.1467 -0.8185
 6757TIP3   OH241685   0.929   5.982  15.644  0.3717 -0.0908 -0.1032
 6757TIP3    H141686   0.940   6.076  15.664  1.1958  0.1059 -1.3835
 6757TIP3    H241687   0.995   5.964  15.577  1.1705 -1.9242  1.0958
 6758TIP3   OH241688   1.809   3.005  12.491  1.0000 -0.4097 -0.0877
 6758TIP3    H141689   1.903   3.020  12.499  0.7951  1.3502 -0.6604
 6758TIP3    H241690   1.783   3.052  12.411 -0.6882  0.8759  1.1390
 6759TIP3   OH241691   0.456   1.649  14.325  0.2229  0.1702  0.2538
 6759TIP3    H141692   0.423   1.724  14.374 -1.1537 -1.1057  1.3568
 6759TIP3    H241693   0.460   1.680  14.234  0.7347  1.8855  0.8240
 6760TIP3   OH241694   2.515   3.385   3.206  0.6466 -0.5962 -0.7598
 6760TIP3    H141695   2.484   3.433   3.129  0.2505  0.4037  0.0047
 6760TIP3    H241696   2.589   3.436   3.239 -0.5224  0.2124  0.7611
 6761TIP3   OH241697   0.532   3.148  14.656  0.0543 -0.4502  0.6301
 6761TIP3    H141698   0.449   3.196  14.656 -0.3271 -1.0744 -0.3909
 6761TIP3    H241699   0.565   3.157  14.566  0.8781 -0.5927  0.9052
 6762TIP3   OH241700   3.113   3.117  13.815 -0.1283  0.0222 -0.1912
 6762TIP3    H141701   3.055   3.045  13.836  0.3785  0.0165  1.2859
 6762TIP3    H241702   3.150   3.095  13.729  0.8045 -1.9893  0.6801
 6763TIP3   OH241703   4.233   4.451  11.175 -0.6929  0.7034  0.6500
 6763TIP3    H141704   4.146   4.423  11.148 -1.3507  2.4921  0.7978
 6763TIP3    H241705   4.293   4.402  11.118 -1.8226  0.2898 -0.2165
 6764TIP3   OH241706   4.435   5.361  13.084 -0.1225 -0.4578  0.2465
 6764TIP3    H141707   4.366   5.323  13.031 -0.0741  1.3992 -1.2228
 6764TIP3    H241708   4.417   5.329  13.173 -0.1195 -3.7716 -0.8068
 6765TIP3   OH241709   5.895   5.125  15.110  0.2570  0.7267  0.7607
 6765TIP3    H141710   5.983   5.160  15.128  0.3073  1.3133 -0.5135
 6765TIP3    H241711   5.906   5.030  15.111  0.6646  0.7667  1.6685
 6766TIP3   OH241712   5.360   1.448  16.723 -0.4854  0.2899  0.1426
 6766TIP3    H141713   5.393   1.371  16.770 -0.2062  0.2410 -0.1283
 6766TIP3    H241714   5.287   1.480  16.776  0.3824  0.7647  1.0928
 6767TIP3   OH241715   5.972   0.503   5.672  0.4700 -0.1925 -0.0007
 6767TIP3    H141716   6.019   0.568   5.725 -0.5481  0.4750  0.0951
 6767TIP3    H241717   5.884   0.538   5.664 -0.2116 -1.7627  0.3817
 6768TIP3   OH241718   0.995   3.824   2.581  0.2545  0.1268  0.1681
 6768TIP3    H141719   0.934   3.751   2.574  0.6772 -0.2822  0.6177
 6768TIP3    H241720   1.069   3.799   2.526  0.5446  0.0610  0.5800
 6769TIP3   OH241721   0.403   6.728   6.146 -0.5460 -0.2301 -0.4166
 6769TIP3    H141722   0.392   6.737   6.241  0.6017 -0.5514 -0.2364
 6769TIP3    H241723   0.328   6.773   6.109 -0.5065  0.7431  0.6360
 6770TIP3   OH241724   1.021   4.991  16.723 -0.3392  0.4131  0.0658
 6770TIP3    H141725   1.005   4.899  16.742 -0.2489  0.4704  0.4400
 6770TIP3    H241726   1.038   4.994  16.629  0.8830 -0.1344  0.2463
 6771TIP3   OH241727   5.546   0.945   0.310 -0.2942  0.0546 -0.3661
 6771TIP3    H141728   5.560   0.987   0.225 -1.6496  0.0405 -0.6129
 6771TIP3    H241729   5.581   1.008   0.373 -0.3706  0.5998 -0.8602
 6772TIP3   OH241730   0.021   1.630   4.725  0.1618  0.6785 -0.2734
 6772TIP3    H141731   0.083   1.668   4.663  0.3163  2.5271  0.9154
 6772TIP3    H241732  -0.021   1.706   4.767 -1.5524 -0.5018  0.3005
 6773TIP3   OH241733   2.170   0.748   5.821 -0.2119 -0.2661  0.1270
 6773TIP3    H141734   2.153   0.690   5.895 -1.5043 -0.3143 -0.1740
 6773TIP3    H241735   2.264   0.741   5.805  0.0386 -0.4585  1.5791
 6774TIP3   OH241736   0.450   5.500  10.817 -0.1612  0.3178  0.2529
 6774TIP3    H141737   0.448   5.408  10.793  1.0064  0.3120  0.1029
 6774TIP3    H241738   0.447   5.500  10.913  0.3783  0.0852  0.2749
 6775TIP3   OH241739   1.693   3.578  15.855  0.0265 -0.0865  0.3413
 6775TIP3    H141740   1.711   3.508  15.919  1.3503 -0.1646 -0.0957
 6775TIP3    H241741   1.636   3.537  15.790  0.4641 -0.6522  0.3055
 6776TIP3   OH241742   4.261   1.331  15.960 -0.0510 -0.1312  0.0769
 6776TIP3    H141743   4.281   1.421  15.933 -2.4714 -0.2452 -2.7059
 6776TIP3    H241744   4.173   1.336  15.996  0.9086 -1.0201  2.7586
 6777TIP3   OH241745   0.047   0.369   3.967 -0.1480 -0.3989  0.5795
 6777TIP3    H141746   0.141   0.352   3.975 -0.3917 -1.8667  0.6086
 6777TIP3    H241747   0.037   0.408   3.881  0.3238 -1.7770 -0.1353
 6778TIP3   OH241748   2.096   2.881  15.149  0.0363 -0.4178  0.6155
 6778TIP3    H141749   2.153   2.807  15.170  0.7286 -0.2764 -0.6385
 6778TIP3    H241750   2.029   2.844  15.091 -0.6144 -0.3930  1.3393
 6779TIP3   OH241751   4.847   1.268  16.176 -0.5221 -0.2361  0.3392
 6779TIP3    H141752   4.877   1.251  16.087 -0.8642 -2.0687  0.5270
 6779TIP3    H241753   4.801   1.351  16.170 -0.3832 -0.2359 -1.1626
 6780TIP3   OH241754   2.289   5.656   2.914  0.3935 -0.3641  0.0432
 6780TIP3    H141755   2.272   5.750   2.916 -0.8888 -0.5847  0.1342
 6780TIP3    H241756   2.320   5.639   2.825  2.7745  0.4569  0.6146
 6781TIP3   OH241757   1.762   0.536   5.692  0.5704  0.1116 -0.0744
 6781TIP3    H141758   1.831   0.499   5.747  0.5330 -0.3077 -0.3071
 6781TIP3    H241759   1.695   0.564   5.754  0.7940  0.1977  0.1312
 6782TIP3   OH241760   0.628   3.391  16.935 -0.3541 -0.2226 -0.1574
 6782TIP3    H141761   0.619   3.370  17.028 -1.8917 -1.5458 -0.5581
 6782TIP3    H241762   0.603   3.483  16.929 -0.9331 -0.3111  0.6520
 6783TIP3   OH241763   5.203   4.957  13.979  0.0315 -0.3944  0.1054
 6783TIP3    H141764   5.135   4.929  14.040 -0.1660 -0.5340 -0.1804
 6783TIP3    H241765   5.280   4.973  14.035 -0.3887  0.3061  0.5016
 6784TIP3   OH241766   2.896   3.728  13.197 -0.2550  0.1299  0.4743
 6784TIP3    H141767   2.926   3.804  13.248  1.2635  0.3506 -0.6768
 6784TIP3    H241768   2.830   3.764  13.138  0.3973  0.5836 -0.0064
 6785TIP3   OH241769   4.154   1.666   5.623  0.5011 -0.1098 -0.3156
 6785TIP3    H141770   4.223   1.704   5.570 -0.0223  2.2488  0.5566
 6785TIP3    H241771   4.179   1.575   5.635  2.5698  0.2708 -1.4038
 6786TIP3   OH241772   2.788   5.413   3.137  0.0365  0.0800 -0.0106
 6786TIP3    H141773   2.708   5.448   3.097 -0.6165  1.0846  2.0073
 6786TIP3    H241774   2.837   5.491   3.165  2.2503 -0.4825 -2.0360
 6787TIP3   OH241775   1.830   0.304  16.544 -0.2578 -0.1837 -0.0720
 6787TIP3    H141776   1.740   0.331  16.561 -0.4658 -1.7090  1.4697
 6787TIP3    H241777   1.874   0.309  16.628  1.0928  0.4239 -0.7806
 6788TIP3   OH241778   2.761   6.356  15.846  0.0772 -0.0499  0.8305
 6788TIP3    H141779   2.717   6.321  15.923  1.2939  1.2733  2.1784
 6788TIP3    H241780   2.772   6.449  15.865  0.3287  0.3265 -0.9922
 6789TIP3   OH241781   5.767   0.238  15.410 -0.0970  0.0016 -0.8642
 6789TIP3    H141782   5.705   0.197  15.349 -1.5908 -0.3984  0.8365
 6789TIP3    H241783   5.819   0.165  15.444  0.3036  0.1409 -1.1692
 6790TIP3   OH241784   0.250   0.884  13.864 -0.2227 -0.1929  0.0030
 6790TIP3    H141785   0.253   0.919  13.953  2.0480  1.6387 -0.6846
 6790TIP3    H241786   0.272   0.791  13.873 -0.3832 -0.1121  1.3823
 6791TIP3   OH241787   3.412   1.090   3.089 -0.2749 -0.2946 -0.5164
 6791TIP3    H141788   3.403   1.049   3.175 -1.9960  1.9417  0.4999
 6791TIP3    H241789   3.326   1.131   3.073  1.4805  3.8585 -0.7520
 6792TIP3   OH241790   3.620   1.889  15.821  0.3772 -0.2563  0.0030
 6792TIP3    H141791   3.599   1.819  15.759  2.1218 -0.1296 -0.7814
 6792TIP3    H241792   3.713   1.876  15.840  0.8451  2.0885 -0.4636
 6793TIP3   OH241793   2.354   1.269   2.637 -0.4596  0.2689 -0.0649
 6793TIP3    H141794   2.335   1.357   2.604  0.6605  1.8059  3.0418
 6793TIP3    H241795   2.323   1.270   2.728  1.5437 -1.8158  0.7308
 6794TIP3   OH241796   0.534   5.711  13.620  0.1155 -0.4420 -0.7020
 6794TIP3    H141797   0.578   5.653  13.682  1.6976 -0.2779 -1.6060
 6794TIP3    H241798   0.606   5.757  13.577 -1.0512  1.3417 -0.8306
 6795TIP3   OH241799   6.153   3.338  10.934  0.0537 -0.2049 -0.0688
 6795TIP3    H141800   6.242   3.341  10.968  0.5074 -0.1655 -1.2148
 6795TIP3    H241801   6.114   3.261  10.975 -0.0551  0.8752  1.9787
 6796TIP3   OH241802   5.979   2.484   5.335  0.0830  0.7529 -0.2351
 6796TIP3    H141803   5.985   2.523   5.423  1.9384 -0.6079  0.2916
 6796TIP3    H241804   6.026   2.401   5.342 -1.5752 -0.4112 -1.9845
 6797TIP3   OH241805   0.105   5.850  12.125  0.3684 -0.1962  0.0541
 6797TIP3    H141806   0.028   5.811  12.167 -0.2697  1.4489  0.4973
 6797TIP3    H241807   0.080   5.861  12.034  0.4494 -0.5419 -0.0121
 6798TIP3   OH241808   3.436   3.467  12.933  0.0019 -0.0272 -0.0160
 6798TIP3    H141809   3.503   3.505  12.876 -0.1271 -0.8486 -0.7185
 6798TIP3    H241810   3.355   3.511  12.907 -0.3832 -1.6239 -1.7107
 6799TIP3   OH241811   4.926   2.860   2.323  0.1881  0.1723 -0.1925
 6799TIP3    H141812   4.886   2.920   2.260  1.3534  1.0637 -0.1272
 6799TIP3    H241813   4.892   2.888   2.408  1.7233  1.6618 -0.0099
 6800TIP3   OH241814   4.758   4.388  13.555  0.8175  0.3173 -0.0454
 6800TIP3    H141815   4.843   4.375  13.512  1.1573  0.9039  0.4263
 6800TIP3    H241816   4.761   4.329  13.631  1.5677  1.6343  0.9998
 6801TIP3   OH241817   3.918   6.262   1.155 -0.2180 -0.0848  0.4382
 6801TIP3    H141818   3.862   6.237   1.228 -3.1723  0.6635 -1.4257
 6801TIP3    H241819   3.878   6.341   1.119  2.0768  0.5224 -1.0129
 6802TIP3   OH241820   5.652   2.774  15.816  0.1435  0.0498  0.6415
 6802TIP3    H141821   5.720   2.789  15.882  0.0774  1.5377  0.3876
 6802TIP3    H241822   5.587   2.719  15.861  1.2298 -0.9461  1.0548
 6803TIP3   OH241823   3.107   3.246   2.244  0.1379  0.0599 -0.2078
 6803TIP3    H141824   3.033   3.188   2.264 -0.2636  0.9045  0.9263
 6803TIP3    H241825   3.102   3.261   2.150 -0.6423 -0.5620 -0.2735
 6804TIP3   OH241826   0.084   5.218   6.654  0.3128 -0.2964  0.3145
 6804TIP3    H141827   0.037   5.146   6.696  1.1576 -1.0340  0.0343
 6804TIP3    H241828   0.156   5.175   6.608 -0.4493  0.4839 -1.7312
 6805TIP3   OH241829   5.653   3.869  14.614 -0.3431 -0.3812  0.1391
 6805TIP3    H141830   5.601   3.897  14.690  0.4476 -0.7179  0.8248
 6805TIP3    H241831   5.705   3.795  14.647 -0.0213 -0.5604 -0.7495
 6806TIP3   OH241832   3.810   3.472  11.851  0.1081 -1.1066 -0.6283
 6806TIP3    H141833   3.724   3.431  11.863 -0.3446  0.3294  1.9048
 6806TIP3    H241834   3.872   3.410  11.889 -0.1861 -0.9007  0.2122
 6807TIP3   OH241835   3.259   0.094   5.179 -0.3477 -0.2483  0.1449
 6807TIP3    H141836   3.303   0.031   5.236 -0.1285  1.6711  2.2267
 6807TIP3    H241837   3.167   0.089   5.205 -0.5260 -0.5142 -0.5179
 6808TIP3   OH241838   4.747   5.552  14.945  0.1468  0.0819 -0.0207
 6808TIP3    H141839   4.779   5.590  14.864  1.2246 -0.9148 -0.0899
 6808TIP3    H241840   4.730   5.460  14.923 -3.7706  0.6795 -0.2549
 6809TIP3   OH241841   2.032   2.954   4.710 -0.2765 -0.0395 -0.3978
 6809TIP3    H141842   2.088   2.890   4.666  1.7395  0.2823  1.5479
 6809TIP3    H241843   1.977   2.902   4.768  2.0712 -0.0786  1.9516
 6810TIP3   OH241844   6.670   4.736   1.814 -0.2081 -0.2702  0.2510
 6810TIP3    H141845   6.699   4.793   1.884 -0.3195 -0.8384  0.7761
 6810TIP3    H241846   6.643   4.655   1.858  0.7507 -1.0551 -0.5347
 6811TIP3   OH241847   5.358   4.475  13.888  0.5567  0.1937 -0.2798
 6811TIP3    H141848   5.417   4.447  13.958  1.2187  1.4704 -0.2871
 6811TIP3    H241849   5.330   4.394  13.846  2.4363 -0.4689 -0.3619
 6812TIP3   OH241850   5.556   3.700   3.969  0.1631 -0.0218 -0.4960
 6812TIP3    H141851   5.614   3.657   3.906 -0.6680  0.8801 -1.9168
 6812TIP3    H241852   5.599   3.686   4.054  2.4225  0.5074 -1.4696
 6813TIP3   OH241853   4.444   3.330  11.473  0.0913  0.6185 -0.0470
 6813TIP3    H141854   4.514   3.266  11.483 -0.3610  0.3464  1.5505
 6813TIP3    H241855   4.413   3.347  11.562 -0.0004  2.8492 -0.4513
 6814TIP3   OH241856   3.778   4.822   6.086  0.0374  0.6019 -0.1855
 6814TIP3    H141857   3.833   4.895   6.116  0.8647  1.4003 -3.2390
 6814TIP3    H241858   3.793   4.753   6.150  1.5798  2.1057  1.1921
 6815TIP3   OH241859   0.609   0.102  12.914 -0.1720 -0.1774  0.0156
 6815TIP3    H141860   0.704   0.114  12.914 -0.4478  2.7078  0.1802
 6815TIP3    H241861   0.588   0.074  13.004  0.3111  2.0516  0.8810
 6816TIP3   OH241862   6.598   3.503  12.875  0.1366 -1.1335 -0.9417
 6816TIP3    H141863   6.691   3.509  12.894  0.2297 -2.3324 -0.9804
 6816TIP3    H241864   6.593   3.462  12.789 -0.4145 -0.4410 -1.2511
 6817TIP3   OH241865   3.393   6.704   0.935 -0.1210 -0.3197  0.0350
 6817TIP3    H141866   3.351   6.718   1.020  0.1805  2.2779 -0.1648
 6817TIP3    H241867   3.487   6.711   0.952 -0.0806  1.1351 -0.5851
 6818TIP3   OH241868   2.454   1.261   5.523  0.0852  0.0698  0.1059
 6818TIP3    H141869   2.503   1.343   5.518  0.5416  0.0851  2.9497
 6818TIP3    H241870   2.376   1.276   5.470  0.8568  1.7865 -0.6144
 6819TIP3   OH241871   4.384   2.041   5.122 -0.2338  0.0859  0.4156
 6819TIP3    H141872   4.361   1.949   5.104 -1.0474  0.2965  0.3137
 6819TIP3    H241873   4.460   2.058   5.066 -0.5397 -0.3118 -0.1333
 6820TIP3   OH241874   3.878   0.775  12.218  0.8017  0.2095 -0.2288
 6820TIP3    H141875   3.845   0.766  12.129 -0.9067  0.8263  0.2816
 6820TIP3    H241876   3.923   0.859  12.219 -1.6751  1.6425  0.1149
 6821TIP3   OH241877   6.262   1.318  13.105 -0.0813  0.3684  0.2292
 6821TIP3    H141878   6.203   1.393  13.094  0.1617  0.5813  0.3954
 6821TIP3    H241879   6.350   1.354  13.097  0.0202 -0.0142 -0.3928
 6822TIP3   OH241880   4.366   0.593   3.401 -0.4033 -0.5558  0.2499
 6822TIP3    H141881   4.349   0.676   3.445  0.4162  1.1572 -2.3898
 6822TIP3    H241882   4.301   0.590   3.330  0.4103 -1.5231 -0.4817
 6823TIP3   OH241883   4.844   1.837   3.705 -0.1595  0.1234  0.2913
 6823TIP3    H141884   4.845   1.892   3.784  0.9848  1.4776 -0.6273
 6823TIP3    H241885   4.920   1.779   3.715 -0.6873 -0.5204  0.7018
 6824TIP3   OH241886   1.867   4.946  12.112 -0.2664 -0.3031 -0.0118
 6824TIP3    H141887   1.793   4.957  12.171  0.0343  0.7976  0.1808
 6824TIP3    H241888   1.827   4.920  12.028 -0.7510 -1.0848  0.4480
 6825TIP3   OH241889   2.209   2.487   5.895  0.1834 -0.4105 -0.1262
 6825TIP3    H141890   2.296   2.527   5.893  0.2382 -0.4745  0.6409
 6825TIP3    H241891   2.226   2.393   5.906  0.0185 -0.2403  2.0312
 6826TIP3   OH241892   5.796   3.787  17.145  0.5783  0.2102  1.0058
 6826TIP3    H141893   5.864   3.842  17.106  0.0157  0.6720  0.6581
 6826TIP3    H241894   5.770   3.833  17.225  1.0106 -0.2119  1.3932
 6827TIP3   OH241895   1.474   6.291  10.742  0.8355 -0.2421 -0.1695
 6827TIP3    H141896   1.419   6.366  10.722  0.5670 -0.1336  0.9095
 6827TIP3    H241897   1.483   6.292  10.838  0.1342 -2.0462 -0.0453
 6828TIP3   OH241898   2.046   3.947  14.375  0.1351  0.1537 -0.5323
 6828TIP3    H141899   1.974   3.886  14.355 -0.8381  1.5082 -1.3340
 6828TIP3    H241900   2.089   3.909  14.451 -1.2507 -0.8520 -0.2089
 6829TIP3   OH241901   2.960   5.004   3.530  0.2063 -0.0673 -0.0749
 6829TIP3    H141902   2.939   5.004   3.436 -0.0494  2.2702 -0.0816
 6829TIP3    H241903   2.877   5.026   3.573  0.7952  1.0503  0.5247
 6830TIP3   OH241904   2.250   6.250   1.035  0.7168 -1.2844  0.0551
 6830TIP3    H141905   2.245   6.255   1.131  3.3932 -1.1644  0.2679
 6830TIP3    H241906   2.203   6.327   1.005  0.9389 -0.6065  1.3425
 6831TIP3   OH241907   2.484   3.226  14.891 -0.7202 -0.6186 -0.4106
 6831TIP3    H141908   2.419   3.181  14.836 -1.2646  0.9876 -1.1655
 6831TIP3    H241909   2.559   3.240  14.833 -0.9587  0.3251 -0.5016
 6832TIP3   OH241910   5.745   2.678  10.408  0.1971  0.0821 -0.5304
 6832TIP3    H141911   5.696   2.710  10.332 -1.0839 -0.1073  0.1798
 6832TIP3    H241912   5.693   2.603  10.439  0.9024 -0.0720  0.3022
 6833TIP3   OH241913   0.803   4.210   3.938 -0.4868  0.1886  0.3264
 6833TIP3    H141914   0.800   4.116   3.957 -1.1896  0.0455 -0.4409
 6833TIP3    H241915   0.765   4.251   4.015  1.8123  0.0290  1.6529
 6834TIP3   OH241916   0.782   5.548   1.035 -0.4002 -0.2332  0.7170
 6834TIP3    H141917   0.715   5.604   1.073  0.4575  1.6656 -0.4131
 6834TIP3    H241918   0.825   5.603   0.969  0.4122 -2.2804 -0.5677
 6835TIP3   OH241919   5.196   3.566   3.098 -0.2138 -0.2789 -0.1827
 6835TIP3    H141920   5.244   3.575   3.016 -2.3685 -0.7905 -1.5993
 6835TIP3    H241921   5.191   3.655   3.133  2.1923 -0.2972  0.3522
 6836TIP3   OH241922   0.493   0.036  12.520  0.9132 -0.1609  0.0516
 6836TIP3    H141923   0.501   0.079  12.435 -0.4004 -1.1232 -0.5859
 6836TIP3    H241924   0.400   0.012  12.527  1.1492 -0.8194  1.4044
 6837TIP3   OH241925   2.565   2.049   4.228 -0.0968  0.3422 -0.5066
 6837TIP3    H141926   2.538   2.141   4.226 -0.3189  0.3664  1.5639
 6837TIP3    H241927   2.484   2.001   4.245  0.4202  0.0565  1.4294
 6838TIP3   OH241928   0.041   4.668   2.273 -0.3920  0.1311  0.2909
 6838TIP3    H141929  -0.020   4.616   2.325 -2.7378  1.1724 -1.2394
 6838TIP3    H241930   0.127   4.651   2.312 -1.7104 -0.8679  3.0330
 6839TIP3   OH241931   6.591   0.738   5.619 -0.1441  0.2402  0.4718
 6839TIP3    H141932   6.618   0.699   5.702 -0.7154 -1.2593  0.0010
 6839TIP3    H241933   6.509   0.783   5.638 -0.3675 -0.2527  0.6880
 6840TIP3   OH241934   0.832   5.624  14.952 -0.1634  0.0019 -0.3469
 6840TIP3    H141935   0.889   5.611  15.028 -1.5809 -1.9009  0.4860
 6840TIP3    H241936   0.859   5.555  14.890 -2.4504 -1.9872  0.7090
 6841TIP3   OH241937   6.676   0.423   1.674 -0.6685  0.1466 -0.4875
 6841TIP3    H141938   6.730   0.419   1.596  0.9391 -0.7099  0.6154
 6841TIP3    H241939   6.645   0.333   1.686 -0.0050  0.0298  0.4451
 6842TIP3   OH241940   1.417   2.190   2.999  0.1465 -0.0631 -0.1159
 6842TIP3    H141941   1.358   2.116   2.984  0.8411 -0.2798 -2.1619
 6842TIP3    H241942   1.402   2.249   2.924 -0.0978  1.6986  1.2569
 6843TIP3   OH241943   3.440   2.670   4.414 -0.1268 -0.0767  0.2913
 6843TIP3    H141944   3.513   2.711   4.461  0.1224 -0.8538  0.5949
 6843TIP3    H241945   3.374   2.740   4.407 -0.4598 -0.1113  2.4025
 6844TIP3   OH241946   4.459   4.604   5.231  0.7236 -0.4750  0.7044
 6844TIP3    H141947   4.409   4.681   5.201  2.0442  0.3465  0.5259
 6844TIP3    H241948   4.409   4.529   5.199 -0.4242  0.3113  0.5822
 6845TIP3   OH241949   1.752   2.514  14.827 -0.1167 -0.3933  0.4194
 6845TIP3    H141950   1.714   2.427  14.813 -0.9159 -0.0572  0.4611
 6845TIP3    H241951   1.711   2.545  14.908  0.5733 -0.1908  0.6998
 6846TIP3   OH241952   6.072   2.787   1.044 -0.1002  0.7929  0.1303
 6846TIP3    H141953   6.007   2.819   0.982 -0.6725  0.9357  0.7881
 6846TIP3    H241954   6.095   2.699   1.012 -1.8315  0.0674  0.7726
 6847TIP3   OH241955   0.383   0.029  15.248  0.0184  0.1144 -0.0575
 6847TIP3    H141956   0.470   0.047  15.211  0.4116 -0.6225  0.4896
 6847TIP3    H241957   0.377   0.088  15.324  0.3004 -0.2847  0.2770
 6848TIP3   OH241958   2.423   4.697  14.515 -0.0584 -0.0856 -0.6958
 6848TIP3    H141959   2.399   4.746  14.594 -0.1638 -0.4797 -0.4839
 6848TIP3    H241960   2.446   4.765  14.451  2.0480  0.2249  0.2906
 6849TIP3   OH241961   2.675   4.054  13.584  0.0800 -0.3323 -0.0304
 6849TIP3    H141962   2.743   4.085  13.644  0.7521 -1.9311  0.0791
 6849TIP3    H241963   2.596   4.102  13.610  0.3143 -1.0713  2.2573
 6850TIP3   OH241964   3.419   3.391   5.898 -0.2188 -0.3193 -0.3887
 6850TIP3    H141965   3.457   3.449   5.964 -0.9882 -0.7453  0.4465
 6850TIP3    H241966   3.467   3.411   5.818  1.3045 -0.3743  0.4764
 6851TIP3   OH241967   1.248   5.014   4.679 -0.9766 -0.3743  0.2300
 6851TIP3    H141968   1.254   4.954   4.753 -0.4307 -2.2922 -1.2548
 6851TIP3    H241969   1.264   4.958   4.603  1.1543  1.9483 -1.1742
 6852TIP3   OH241970   5.373   4.144   0.232  0.5293 -0.6521 -0.1753
 6852TIP3    H141971   5.332   4.165   0.315  0.8442  1.6023 -0.5257
 6852TIP3    H241972   5.467   4.154   0.248  0.5789  0.0829 -0.8358
 6853TIP3   OH241973   2.610   5.686  16.386 -0.2895  0.1067 -0.0284
 6853TIP3    H141974   2.574   5.711  16.301 -1.9291  0.5297  0.7474
 6853TIP3    H241975   2.550   5.724  16.450  0.6490 -0.5803  1.3228
 6854TIP3   OH241976   6.298   2.755   0.072 -0.6461 -0.1155 -0.1460
 6854TIP3    H141977   6.207   2.763   0.042 -0.5511 -1.9107 -1.1106
 6854TIP3    H241978   6.310   2.660   0.084  0.6388  0.2286  1.5106
 6855TIP3   OH241979   5.658   6.479   4.469  0.3478  0.1796 -0.3695
 6855TIP3    H141980   5.578   6.441   4.431 -0.9751  1.7319  0.7379
 6855TIP3    H241981   5.689   6.412   4.530 -0.0546 -0.4706 -0.8674
 6856TIP3   OH241982   4.130   0.290  11.158  0.2132 -0.2315 -0.3186
 6856TIP3    H141983   4.146   0.214  11.102  0.2124 -0.6450  0.2371
 6856TIP3    H241984   4.155   0.262  11.245 -0.1846  0.2715 -0.0342
 6857TIP3   OH241985   3.845   4.161   2.102 -0.0286  0.6190 -0.5247
 6857TIP3    H141986   3.840   4.255   2.119 -1.8233  0.1531  2.0914
 6857TIP3    H241987   3.846   4.121   2.189  0.0088 -1.8120 -1.5712
 6858TIP3   OH241988   5.223   3.250  17.183  0.4863 -0.3974  0.4429
 6858TIP3    H141989   5.184   3.244  17.096  1.9847 -3.2783 -0.1494
 6858TIP3    H241990   5.309   3.290  17.169  0.1750  0.4314  0.8367
 6859TIP3   OH241991   0.208   0.873  16.360 -0.0942 -0.8064 -0.4323
 6859TIP3    H141992   0.222   0.823  16.280 -1.0758  0.9410 -1.7584
 6859TIP3    H241993   0.114   0.886  16.365 -0.0493 -0.8709  1.0282
 6860TIP3   OH241994   3.677   0.465  17.258  0.0366 -0.3531 -0.1304
 6860TIP3    H141995   3.581   0.462  17.253 -0.2105  3.0814  0.1784
 6860TIP3    H241996   3.695   0.477  17.352  0.7625 -0.7338 -0.2168
 6861TIP3   OH241997   3.608   0.348  14.907  0.4739  0.1816  1.0518
 6861TIP3    H141998   3.669   0.317  14.974 -1.4560 -1.4125  2.1944
 6861TIP3    H241999   3.648   0.323  14.824  1.1943 -1.1819  1.7788
 6862TIP3   OH242000   1.856   1.657   5.442 -0.6969 -0.7801  1.1164
 6862TIP3    H142001   1.846   1.567   5.410  0.1200 -0.3004 -0.5653
 6862TIP3    H242002   1.931   1.653   5.501  0.0838 -1.0005  0.1326
 6863TIP3   OH242003   3.777   5.477   4.060 -0.7083 -0.1588  0.7899
 6863TIP3    H142004   3.792   5.530   4.139 -0.2913  1.0513 -0.0728
 6863TIP3    H242005   3.781   5.540   3.988  1.7931 -1.6175 -0.4781
 6864TIP3   OH242006   0.349   1.643   1.437  0.5151 -0.0753 -0.1513
 6864TIP3    H142007   0.324   1.626   1.528  1.7980  0.2615  0.2830
 6864TIP3    H242008   0.441   1.670   1.442  0.8765 -0.9273 -1.6370
 6865TIP3   OH242009   1.955   3.746  16.271 -0.6575  0.0643 -0.0404
 6865TIP3    H142010   1.885   3.803  16.303 -0.1054  0.5032  0.4146
 6865TIP3    H242011   1.953   3.758  16.176 -1.9356 -0.8145 -0.1522
 6866TIP3   OH242012   4.380   6.698   1.982  0.5072  0.2874 -0.1999
 6866TIP3    H142013   4.359   6.780   2.026  1.2287  0.4199 -0.0946
 6866TIP3    H242014   4.296   6.667   1.949  0.0461  0.4709  0.7684
 6867TIP3   OH242015   1.818   3.499   5.424 -0.6560 -0.2250 -0.3596
 6867TIP3    H142016   1.813   3.428   5.361 -2.2788 -1.1520  0.7596
 6867TIP3    H242017   1.848   3.458   5.505 -1.3560  0.4066  0.2377
 6868TIP3   OH242018   5.065   6.752  16.955 -0.4433 -0.5155  0.1138
 6868TIP3    H142019   5.039   6.840  16.930 -0.2176 -0.4640  0.0549
 6868TIP3    H242020   5.110   6.717  16.878  2.2179  0.4437  1.1180
 6869TIP3   OH242021   0.129   5.172   6.160  0.3973  0.6811 -0.4879
 6869TIP3    H142022   0.072   5.243   6.190  1.6362  0.9605  1.3778
 6869TIP3    H242023   0.201   5.217   6.116  1.4810  0.6674  1.2064
 6870TIP3   OH242024   0.437   2.784  13.170 -0.1077 -0.4848 -0.2010
 6870TIP3    H142025   0.427   2.802  13.263  0.3226 -1.1188 -0.0264
 6870TIP3    H242026   0.393   2.858  13.126  1.8275  1.1515  0.4633
 6871TIP3   OH242027   5.939   1.653  11.814  0.0866  0.1191  0.1910
 6871TIP3    H142028   5.900   1.696  11.738 -1.8466 -0.5848  0.7139
 6871TIP3    H242029   6.031   1.642  11.791 -0.2842  0.6088 -1.7159
 6872TIP3   OH242030   2.970   5.896  12.538  0.0383  0.2573 -0.2640
 6872TIP3    H142031   3.009   5.982  12.523  0.5099  0.0085 -0.4883
 6872TIP3    H242032   2.944   5.866  12.451 -0.5274  0.3558 -0.1350
 6873TIP3   OH242033   1.778   0.500   0.287  0.5471 -0.1651  0.1137
 6873TIP3    H142034   1.862   0.520   0.329  0.9554 -0.1461 -0.6982
 6873TIP3    H242035   1.712   0.531   0.349  1.1404  2.8984 -0.6446
 6874TIP3   OH242036   6.736   1.052   3.949  0.1537  0.3377 -0.8850
 6874TIP3    H142037   6.711   1.051   4.042  0.7388  0.0736 -0.7239
 6874TIP3    H242038   6.772   0.965   3.933  0.7729  0.6396 -1.1570
 6875TIP3   OH242039   4.843   1.060  15.044 -0.1805  0.0182 -0.3691
 6875TIP3    H142040   4.860   1.026  14.956 -2.5322  1.5976 -1.5356
 6875TIP3    H242041   4.893   1.141  15.048 -0.2267  0.0441 -0.3229
 6876TIP3   OH242042   0.771   6.196   0.191 -0.5443  0.2599 -0.3736
 6876TIP3    H142043   0.798   6.115   0.149 -0.1732  0.6871 -0.9745
 6876TIP3    H242044   0.769   6.261   0.120  1.2417  1.2746  0.4224
 6877TIP3   OH242045   5.789   0.432   5.279  0.2169 -0.3583 -0.4347
 6877TIP3    H142046   5.858   0.366   5.290  0.1466 -0.3753 -0.1166
 6877TIP3    H242047   5.835   0.515   5.287 -0.1355 -0.3272  2.0696
 6878TIP3   OH242048   4.473   0.490  12.351 -0.3074 -0.0344  0.5382
 6878TIP3    H142049   4.547   0.480  12.411  1.0105 -0.5048 -1.1016
 6878TIP3    H242050   4.501   0.556  12.288 -0.7826 -1.0457 -0.7964
 6879TIP3   OH242051   4.059   3.739   4.824 -0.3741 -0.0800  0.1128
 6879TIP3    H142052   3.983   3.687   4.798 -0.1954 -0.1457 -0.2960
 6879TIP3    H242053   4.118   3.734   4.748  0.8477 -1.5161  1.1018
 6880TIP3   OH242054   1.819   4.923  13.603 -0.2332  0.2174 -0.4457
 6880TIP3    H142055   1.843   4.831  13.612 -2.2230 -0.4393 -1.2644
 6880TIP3    H242056   1.874   4.956  13.532 -1.0905 -0.9959 -1.7258
 6881TIP3   OH242057   0.635   5.482  11.585 -0.7926  0.0547 -0.5745
 6881TIP3    H142058   0.690   5.404  11.577 -0.0406  0.4090  0.8522
 6881TIP3    H242059   0.550   5.448  11.615 -1.0500 -0.3749 -1.7166
 6882TIP3   OH242060   4.996   0.762   4.610  0.1690 -0.0638  0.2091
 6882TIP3    H142061   5.006   0.667   4.616  0.8979  0.0488  1.0222
 6882TIP3    H242062   5.051   0.796   4.680 -0.1406  0.9613 -0.0286
 6883TIP3   OH242063   6.456   6.467   3.290 -0.2906 -0.2310 -0.1395
 6883TIP3    H142064   6.473   6.373   3.292 -1.2605 -0.4606 -1.5044
 6883TIP3    H242065   6.361   6.475   3.299 -0.2533  0.6009 -0.3783
 6884TIP3   OH242066   3.010   3.144   4.287 -0.2148 -0.1468  0.1966
 6884TIP3    H142067   2.934   3.088   4.274 -0.0589  0.0718 -2.2232
 6884TIP3    H242068   3.084   3.094   4.252  0.2281  0.8258 -0.3233
 6885TIP3   OH242069   3.495   0.874   1.195  0.9243 -0.1735  0.1317
 6885TIP3    H142070   3.496   0.785   1.231  0.9402  0.0148  0.5981
 6885TIP3    H242071   3.502   0.861   1.100  0.3443 -0.6966  0.1517
 6886TIP3   OH242072   2.946   4.620  15.369  0.7923  0.2643 -0.2130
 6886TIP3    H142073   2.863   4.667  15.366  0.0879 -0.8979  0.0415
 6886TIP3    H242074   3.008   4.676  15.323 -0.2196  1.0047 -0.7064
 6887TIP3   OH242075   6.479   5.797   5.140 -0.0202  0.3605  0.0535
 6887TIP3    H142076   6.481   5.711   5.181 -0.1070  0.2174 -0.2384
 6887TIP3    H242077   6.523   5.785   5.056 -0.7013  0.4177 -0.3253
 6888TIP3   OH242078   3.756   1.083  11.520 -0.2015 -0.0032  0.1585
 6888TIP3    H142079   3.836   1.039  11.552 -1.0857 -0.1874  2.2423
 6888TIP3    H242080   3.769   1.088  11.425  1.4476 -1.7470  0.2132
 6889TIP3   OH242081   2.005   5.809   2.319  0.3404  0.3273  0.0492
 6889TIP3    H142082   1.921   5.839   2.284  0.3871  0.6092  0.1785
 6889TIP3    H242083   2.059   5.794   2.242 -0.3828 -1.5472 -0.1420
 6890TIP3   OH242084   0.138   1.192  16.611 -0.1808 -0.7004  0.5271
 6890TIP3    H142085   0.189   1.166  16.688 -1.0164 -1.7177  0.7555
 6890TIP3    H242086   0.189   1.162  16.536 -0.0643 -0.9964  0.7252
 6891TIP3   OH242087   5.374   1.241   2.600  0.1455  0.6610  0.2072
 6891TIP3    H142088   5.405   1.314   2.547 -0.0904  1.3809  1.0422
 6891TIP3    H242089   5.453   1.187   2.615  0.4998  1.2033  0.3179
 6892TIP3   OH242090   0.973   5.279   4.011 -0.3861 -0.2252  0.0296
 6892TIP3    H142091   0.943   5.199   3.967 -1.1585  0.6500 -1.0754
 6892TIP3    H242092   0.893   5.326   4.033  0.0126 -0.2179  1.6551
 6893TIP3   OH242093   5.433   0.517  12.477  0.3247  0.3080  0.7881
 6893TIP3    H142094   5.487   0.476  12.544  0.9592  1.2982  0.9066
 6893TIP3    H242095   5.398   0.596  12.519  0.0920  0.5231  0.2033
 6894TIP3   OH242096   0.367   2.480   6.135 -0.5839  0.1709  0.1439
 6894TIP3    H142097   0.381   2.407   6.195  0.5862  0.6728  0.5042
 6894TIP3    H242098   0.288   2.523   6.168 -0.7086 -0.3415  0.5280
 6895TIP3   OH242099   3.160   5.670  16.307  0.2186 -0.4346 -0.5168
 6895TIP3    H142100   3.074   5.627  16.301 -0.7218  1.3439 -0.4987
 6895TIP3    H242101   3.217   5.617  16.251 -1.1595 -1.0659 -1.3845
 6896TIP3   OH242102   0.325   3.549  13.350  0.1047  0.0407  1.0082
 6896TIP3    H142103   0.294   3.459  13.340 -0.2040  0.1672  0.8059
 6896TIP3    H242104   0.258   3.592  13.403 -2.2030  1.3742 -2.6174
 6897TIP3   OH242105   6.089   3.689  11.652  0.2368  0.1441  0.6511
 6897TIP3    H142106   6.162   3.631  11.628 -0.1857 -0.0011 -0.3410
 6897TIP3    H242107   6.055   3.720  11.568 -1.6554 -0.7684  1.0353
 6898TIP3   OH242108   3.628   5.667  14.565  0.1623  0.1565 -0.0414
 6898TIP3    H142109   3.694   5.694  14.501 -0.9179  0.9504 -0.8613
 6898TIP3    H242110   3.609   5.747  14.614 -1.6145  0.4850 -1.1546
 6899TIP3   OH242111   0.503   6.719  11.581  0.1830  0.1202 -0.4850
 6899TIP3    H142112   0.543   6.674  11.655  0.9730  1.5563 -0.0195
 6899TIP3    H242113   0.482   6.806  11.614 -1.1571  0.1899 -1.4233
 6900TIP3   OH242114   3.293   4.956   2.905 -0.1386 -0.7966 -0.3223
 6900TIP3    H142115   3.310   4.912   2.822  2.1760 -0.5963 -0.0210
 6900TIP3    H242116   3.295   5.049   2.883  0.2416 -0.7502 -0.1073
 6901TIP3   OH242117   3.616   6.382   5.379  0.3407 -0.7805 -0.2631
 6901TIP3    H142118   3.672   6.305   5.371 -0.0649 -1.3451  1.7045
 6901TIP3    H242119   3.666   6.443   5.434  0.1224 -0.1594 -0.7368
 6902TIP3   OH242120   1.044   3.508  14.326  0.0917  0.4694  0.4234
 6902TIP3    H142121   1.014   3.582  14.274 -1.3919 -0.4441 -0.1016
 6902TIP3    H242122   0.997   3.517  14.409  0.5706  0.5941  0.6789
 6903TIP3   OH242123   3.782   5.911  13.371  0.1743 -0.0164 -0.3211
 6903TIP3    H142124   3.734   5.967  13.432 -2.6945 -0.1843 -2.2172
 6903TIP3    H242125   3.770   5.953  13.286 -0.6082 -2.5341 -1.5505
 6904TIP3   OH242126   2.709   2.213  12.144 -0.1981  0.2044 -0.0960
 6904TIP3    H142127   2.763   2.172  12.077 -0.8644 -0.2532 -0.3688
 6904TIP3    H242128   2.696   2.303  12.113 -0.9805 -0.1637 -0.9001
 6905TIP3   OH242129   0.381   3.992   0.901  0.4482  0.0226  0.1379
 6905TIP3    H142130   0.298   3.956   0.869 -0.3623  0.5551  1.5803
 6905TIP3    H242131   0.426   3.917   0.940  0.8580 -0.3521 -0.9965
 6906TIP3   OH242132   5.721   0.917  15.689  0.9439 -0.0907  0.2286
 6906TIP3    H142133   5.638   0.873  15.673  0.7126  0.4721 -0.1295
 6906TIP3    H242134   5.698   1.002  15.724  1.3666  0.0931  0.0730
 6907TIP3   OH242135   0.519   3.932   2.284 -0.7505 -0.6310  0.0416
 6907TIP3    H142136   0.593   3.872   2.271 -1.2465 -0.9756 -1.3689
 6907TIP3    H242137   0.542   3.982   2.362  0.4309 -1.5353  0.3001
 6908TIP3   OH242138   4.584   0.771   0.073 -0.5292 -0.2614 -0.0860
 6908TIP3    H142139   4.675   0.782   0.046 -0.9182  1.0410 -0.9760
 6908TIP3    H242140   4.534   0.819   0.007 -1.6434  2.1948  2.3633
 6909TIP3   OH242141   3.286   5.194  16.885 -0.4291  0.6675  0.2823
 6909TIP3    H142142   3.285   5.254  16.810  1.0115  2.1221  1.3554
 6909TIP3    H242143   3.261   5.110  16.849 -1.9881  1.7818 -1.4066
 6910TIP3   OH242144   1.003   0.397   0.157  0.1665 -0.2754  0.4764
 6910TIP3    H142145   0.972   0.485   0.136 -0.6712 -0.7259 -0.2529
 6910TIP3    H242146   1.075   0.381   0.096  1.5734  0.5704  1.8220
 6911TIP3   OH242147   1.112   0.346   4.674  0.5062  0.0454  0.4291
 6911TIP3    H142148   1.191   0.389   4.641  0.6141  0.5184  1.2760
 6911TIP3    H242149   1.063   0.322   4.595  1.7429 -0.7562 -0.1422
 6912TIP3   OH242150   6.743   5.001  14.404 -0.7116  0.2996  0.0696
 6912TIP3    H142151   6.793   4.990  14.485 -1.8372 -2.4436  0.4911
 6912TIP3    H242152   6.703   5.087  14.412 -1.3103 -0.1435  2.7703
 6913TIP3   OH242153   3.533   4.732   3.823 -0.2761 -0.2769 -0.0701
 6913TIP3    H142154   3.561   4.762   3.909 -0.6093 -0.8055  0.2280
 6913TIP3    H242155   3.585   4.654   3.806 -0.5744 -0.4694 -0.1153
 6914TIP3   OH242156   1.786   2.870  11.635  0.1999  0.0169 -0.5143
 6914TIP3    H142157   1.810   2.963  11.635  3.5062 -0.6524 -3.2326
 6914TIP3    H242158   1.831   2.834  11.711 -1.2648  0.5629  0.6750
 6915TIP3   OH242159   0.087   6.445   0.830  0.1185 -0.0389  0.1047
 6915TIP3    H142160  -0.005   6.459   0.852  0.0171  0.4589 -0.5957
 6915TIP3    H242161   0.130   6.427   0.913 -0.2944  1.5040  0.6913
 6916TIP3   OH242162   4.630   6.387   0.859 -0.1629  0.4502  0.4228
 6916TIP3    H142163   4.684   6.431   0.793 -1.5468 -0.6447 -1.5520
 6916TIP3    H242164   4.660   6.295   0.856  0.6992  0.6217  2.3822
 6917TIP3   OH242165   1.326   0.536  15.181 -0.4462 -0.3710 -0.1178
 6917TIP3    H142166   1.281   0.609  15.139  1.1213  0.2780 -0.7566
 6917TIP3    H242167   1.339   0.472  15.112 -1.7401 -1.2575  0.4226
 6918TIP3   OH242168   1.785   1.734   4.670  0.2837  0.3580  0.6667
 6918TIP3    H142169   1.779   1.674   4.744  1.9410  2.9279  3.0842
 6918TIP3    H242170   1.876   1.761   4.668  0.0047  1.3734 -1.5640
 6919TIP3   OH242171   4.922   0.236  15.917  0.1585 -0.2749  0.0672
 6919TIP3    H142172   4.908   0.330  15.909 -0.2934 -0.5043 -2.2507
 6919TIP3    H242173   4.859   0.208  15.984  0.9185  1.1618  1.4523
 6920TIP3   OH242174   4.547   4.955   2.867  0.2923 -0.4468  0.2127
 6920TIP3    H142175   4.592   5.039   2.862 -0.1195 -0.2726 -0.7787
 6920TIP3    H242176   4.472   4.971   2.925  0.2193 -0.1377  0.0310
 6921TIP3   OH242177   2.722   2.869  17.358  0.0582 -0.0636  0.0831
 6921TIP3    H142178   2.780   2.797  17.383 -0.5656 -0.9824 -0.9980
 6921TIP3    H242179   2.781   2.939  17.331  0.6759 -0.2413  0.9256
 6922TIP3   OH242180   3.277   3.945   6.927 -0.0467 -0.9867  0.3886
 6922TIP3    H142181   3.325   3.973   6.850 -0.3709 -0.9114  0.2110
 6922TIP3    H242182   3.276   4.022   6.984 -1.2403 -0.4978 -0.2498
 6923TIP3   OH242183   0.968   3.229   4.204 -0.3210  0.7478  0.4908
 6923TIP3    H142184   1.035   3.220   4.272  0.6143  0.3861 -0.4446
 6923TIP3    H242185   0.979   3.150   4.150  1.6414  2.7669 -2.3685
 6924TIP3   OH242186   6.468   5.251   4.496  0.3384  0.0181  0.2092
 6924TIP3    H142187   6.386   5.238   4.544 -0.5555 -1.4662 -1.5757
 6924TIP3    H242188   6.527   5.184   4.532  0.6796  0.8210  1.2073
 6925TIP3   OH242189   3.887   1.037   5.510 -0.1674  0.6564 -0.3887
 6925TIP3    H142190   3.923   0.962   5.557  0.2854  0.2972 -1.2782
 6925TIP3    H242191   3.898   1.110   5.569  1.8180  0.5062 -0.5173
 6926TIP3   OH242192   2.618   4.945   1.898 -0.4382 -0.0650  0.0033
 6926TIP3    H142193   2.656   4.858   1.913  0.2069 -0.1070 -1.6488
 6926TIP3    H242194   2.586   4.941   1.808 -0.0310  1.5590 -0.2256
 6927TIP3   OH242195   3.069   4.274   5.376  0.2635 -0.6651 -0.1466
 6927TIP3    H142196   3.123   4.302   5.450  0.4083  0.2697 -0.6020
 6927TIP3    H242197   3.128   4.275   5.301  0.1579 -1.7595 -0.2679
 6928TIP3   OH242198   5.060   1.450   1.945 -0.7119 -0.7878  0.0055
 6928TIP3    H142199   5.141   1.494   1.972 -0.9510  0.1953 -0.8562
 6928TIP3    H242200   5.000   1.464   2.019 -0.6342 -0.0718 -0.0624
 6929TIP3   OH242201   4.399   4.121   6.404  0.1841  0.1024  0.7822
 6929TIP3    H142202   4.488   4.086   6.411 -0.9974 -2.8420  2.6082
 6929TIP3    H242203   4.394   4.189   6.471  1.6146  1.9313 -0.8253
 6930TIP3   OH242204   4.452   1.157   0.953 -0.6257 -0.7830  0.1468
 6930TIP3    H142205   4.501   1.233   0.987 -0.7114 -1.0065  0.7820
 6930TIP3    H242206   4.518   1.089   0.943 -0.4948 -0.5427 -0.7107
 6931TIP3   OH242207   4.366   1.109  12.219  0.3931 -0.1094  0.1639
 6931TIP3    H142208   4.461   1.115  12.211  0.3478  1.5080  0.4580
 6931TIP3    H242209   4.337   1.200  12.226 -1.1467 -0.5934  0.4307
 6932TIP3   OH242210   2.739   6.750  17.167  0.2159 -0.2280 -0.3733
 6932TIP3    H142211   2.798   6.792  17.105  0.5527 -1.0658 -0.6357
 6932TIP3    H242212   2.673   6.707  17.113 -0.1810  0.0384 -0.1069
 6933TIP3   OH242213   2.291   5.976  17.205  0.3925  0.0624  0.0598
 6933TIP3    H142214   2.261   5.890  17.232  0.4156 -0.4236 -1.3393
 6933TIP3    H242215   2.385   5.975  17.221  0.4318 -0.2759 -0.1778
 6934TIP3   OH242216   3.935   6.452   1.439  0.2307 -0.1851  0.1477
 6934TIP3    H142217   3.978   6.512   1.500 -0.4387  2.3672 -1.7484
 6934TIP3    H242218   3.983   6.462   1.357 -1.4735 -0.2864 -0.9122
 6935TIP3   OH242219   1.449   0.586   3.235 -0.2597  0.0403  0.5783
 6935TIP3    H142220   1.487   0.610   3.319 -1.0075 -2.8950  1.8895
 6935TIP3    H242221   1.359   0.621   3.239 -0.4448 -0.4999  1.2109
 6936TIP3   OH242222   3.519   4.342  11.475 -0.9965  0.2829 -0.1998
 6936TIP3    H142223   3.500   4.277  11.543 -3.0981  1.0375  0.0117
 6936TIP3    H242224   3.587   4.301  11.421  1.2437 -0.0681  2.6641
 6937TIP3   OH242225   6.363   5.741   1.260 -0.2820  0.5196 -0.2724
 6937TIP3    H142226   6.427   5.790   1.311  0.8489 -0.9778 -0.1780
 6937TIP3    H242227   6.385   5.649   1.276  0.0981 -0.0434 -3.3355
 6938TIP3   OH242228   1.214   4.493   5.937 -0.7618 -0.1392  0.4343
 6938TIP3    H142229   1.156   4.554   5.984 -0.2195  0.0182  0.9144
 6938TIP3    H242230   1.251   4.438   6.006  0.3625  0.3569  0.2348
 6939TIP3   OH242231   5.150   0.438  14.636 -0.1051  0.0264  0.0967
 6939TIP3    H142232   5.088   0.466  14.569 -2.6395  1.3785  2.7927
 6939TIP3    H242233   5.189   0.520  14.668  0.3270 -0.5091  0.9680
 6940TIP3   OH242234   0.008   0.837  15.996 -0.5973  0.0675 -0.6278
 6940TIP3    H142235  -0.068   0.895  15.990  0.3197  1.5045  0.7205
 6940TIP3    H242236   0.053   0.846  15.912  0.1487  2.2917 -0.0500
 6941TIP3   OH242237   0.781   3.928  11.745  0.0661  0.4748 -0.3313
 6941TIP3    H142238   0.866   3.931  11.789 -1.3181 -1.0074  2.6864
 6941TIP3    H242239   0.768   3.836  11.723 -0.7435  0.6880 -0.7830
 6942TIP3   OH242240   1.161   3.204   4.413 -0.2483 -0.1107  0.2069
 6942TIP3    H142241   1.125   3.269   4.472 -0.5011 -0.5807  0.5763
 6942TIP3    H242242   1.255   3.218   4.416 -0.3226  0.4812 -0.0101
 6943TIP3   OH242243   5.514   0.613  12.742 -0.5036  0.3237  0.4097
 6943TIP3    H142244   5.542   0.541  12.798  0.8644  0.4487 -0.0780
 6943TIP3    H242245   5.506   0.688  12.801 -0.3383  0.1476  0.6555
 6944TIP3   OH242246   3.599   6.063  17.086 -0.3797 -0.1266 -0.4351
 6944TIP3    H142247   3.691   6.070  17.111 -0.4255  2.5767 -0.6436
 6944TIP3    H242248   3.598   6.079  16.992 -1.0307 -0.6577 -0.5291
 6945TIP3   OH242249   1.598   5.200  15.707  0.0308 -0.0453  0.3308
 6945TIP3    H142250   1.642   5.285  15.704 -0.4282  0.2053  0.7114
 6945TIP3    H242251   1.615   5.162  15.620 -1.3814  1.2568 -0.5562
 6946TIP3   OH242252   0.468   1.245  11.161 -0.0197 -0.3392  0.6746
 6946TIP3    H142253   0.502   1.212  11.244  0.2498  0.1944  0.7852
 6946TIP3    H242254   0.513   1.193  11.094  0.1735 -0.4000  0.8507
 6947TIP3   OH242255   0.564   6.144   0.780  0.0200 -0.1687 -0.5470
 6947TIP3    H142256   0.525   6.057   0.770 -0.6824  0.2101 -1.1518
 6947TIP3    H242257   0.644   6.140   0.728 -0.5053 -0.1513 -1.3729
 6948TIP3   OH242258   5.782   4.393   0.225 -0.2913  0.3087  0.0101
 6948TIP3    H142259   5.829   4.474   0.245 -0.0340  0.0320  0.5745
 6948TIP3    H242260   5.789   4.383   0.130 -0.1073  0.8185 -0.0292
 6949TIP3   OH242261   2.207   5.533   6.002 -0.0158  0.9020 -0.5267
 6949TIP3    H142262   2.187   5.451   6.048  2.4561  1.6627  2.2163
 6949TIP3    H242263   2.155   5.599   6.048 -1.0314  1.1196 -1.9148
 6950TIP3   OH242264   2.407   2.695  16.933  0.1901 -0.3567 -0.6070
 6950TIP3    H142265   2.481   2.750  16.958 -1.0618  0.5443  1.3311
 6950TIP3    H242266   2.442   2.635  16.867  2.6389 -0.0101  0.3162
 6951TIP3   OH242267   4.632   2.003   5.635  0.3233  0.2959 -0.4206
 6951TIP3    H142268   4.578   1.989   5.557 -0.2658  1.3344 -0.2199
 6951TIP3    H242269   4.687   2.078   5.613 -0.4770  1.1715  0.4624
 6952TIP3   OH242270   3.188   6.316  17.316  0.4088 -0.0483  0.0431
 6952TIP3    H142271   3.186   6.255  17.390 -0.4179 -0.1156 -0.0271
 6952TIP3    H242272   3.273   6.302  17.275 -0.0184 -1.6139 -0.3627
 6953TIP3   OH242273   3.619   3.524  15.806  0.9516  0.0117 -0.1324
 6953TIP3    H142274   3.621   3.438  15.763 -1.0503 -0.9470  1.4755
 6953TIP3    H242275   3.703   3.531  15.850  1.8650 -0.2872 -1.7650
 6954TIP3   OH242276   6.129   0.487   2.040  0.2218 -0.4524 -0.0921
 6954TIP3    H142277   6.216   0.491   1.999 -0.1352 -0.8055 -0.8974
 6954TIP3    H242278   6.145   0.508   2.132  0.7958  2.2969 -0.7360
 6955TIP3   OH242279   4.277   6.448  11.164  0.4676 -0.0265  0.6460
 6955TIP3    H142280   4.185   6.450  11.138  0.6115  1.4741  0.1347
 6955TIP3    H242281   4.289   6.527  11.217  0.9854 -1.2877  2.5204
 6956TIP3   OH242282   4.948   5.758   4.489 -0.4695 -0.0433  0.2652
 6956TIP3    H142283   4.953   5.849   4.518 -0.1073  0.1663 -0.4332
 6956TIP3    H242284   5.008   5.753   4.415  2.4574 -1.7453  2.5259
 6957TIP3   OH242285   3.050   5.178  13.925 -0.3796 -0.3341 -0.5180
 6957TIP3    H142286   3.105   5.254  13.943 -2.8967  1.2788  1.2394
 6957TIP3    H242287   3.015   5.193  13.837 -0.5215  0.3471 -0.3492
 6958TIP3   OH242288   0.130   4.538  16.900  0.0299  0.4354  0.0217
 6958TIP3    H142289   0.176   4.547  16.817 -0.3893  1.2424 -0.1362
 6958TIP3    H242290   0.068   4.611  16.901  0.6248  0.9520  1.4349
 6959TIP3   OH242291   4.436   5.928   4.938  0.4261  0.0935 -0.0763
 6959TIP3    H142292   4.382   5.855   4.908  0.3932  0.6724 -1.4706
 6959TIP3    H242293   4.507   5.886   4.988  0.0258 -0.8295 -0.2730
 6960TIP3   OH242294   6.027   3.942   4.077  0.1093 -0.0255 -0.6706
 6960TIP3    H142295   6.033   4.013   4.140 -0.9450 -0.3224 -0.2221
 6960TIP3    H242296   6.115   3.935   4.040  1.4069 -1.3028  2.3298
 6961TIP3   OH242297   1.654   4.996   0.919 -0.0382 -0.5975 -0.3976
 6961TIP3    H142298   1.574   4.945   0.934 -0.4704  0.1313 -0.2016
 6961TIP3    H242299   1.635   5.049   0.842 -0.5881  1.2102  0.9063
 6962TIP3   OH242300   4.467   2.503   4.509  0.4041  0.6312  0.2010
 6962TIP3    H142301   4.543   2.484   4.564  0.4228 -0.5096 -0.1964
 6962TIP3    H242302   4.449   2.596   4.525 -0.4705  0.0690  3.2072
 6963TIP3   OH242303   5.327   4.880   1.044 -0.4745  0.2955 -0.5768
 6963TIP3    H142304   5.295   4.806   0.992 -1.4754  0.7115 -0.5564
 6963TIP3    H242305   5.331   4.953   0.982 -1.1961  0.6680 -0.1996
 6964TIP3   OH242306   5.586   1.425  15.147 -0.0856 -0.0151  0.3974
 6964TIP3    H142307   5.645   1.421  15.072  0.6804 -0.4179  1.0187
 6964TIP3    H242308   5.511   1.474  15.115  0.4454  0.2342 -0.4916
 6965TIP3   OH242309   3.118   3.695   0.214 -0.6154  0.1169 -0.4572
 6965TIP3    H142310   3.184   3.634   0.180  0.3559  1.7947 -1.7467
 6965TIP3    H242311   3.069   3.644   0.278  0.2352 -1.9567 -1.3774
 6966TIP3   OH242312   2.952   3.524  14.626  0.4072 -0.5174  0.1575
 6966TIP3    H142313   3.008   3.553  14.698  2.2191  1.3744 -1.8436
 6966TIP3    H242314   2.893   3.599  14.611  0.0657 -0.8827 -0.3427
 6967TIP3   OH242315   0.623   3.085  15.416 -0.0002 -0.4824 -0.6616
 6967TIP3    H142316   0.701   3.079  15.360 -0.0969  0.4045 -0.9149
 6967TIP3    H242317   0.637   3.020  15.485  0.9476 -0.3643 -0.7294
 6968TIP3   OH242318   3.273   2.078   0.485 -0.7116  0.0234 -0.5094
 6968TIP3    H142319   3.179   2.075   0.472 -0.6204  0.0909 -1.1959
 6968TIP3    H242320   3.311   2.068   0.398 -0.0968  0.6262 -0.3273
 6969TIP3   OH242321   6.259   3.727  16.789 -0.3613 -0.1883  0.7817
 6969TIP3    H142322   6.194   3.793  16.811  2.0395  2.9866 -0.9459
 6969TIP3    H242323   6.240   3.703  16.698  0.5062  0.3563  0.4437
 6970TIP3   OH242324   1.252   3.950  12.468 -0.1491 -0.4423  0.1129
 6970TIP3    H142325   1.167   3.908  12.483  0.4594 -1.2881  1.3205
 6970TIP3    H242326   1.311   3.878  12.445 -0.2462  0.3703 -3.3659
 6971TIP3   OH242327   1.333   1.440  16.269 -0.2870 -0.1139 -0.9487
 6971TIP3    H142328   1.427   1.436  16.250 -0.0756 -1.3015  0.1749
 6971TIP3    H242329   1.291   1.398  16.195 -0.1941  2.7484 -2.7681
 6972TIP3   OH242330   2.114   5.999   3.646 -0.0899  0.3526 -0.6434
 6972TIP3    H142331   2.199   5.959   3.662  0.6982  2.1760 -0.0920
 6972TIP3    H242332   2.118   6.028   3.554  0.5511  1.9037 -0.1555
 6973TIP3   OH242333   5.556   3.465   1.241  0.1664  0.5736  0.0370
 6973TIP3    H142334   5.526   3.392   1.296 -0.9854  0.8254 -0.2391
 6973TIP3    H242335   5.644   3.484   1.274 -0.7075  1.0981  2.2163
 6974TIP3   OH242336   6.240   6.108  14.953 -0.0095  0.0857 -0.4569
 6974TIP3    H142337   6.163   6.056  14.929  1.6158 -2.0802 -1.3032
 6974TIP3    H242338   6.315   6.050  14.934  1.7577  0.8669  3.2478
 6975TIP3   OH242339   3.639   5.435  16.657 -0.2831 -0.1771  0.4572
 6975TIP3    H142340   3.730   5.415  16.635  0.0392 -0.8507  2.2275
 6975TIP3    H242341   3.589   5.365  16.615  0.2067 -0.8548  0.9685
 6976TIP3   OH242342   3.617   5.592   0.085  0.3053  0.6284  0.1781
 6976TIP3    H142343   3.641   5.684   0.075  0.9745  0.4676  0.2526
 6976TIP3    H242344   3.527   5.594   0.119  0.6256  1.2655  1.0142
 6977TIP3   OH242345   6.042   0.322  15.295  0.3623  0.1937 -0.1768
 6977TIP3    H142346   6.091   0.360  15.368 -0.0721  1.0817 -0.3331
 6977TIP3    H242347   5.954   0.358  15.304  0.8957  2.3109 -2.5236
 6978TIP3   OH242348   2.335   1.981   5.830  0.3835 -0.4974  0.4219
 6978TIP3    H142349   2.243   1.977   5.804  0.5037 -1.3373  0.0972
 6978TIP3    H242350   2.366   1.891   5.825  1.8731  0.0347 -1.8909
 6979TIP3   OH242351   3.440   4.640   1.600 -0.4223  0.2092  0.2694
 6979TIP3    H142352   3.454   4.693   1.522 -2.6060 -0.1376 -0.4313
 6979TIP3    H242353   3.358   4.593   1.583  0.1414 -1.5064  1.8997
 6980TIP3   OH242354   2.244   3.070  14.511 -0.3640 -0.4880  0.3969
 6980TIP3    H142355   2.329   3.107  14.535  0.1543 -0.5822 -1.1761
 6980TIP3    H242356   2.182   3.142  14.524  0.3321  0.3484 -0.7163
 6981TIP3   OH242357   0.036   6.673  13.395 -0.0319  0.1373  0.0425
 6981TIP3    H142358   0.023   6.616  13.319  0.5965 -0.3332  0.2702
 6981TIP3    H242359  -0.004   6.625  13.467  0.6977 -0.1367  0.2776
 6982TIP3   OH242360   2.992   3.362   3.225  0.2954  0.1431  0.4833
 6982TIP3    H142361   3.036   3.277   3.233  0.1456  0.1549  1.6284
 6982TIP3    H242362   2.987   3.395   3.315  0.0675  1.2238  0.0927
 6983TIP3   OH242363   0.674   4.223  11.705 -0.1338 -0.1872 -0.0663
 6983TIP3    H142364   0.687   4.137  11.745 -0.0998 -0.7268 -1.1831
 6983TIP3    H242365   0.680   4.206  11.611  0.0150  1.0705 -0.2947
 6984TIP3   OH242366   3.729   5.956  16.797 -0.2000 -0.3168  0.1147
 6984TIP3    H142367   3.726   5.910  16.713 -0.1696  1.6554 -1.0327
 6984TIP3    H242368   3.804   5.918  16.842  1.3519  0.2529 -1.8301
 6985TIP3   OH242369   5.848   3.596  16.904 -0.7478  0.3669  0.0491
 6985TIP3    H142370   5.834   3.671  16.961  0.4951  0.5995  0.0953
 6985TIP3    H242371   5.871   3.634  16.819  0.1613  0.0587  0.1452
 6986TIP3   OH242372   2.992   2.415   5.834  0.2087 -0.4272 -0.3168
 6986TIP3    H142373   2.977   2.504   5.865 -2.3230 -0.9811  0.3513
 6986TIP3    H242374   2.923   2.401   5.769  0.2693 -2.0227 -0.0720
 6987TIP3   OH242375   6.530   6.129  14.674  0.4487 -0.1889 -0.3257
 6987TIP3    H142376   6.545   6.200  14.737 -0.5488 -0.0402 -0.2369
 6987TIP3    H242377   6.471   6.166  14.609  0.3427 -0.7736 -0.5719
 6988TIP3   OH242378   5.579   2.967   6.168  0.3255  0.1201  0.4807
 6988TIP3    H142379   5.668   2.960   6.134  0.6420  1.6039  0.9285
 6988TIP3    H242380   5.589   2.960   6.263 -0.1316 -0.3589  0.5052
 6989TIP3   OH242381   1.613   5.126  10.629  0.0001  0.0393 -0.3601
 6989TIP3    H142382   1.692   5.100  10.677  1.0383  2.1824 -0.7725
 6989TIP3    H242383   1.541   5.110  10.689  0.7309 -1.9230  0.0455
 6990TIP3   OH242384   3.680   0.735  14.086  0.4834 -0.3724  0.1000
 6990TIP3    H142385   3.589   0.765  14.093 -0.1601 -2.2044  0.1057
 6990TIP3    H242386   3.708   0.725  14.177  0.6742  0.1028  0.0972
 6991TIP3   OH242387   4.384   0.040  15.649 -0.5756 -0.0550 -0.1670
 6991TIP3    H142388   4.307  -0.009  15.619  0.2948 -1.0716 -0.8058
 6991TIP3    H242389   4.418   0.083  15.571  0.3207 -0.7839 -0.2016
 6992TIP3   OH242390   2.343   0.915  15.566  0.2744  0.1269  0.2412
 6992TIP3    H142391   2.432   0.901  15.597  0.0327 -1.0963  0.4749
 6992TIP3    H242392   2.331   1.010  15.567  2.1646  0.4444 -1.5458
 6993TIP3   OH242393   3.861   3.256   1.308  0.4553  0.1774 -0.9667
 6993TIP3    H142394   3.822   3.221   1.388 -0.2150  0.2436 -1.2548
 6993TIP3    H242395   3.822   3.343   1.298 -0.0729 -0.1389 -1.7783
 6994TIP3   OH242396   0.515   3.280   2.486 -0.9939  0.2448  0.8441
 6994TIP3    H142397   0.606   3.255   2.498 -0.6449 -0.2149 -2.0337
 6994TIP3    H242398   0.510   3.370   2.519  0.5036  0.2986  0.9754
 6995TIP3   OH242399   1.097   2.235  15.712  0.1128 -0.8056  0.2646
 6995TIP3    H142400   1.008   2.216  15.685  0.1619 -1.1960  0.3770
 6995TIP3    H242401   1.102   2.204  15.802  0.3513 -0.7506  0.2707
 6996TIP3   OH242402   4.218   4.941   1.782 -0.3647  0.6173  1.0587
 6996TIP3    H142403   4.230   4.970   1.692  0.2120  2.1641  1.6079
 6996TIP3    H242404   4.213   4.845   1.776  0.9168  0.6103 -0.4720
 6997TIP3   OH242405   6.409   4.946  16.349  0.2376  0.6266  0.1423
 6997TIP3    H142406   6.330   4.953  16.402  0.5127  2.6297  0.3872
 6997TIP3    H242407   6.463   5.021  16.377  2.0480 -0.4401 -0.3030
 6998TIP3   OH242408   5.922   2.068   3.078  0.4909  0.2568 -0.1068
 6998TIP3    H142409   5.859   2.042   3.010 -0.1792  1.2096  0.1278
 6998TIP3    H242410   5.947   1.986   3.121 -1.3275 -0.0641  0.4159
 6999TIP3   OH242411   5.891   2.548  12.694 -0.2645 -0.3325  0.1133
 6999TIP3    H142412   5.929   2.492  12.627 -1.7530 -1.0293 -0.1821
 6999TIP3    H242413   5.883   2.491  12.771 -0.5073 -0.1240  0.2426
 7000TIP3   OH242414   1.644   6.719   3.394 -0.0992  0.2258 -0.0221
 7000TIP3    H142415   1.609   6.790   3.448  1.2533  0.6444  0.3426
 7000TIP3    H242416   1.728   6.753   3.362 -0.2179 -0.5623 -1.2334
 7001TIP3   OH242417   3.450   5.184  14.750 -0.3105  0.4037 -0.4107
 7001TIP3    H142418   3.458   5.279  14.755 -0.2386  0.4237 -0.8730
 7001TIP3    H242419   3.416   5.167  14.662 -0.2340 -0.0025 -0.3646
 7002TIP3   OH242420   3.320   3.159   0.904  0.0067 -0.7481 -0.0068
 7002TIP3    H142421   3.401   3.182   0.857 -1.5250  1.2650 -1.8750
 7002TIP3    H242422   3.277   3.096   0.846 -1.7032  1.4383 -1.2821
 7003TIP3   OH242423   5.742   6.722  11.507  0.2694 -0.6833  0.3330
 7003TIP3    H142424   5.706   6.663  11.574 -0.7439 -1.1702 -0.6065
 7003TIP3    H242425   5.806   6.668  11.461  1.2851 -0.2161  1.1613
 7004TIP3   OH242426   3.812   3.493  14.835  0.3685  0.0175 -0.2535
 7004TIP3    H142427   3.742   3.438  14.871  0.6528 -0.0755  0.1629
 7004TIP3    H242428   3.871   3.433  14.790  0.8671 -0.0715  0.5022
 7005TIP3   OH242429   4.506   2.437  12.502  0.2251  0.2056 -0.2515
 7005TIP3    H142430   4.578   2.500  12.499 -2.0512  2.9618 -1.3843
 7005TIP3    H242431   4.488   2.417  12.410 -0.9006  0.1455 -0.0303
 7006TIP3   OH242432   4.983   2.996   4.088 -0.1124 -0.0732  0.5172
 7006TIP3    H142433   4.932   3.077   4.082 -0.2042 -0.2194 -1.3704
 7006TIP3    H242434   4.918   2.928   4.107 -0.0723  0.2212  1.8232
 7007TIP3   OH242435   4.769   3.134   6.396  0.0740 -0.9673  0.0873
 7007TIP3    H142436   4.687   3.142   6.347 -0.2102 -2.9161  0.1530
 7007TIP3    H242437   4.742   3.114   6.485  0.6169 -0.6405  0.3274
 7008TIP3   OH242438   5.234   5.517  12.892 -0.4214  0.6061  0.0422
 7008TIP3    H142439   5.238   5.476  12.978 -2.7977 -0.9070 -0.4319
 7008TIP3    H242440   5.145   5.552  12.887 -0.0704  1.3598 -1.5091
 7009TIP3   OH242441   0.455   5.026   5.346 -0.2910 -0.6264  0.2421
 7009TIP3    H142442   0.507   5.024   5.426  0.4201 -2.7864 -0.1838
 7009TIP3    H242443   0.460   5.117   5.316  0.8511 -0.1519  1.7445
 7010TIP3   OH242444   4.621   2.662  11.145 -0.3152 -0.1404 -0.5019
 7010TIP3    H142445   4.667   2.730  11.095 -0.6665  0.3346 -0.1972
 7010TIP3    H242446   4.534   2.659  11.106 -0.1694 -0.7202 -0.7878
 7011TIP3   OH242447   0.668   6.394   0.004 -0.6065 -0.6528 -0.1923
 7011TIP3    H142448   0.705   6.476   0.037  1.1215 -2.0391  1.6105
 7011TIP3    H242449   0.602   6.421  -0.060  1.5208  2.1012 -1.4781
 7012TIP3   OH242450   6.395   5.190  12.085  0.2400  0.4583 -0.2718
 7012TIP3    H142451   6.479   5.185  12.039 -0.6274 -2.2830 -1.8373
 7012TIP3    H242452   6.377   5.100  12.112 -0.5557  1.5460  3.3345
 7013TIP3   OH242453   0.028   1.445  11.211 -0.0696 -0.1657 -0.3676
 7013TIP3    H142454   0.064   1.358  11.229  0.5815  0.0960 -0.3943
 7013TIP3    H242455  -0.028   1.464  11.286 -0.4018 -0.7000 -0.4687
 7014TIP3   OH242456   5.923   4.615   4.444 -0.3683 -0.2685  0.6249
 7014TIP3    H142457   5.933   4.683   4.378  0.1899 -0.4651  0.5001
 7014TIP3    H242458   5.842   4.570   4.420  0.4055 -1.0736 -0.6205
 7015TIP3   OH242459   1.911   5.479   6.068 -0.4932  0.0832 -0.2917
 7015TIP3    H142460   1.875   5.534   5.998 -1.3317 -0.6577 -0.4535
 7015TIP3    H242461   1.843   5.480   6.136 -0.3062 -0.3699 -0.0960
 7016TIP3   OH242462   1.926   0.552   5.426 -0.5611  0.0574 -1.4315
 7016TIP3    H142463   1.851   0.611   5.422 -1.2739 -0.8242 -1.2877
 7016TIP3    H242464   1.961   0.564   5.514 -2.4598 -1.8079 -0.3374
 7017TIP3   OH242465   5.513   1.284  13.177 -0.2148  0.1920 -0.0692
 7017TIP3    H142466   5.604   1.266  13.201  0.1617  1.0052 -0.8691
 7017TIP3    H242467   5.497   1.373  13.209 -1.2826 -0.5420  1.6037
 7018TIP3   OH242468   0.371   4.425   1.241  0.2339  0.4848  0.1664
 7018TIP3    H142469   0.467   4.418   1.243  0.2672  0.9151  0.3803
 7018TIP3    H242470   0.348   4.416   1.149  0.3777 -0.7884  0.2352
 7019TIP3   OH242471   2.998   1.540   0.213 -0.4209  0.8317  0.1638
 7019TIP3    H142472   3.086   1.562   0.183 -0.6096  0.9430 -0.3132
 7019TIP3    H242473   3.010   1.461   0.267  0.0131  1.0564  0.4019
 7020TIP3   OH242474   6.607   6.497   0.935 -0.2470  0.2474  0.1541
 7020TIP3    H142475   6.526   6.463   0.897 -0.1613 -0.1527  0.3182
 7020TIP3    H242476   6.632   6.431   1.000  0.1884  0.3865  0.1307
 7021TIP3   OH242477   1.514   3.990   2.012  0.5306  0.2525 -0.4362
 7021TIP3    H142478   1.521   3.953   1.924  0.0885 -1.6713  0.2859
 7021TIP3    H242479   1.512   3.914   2.070 -1.1198  1.4076  1.1215
 7022TIP3   OH242480   1.851   6.297   1.347 -0.3707 -0.6028 -0.3001
 7022TIP3    H142481   1.793   6.223   1.365  0.6088 -1.0214  1.3752
 7022TIP3    H242482   1.811   6.342   1.273 -4.3187  0.6677  2.2938
 7023TIP3   OH242483   6.515   5.452   4.730 -0.3424 -0.0738 -0.4573
 7023TIP3    H142484   6.447   5.409   4.678 -2.0724  1.8376  0.0953
 7023TIP3    H242485   6.506   5.414   4.817 -1.7577  1.2146 -0.0101
 7024TIP3   OH242486   2.110   2.660  16.625  0.0398  0.6754 -0.2508
 7024TIP3    H142487   2.105   2.566  16.604  0.5481  0.4111  0.7579
 7024TIP3    H242488   2.178   2.693  16.566 -1.0149  0.6950 -1.5150
 7025TIP3   OH242489   2.266   6.222   2.438  0.4182  0.0908  0.2277
 7025TIP3    H142490   2.278   6.159   2.367  0.0600 -2.4515  2.2688
 7025TIP3    H242491   2.192   6.276   2.411  0.3938 -0.6817 -1.3611
 7026TIP3   OH242492   1.317   2.433   4.735  0.2416  0.3313 -0.1153
 7026TIP3    H142493   1.379   2.500   4.705  1.0234  0.1638  1.0331
 7026TIP3    H242494   1.370   2.353   4.742  0.1471  0.3936  1.7750
 7027TIP3   OH242495   1.419   4.765   5.579  0.1600 -0.0554 -0.3059
 7027TIP3    H142496   1.358   4.813   5.523  0.1540 -0.6866 -0.8595
 7027TIP3    H242497   1.477   4.832   5.614 -0.4851  0.4787 -0.2419
 7028TIP3   OH242498   5.713   5.585   0.677 -0.7951  0.2328 -0.4388
 7028TIP3    H142499   5.663   5.665   0.661 -2.1374 -0.6581 -0.8671
 7028TIP3    H242500   5.647   5.516   0.680  0.2599 -0.7644  0.6854
 7029TIP3   OH242501   2.624   3.334  16.918  0.0965 -0.4457  0.7093
 7029TIP3    H142502   2.651   3.249  16.954 -0.1944 -1.1474 -0.6551
 7029TIP3    H242503   2.539   3.317  16.878  0.4715  0.2394 -0.4243
 7030TIP3   OH242504   5.119   0.170  13.459 -0.4144 -1.0081  0.7382
 7030TIP3    H142505   5.201   0.202  13.496 -0.4948 -0.4384  0.4362
 7030TIP3    H242506   5.141   0.148  13.368 -0.5039 -1.2434  0.7729
 7031TIP3   OH242507   2.584   0.619   5.177 -0.6084  0.3461 -0.1803
 7031TIP3    H142508   2.512   0.668   5.217 -0.1583 -0.2016  1.3909
 7031TIP3    H242509   2.557   0.528   5.182  0.6348  0.0193  1.4980
 7032TIP3   OH242510   6.222   2.327  14.586  0.2792 -0.2750  0.1007
 7032TIP3    H142511   6.180   2.316  14.501  0.3978  1.2519 -0.1923
 7032TIP3    H242512   6.180   2.262  14.643 -0.8851 -0.2913 -0.7408
 7033TIP3   OH242513   2.550   4.985   6.135  0.0418  0.1269  0.2298
 7033TIP3    H142514   2.633   4.951   6.167  1.6229  1.3933 -2.2182
 7033TIP3    H242515   2.544   5.073   6.172  0.9987  0.9099 -1.3537
 7034TIP3   OH242516   4.810   2.158  15.645 -0.2906 -0.1028 -0.1988
 7034TIP3    H142517   4.854   2.243  15.639 -0.9926  0.2049 -1.1078
 7034TIP3    H242518   4.841   2.109  15.569 -1.7468  0.2463 -1.0592
 7035TIP3   OH242519   4.803   5.442  13.302  0.3382  0.6946  0.0963
 7035TIP3    H142520   4.841   5.357  13.276 -2.5528 -0.2329 -1.6449
 7035TIP3    H242521   4.840   5.460  13.388  2.4001 -1.4619 -0.2302
 7036TIP3   OH242522   5.807   4.677   1.230 -0.0483  0.6289 -0.0481
 7036TIP3    H142523   5.898   4.704   1.243  0.0409 -0.2884  1.4166
 7036TIP3    H242524   5.785   4.628   1.309 -0.5840 -2.4613 -1.9265
 7037TIP3   OH242525   5.711   4.699  13.901 -0.0151  0.4766 -0.3953
 7037TIP3    H142526   5.752   4.664  13.980 -1.6784  1.5509  1.0112
 7037TIP3    H242527   5.674   4.783  13.928 -1.0839  0.6348 -2.1879
 7038TIP3   OH242528   3.367   2.264   3.816  0.0366  0.2697 -0.2998
 7038TIP3    H142529   3.431   2.236   3.751  0.9821  2.3333 -0.3500
 7038TIP3    H242530   3.299   2.309   3.766  1.0501  2.3658  0.0895
 7039TIP3   OH242531   6.020   0.892   0.916 -0.4713 -0.1922 -0.2511
 7039TIP3    H142532   5.950   0.916   0.977 -0.4686 -0.3334 -0.1929
 7039TIP3    H242533   5.979   0.900   0.830 -0.2901  0.6388 -0.2707
 7040TIP3   OH242534   2.458   6.334  11.326 -0.3359  0.7247  0.1447
 7040TIP3    H142535   2.396   6.339  11.253  0.7297 -1.6799 -1.0213
 7040TIP3    H242536   2.455   6.422  11.364 -1.7493  1.7712 -2.0877
 7041TIP3   OH242537   5.035   1.294  12.570  0.1007  0.5201 -0.0458
 7041TIP3    H142538   5.006   1.209  12.603 -2.2841  0.9834 -0.7386
 7041TIP3    H242539   5.060   1.277  12.479 -2.4859  0.8450 -0.9018
 7042TIP3   OH242540   2.338   3.015   4.245  0.1177 -0.0002 -0.5363
 7042TIP3    H142541   2.348   2.977   4.158 -0.2919 -1.2530 -0.0475
 7042TIP3    H242542   2.404   2.972   4.298  0.2649  0.6512 -0.1769
 7043TIP3   OH242543   4.029   4.427   3.747  0.4081  0.6069  0.1219
 7043TIP3    H142544   4.078   4.399   3.824  0.1415  1.1309  0.4816
 7043TIP3    H242545   4.095   4.467   3.690  0.6704 -0.1045 -0.0973
 7044TIP3   OH242546   4.104   0.920  13.261  0.0778 -0.3765 -0.5256
 7044TIP3    H142547   4.108   0.962  13.175  0.3641  2.2052  0.6468
 7044TIP3    H242548   4.186   0.871  13.267  0.2586 -0.2309 -1.5553
 7045TIP3   OH242549   2.676   4.601  15.874 -0.2099 -0.2237  0.3844
 7045TIP3    H142550   2.617   4.548  15.821  0.2799  0.4278 -0.8469
 7045TIP3    H242551   2.764   4.579  15.842  0.2013 -0.8344  1.8718
 7046TIP3   OH242552   1.815   5.591   0.613 -0.4252  0.6890 -0.6762
 7046TIP3    H142553   1.722   5.571   0.601 -0.4001  0.9990 -1.4995
 7046TIP3    H242554   1.817   5.684   0.634 -0.4128  0.3000  1.2469
 7047TIP3   OH242555   6.703   5.624  11.403 -0.4320  0.9642 -0.3830
 7047TIP3    H142556   6.652   5.644  11.483 -1.1537 -1.9823 -0.0057
 7047TIP3    H242557   6.653   5.665  11.333 -2.0242  0.2318  0.2703
 7048TIP3   OH242558   0.906   5.171   3.378  0.1222 -0.1586 -0.7010
 7048TIP3    H142559   0.957   5.205   3.451 -1.8391  0.5900  0.4057
 7048TIP3    H242560   0.971   5.138   3.316  1.8898  0.2974  0.8258
 7049TIP3   OH242561   6.440   1.068  12.998 -0.2257  0.6721 -0.0321
 7049TIP3    H142562   6.518   1.064  13.053  0.2764  0.8909 -0.7125
 7049TIP3    H242563   6.374   1.109  13.054  0.2652  0.8662  0.4192
 7050TIP3   OH242564   0.145   1.106  12.236  0.1383  0.3882  0.0366
 7050TIP3    H142565   0.189   1.068  12.159 -0.9008  0.7828 -0.7738
 7050TIP3    H242566   0.212   1.162  12.276  1.0024 -0.5722 -0.0043
 7051TIP3   OH242567   2.324   1.188   5.929  0.7431 -0.2256 -0.4477
 7051TIP3    H142568   2.395   1.208   5.989  0.9542 -0.4578 -0.6162
 7051TIP3    H242569   2.244   1.197   5.981  0.9659 -1.2796  0.1040
 7052TIP3   OH242570   6.176   2.634   2.003 -0.0301 -0.6518  0.2446
 7052TIP3    H142571   6.084   2.621   2.026  0.1188 -1.4170  0.4219
 7052TIP3    H242572   6.215   2.547   2.010  0.7200 -0.3203  0.2263
 7053TIP3   OH242573   6.340   4.731   2.760 -0.1607  0.2844 -0.2815
 7053TIP3    H142574   6.270   4.761   2.701 -0.2635 -0.8088 -0.7445
 7053TIP3    H242575   6.300   4.731   2.847 -1.0196 -1.0753 -0.6405
 7054TIP3   OH242576   4.241   2.495   4.784 -0.1848 -0.0790  0.0433
 7054TIP3    H142577   4.300   2.561   4.747 -1.7663  0.5081 -1.5701
 7054TIP3    H242578   4.160   2.543   4.801 -1.7926 -1.7650 -2.3033
 7055TIP3   OH242579   3.742   1.250  13.887 -0.3743 -0.3589  0.1617
 7055TIP3    H142580   3.725   1.168  13.841  0.5018 -0.7476  0.4973
 7055TIP3    H242581   3.828   1.278  13.855 -0.8839  0.7040 -0.3329
 7056TIP3   OH242582   4.089   6.693  10.793  0.0296 -0.1839  0.2499
 7056TIP3    H142583   4.183   6.713  10.788 -0.1293  0.2509 -1.3889
 7056TIP3    H242584   4.083   6.600  10.770  0.0232 -0.1230  0.0068
 7057TIP3   OH242585   4.108   3.152   0.802  0.2474  0.1615 -1.6714
 7057TIP3    H142586   4.182   3.140   0.862 -0.4500 -0.0612 -0.8391
 7057TIP3    H242587   4.043   3.088   0.830 -1.2700  1.9691 -0.7635
 7058TIP3   OH242588   2.802   0.637   0.046  0.5893 -0.2828 -0.2239
 7058TIP3    H142589   2.860   0.693   0.097  1.1873 -1.3245  0.2713
 7058TIP3    H242590   2.860   0.585  -0.009 -0.0538  0.9500 -2.1506
 7059TIP3   OH242591   3.891   3.864   2.208  0.3180 -0.4453  0.1523
 7059TIP3    H142592   3.828   3.891   2.275 -0.3611  0.7307 -0.9135
 7059TIP3    H242593   3.897   3.939   2.149  0.9393 -1.4154 -1.0747
 7060TIP3   OH242594   4.307   4.407   5.109 -0.2228  0.3612  0.8751
 7060TIP3    H142595   4.258   4.332   5.141  1.7833 -2.6654 -2.3637
 7060TIP3    H242596   4.267   4.428   5.024  2.8202 -1.1852 -1.1085
 7061TIP3   OH242597   3.423   1.261   0.110  0.7794  0.0860  0.1061
 7061TIP3    H142598   3.420   1.351   0.142 -0.7427  1.0712 -2.4904
 7061TIP3    H242599   3.333   1.229   0.121  0.7398 -0.2770 -1.1633
 7062TIP3   OH242600   4.715   5.852   2.376  0.0676 -0.0876  0.3651
 7062TIP3    H142601   4.649   5.839   2.444 -0.9057 -2.4729 -0.9027
 7062TIP3    H242602   4.798   5.831   2.419 -0.3416 -0.0786  1.1864
 7063TIP3   OH242603   5.519   2.686  13.926 -0.6894 -0.1237 -0.1921
 7063TIP3    H142604   5.456   2.624  13.964 -0.2428 -0.6196 -0.2598
 7063TIP3    H242605   5.574   2.633  13.869 -0.8511  0.4865 -0.9303
 7064TIP3   OH242606   6.337   3.173   4.143 -0.3094 -0.4039 -0.0437
 7064TIP3    H142607   6.383   3.102   4.189 -2.0544 -1.0379  0.8265
 7064TIP3    H242608   6.367   3.253   4.186  1.6055 -0.5705 -0.9613
 7065TIP3   OH242609   3.232   5.891   2.965 -0.1546  0.0949  0.0165
 7065TIP3    H142610   3.141   5.880   2.940 -0.1853 -0.1861  0.2461
 7065TIP3    H242611   3.229   5.932   3.052 -0.0402  2.5017 -1.0507
 7066TIP3   OH242612   6.189   4.181   1.390 -0.8931 -0.4967 -0.2325
 7066TIP3    H142613   6.223   4.092   1.384 -2.4421 -1.1150 -0.1467
 7066TIP3    H242614   6.161   4.191   1.480 -0.8378  0.0475 -0.2703
 7067TIP3   OH242615   4.739   2.816   4.434 -0.0502 -0.3875  0.2633
 7067TIP3    H142616   4.681   2.756   4.386  0.8834 -1.2791  0.2182
 7067TIP3    H242617   4.826   2.778   4.424  0.4904  0.7062  0.6842
 7068TIP3   OH242618   5.513   0.787   2.559 -0.0761  0.4657  0.0694
 7068TIP3    H142619   5.501   0.710   2.504  1.8142  0.1255  0.0457
 7068TIP3    H242620   5.561   0.754   2.636 -1.0046  1.2728  1.0263
 7069TIP3   OH242621   4.123   0.186   4.358 -0.3671 -0.2718  0.2589
 7069TIP3    H142622   4.029   0.205   4.362 -0.0727  0.9976  2.0631
 7069TIP3    H242623   4.147   0.160   4.447  0.8536 -1.4692 -0.3724
 7070TIP3   OH242624   5.709   5.453  15.459  0.6860 -0.2274 -0.8256
 7070TIP3    H142625   5.639   5.494  15.511  0.9265  0.7971 -1.2710
 7070TIP3    H242626   5.670   5.374  15.423  0.3285 -0.6259  0.4162
 7071TIP3   OH242627   4.480   0.816  16.236 -0.1074 -0.2420  0.3596
 7071TIP3    H142628   4.524   0.857  16.161  0.6873  0.1410  1.0262
 7071TIP3    H242629   4.440   0.738  16.199 -0.0967  0.1694 -0.5610
 7072TIP3   OH242630   6.704   3.051   1.442  0.3288  0.3116  0.2002
 7072TIP3    H142631   6.614   3.026   1.420 -0.4381  2.9226  0.0043
 7072TIP3    H242632   6.758   2.982   1.404 -1.5544 -1.1936  0.0895
 7073TIP3   OH242633   2.609   5.258   0.918  0.0885  0.3959 -0.1796
 7073TIP3    H142634   2.619   5.186   0.856  0.1804  1.4956 -1.4885
 7073TIP3    H242635   2.543   5.228   0.980  1.1336 -1.3484  0.1342
 7074TIP3   OH242636   3.009   0.543  14.441 -0.3148 -0.4154  0.2496
 7074TIP3    H142637   3.088   0.533  14.494  0.2770 -0.3357 -0.6071
 7074TIP3    H242638   2.962   0.615  14.482  0.3083 -0.1226  0.4591
 7075TIP3   OH242639   0.045   6.184  16.450  0.5238 -0.2420 -0.2452
 7075TIP3    H142640   0.015   6.206  16.538  0.5072  1.1433 -0.5747
 7075TIP3    H242641   0.131   6.143  16.463  1.5171  1.8842  0.3410
 7076TIP3   OH242642   3.308   3.065   3.544  0.0319 -0.2694 -0.1349
 7076TIP3    H142643   3.395   3.078   3.583 -0.6501  0.9867  1.0424
 7076TIP3    H242644   3.298   3.138   3.483 -0.2113 -0.3943 -0.2452
 7077TIP3   OH242645   2.616   1.512  13.124  0.4432  0.6044 -0.0885
 7077TIP3    H142646   2.603   1.486  13.033  0.4341 -1.3956  0.4375
 7077TIP3    H242647   2.709   1.497  13.140  0.4408  0.9231  0.2305
 7078TIP3   OH242648   2.970   1.383  11.341 -0.5453  0.2397 -0.0399
 7078TIP3    H142649   3.065   1.375  11.347 -0.2825 -2.5354 -3.8739
 7078TIP3    H242650   2.937   1.307  11.389 -0.7717  0.6325  0.4281
 7079TIP3   OH242651   1.177   3.681   4.632 -0.2083 -0.1051 -0.1891
 7079TIP3    H142652   1.248   3.688   4.567 -0.0439 -0.1302 -0.0116
 7079TIP3    H242653   1.155   3.772   4.652 -1.0335 -0.0723 -1.1195
 7080TIP3   OH242654   4.787   5.109   2.074  0.2575  0.0202  0.3903
 7080TIP3    H142655   4.870   5.145   2.042  0.8343 -1.4712  0.1222
 7080TIP3    H242656   4.745   5.073   1.995  0.1172 -0.6708  0.7733
 7081TIP3   OH242657   3.680   2.084  11.048  0.0848 -0.3218  0.3645
 7081TIP3    H142658   3.668   2.176  11.022  1.7933 -0.1921 -0.0937
 7081TIP3    H242659   3.675   2.085  11.143 -0.1674  0.2042  0.3495
 7082TIP3   OH242660   3.457   1.552   5.658 -0.0318 -0.4036 -0.1746
 7082TIP3    H142661   3.431   1.565   5.566 -0.5380 -0.6951 -0.0785
 7082TIP3    H242662   3.407   1.618   5.706  0.5517  0.0261 -0.1513
 7083TIP3   OH242663   2.973   0.206   6.054 -0.0372  0.2811 -0.3134
 7083TIP3    H142664   3.023   0.278   6.092 -0.9823  0.7301  0.0828
 7083TIP3    H242665   3.018   0.127   6.086 -0.3604  0.6527  1.1359
 7084TIP3   OH242666   2.878   5.524  13.202  0.0062 -0.6291  0.0421
 7084TIP3    H142667   2.858   5.432  13.190 -0.9486 -0.4529  0.2101
 7084TIP3    H242668   2.968   5.534  13.170 -0.1024 -1.4948 -0.5511
 7085TIP3   OH242669   5.239   1.681  12.410 -0.2452 -0.0091  0.2664
 7085TIP3    H142670   5.327   1.689  12.372  0.7989 -0.2896  2.4219
 7085TIP3    H242671   5.227   1.762  12.459 -1.8737  0.6911 -1.1794
 7086TIP3   OH242672   0.424   6.411   3.502  0.4854  0.1921 -0.2140
 7086TIP3    H142673   0.329   6.403   3.513  0.5485  0.1496  0.3598
 7086TIP3    H242674   0.438   6.407   3.408 -0.0854  0.2132 -0.3040
 7087TIP3   OH242675   3.079   2.255   0.718  0.2512 -0.3905  0.9605
 7087TIP3    H142676   3.040   2.179   0.761 -2.1889  1.2587  1.9264
 7087TIP3    H242677   3.095   2.317   0.789 -1.8017  1.5736 -0.1597
 7088TIP3   OH242678   0.509   6.602   1.620  0.3242 -0.2269  0.0157
 7088TIP3    H142679   0.546   6.678   1.575  0.0350 -0.8782 -1.3862
 7088TIP3    H242680   0.586   6.553   1.650  0.7651 -1.6985 -3.0910
 7089TIP3   OH242681   1.646   2.528   3.398  0.1029 -0.0010  0.5508
 7089TIP3    H142682   1.560   2.532   3.441 -0.6403 -1.1684 -0.7158
 7089TIP3    H242683   1.696   2.466   3.451  0.6262  1.6165  2.0056
 7090TIP3   OH242684   1.371   2.857   4.554  0.1668 -0.3424  0.0946
 7090TIP3    H142685   1.427   2.783   4.578 -0.5292 -0.5523  1.1200
 7090TIP3    H242686   1.287   2.839   4.597 -0.8775 -0.2909 -1.8222
 7091TIP3   OH242687   5.735   5.689  11.265  0.1079 -0.2327  0.0486
 7091TIP3    H142688   5.761   5.780  11.253 -0.7425  0.1764  1.1022
 7091TIP3    H242689   5.643   5.687  11.241  0.2193 -0.9103 -0.3442
 7092TIP3   OH242690   4.791   5.342   1.515 -0.1392  0.0484  0.1560
 7092TIP3    H142691   4.714   5.302   1.554 -0.0737 -0.6925 -0.4385
 7092TIP3    H242692   4.859   5.275   1.522  0.4229  0.6540  0.5792
 7093TIP3   OH242693   6.284   3.831   3.987 -0.3132 -0.0660 -0.0068
 7093TIP3    H142694   6.315   3.873   4.067  0.0708  0.8005 -0.5994
 7093TIP3    H242695   6.349   3.764   3.968 -0.9904 -1.0379  1.0073
 7094TIP3   OH242696   6.157   2.531   0.933  0.0182 -0.4541  0.0200
 7094TIP3    H142697   6.124   2.442   0.945  2.2640 -1.4299 -0.6265
 7094TIP3    H242698   6.252   2.523   0.941  0.3250  1.7867 -0.7211
 7095TIP3   OH242699   4.186   3.526   2.167  0.0217  0.5049 -0.5463
 7095TIP3    H142700   4.266   3.552   2.122  0.2112  0.9723  0.0440
 7095TIP3    H242701   4.214   3.454   2.225 -0.1592  0.1044 -0.9529
 7096TIP3   OH242702   3.241   6.390  14.166  0.4728  0.5340 -0.0865
 7096TIP3    H142703   3.310   6.456  14.171  0.9215 -0.0406  1.8626
 7096TIP3    H242704   3.238   6.351  14.253 -3.4222  1.6333  0.4673
 7097TIP3   OH242705   1.870   3.264   3.814 -0.2316 -0.1355 -0.1662
 7097TIP3    H142706   1.810   3.329   3.850  0.7138  1.3680 -1.1964
 7097TIP3    H242707   1.819   3.218   3.748 -0.5874  0.3591 -0.2406
 7098TIP3   OH242708   3.048   0.185  13.651 -0.1921 -0.3969  0.0768
 7098TIP3    H142709   3.026   0.278  13.657 -0.0051 -0.1876 -1.7551
 7098TIP3    H242710   3.119   0.181  13.587  0.8606 -1.6738  1.2638
 7099TIP3   OH242711   4.284   6.093   2.089 -0.1881  0.2678  0.8238
 7099TIP3    H142712   4.373   6.118   2.113  0.1508  0.4582 -0.5688
 7099TIP3    H242713   4.291   6.001   2.063 -0.0022  0.7870 -1.0945
 7100TIP3   OH242714   5.472   5.453  15.672  0.3379 -0.0879  0.0786
 7100TIP3    H142715   5.519   5.391  15.728 -1.1678  0.7157  2.3938
 7100TIP3    H242716   5.409   5.399  15.624  1.2134 -0.7052 -0.4199
 7101TIP3   OH242717   3.387   3.537   4.947 -0.3264 -0.1030  0.4133
 7101TIP3    H142718   3.384   3.570   5.037  0.6904 -0.3698  0.5645
 7101TIP3    H242719   3.365   3.445   4.955 -2.0611  0.2636  0.1354
 7102TIP3   OH242720   4.811   2.739   4.125  0.0832 -0.1717  0.2548
 7102TIP3    H142721   4.883   2.722   4.185 -0.9877 -0.4932  1.4977
 7102TIP3    H242722   4.735   2.700   4.168 -0.5548 -1.2789 -1.7958
 7103TIP3   OH242723   1.220   0.842  17.192  0.0204 -0.0694  0.0795
 7103TIP3    H142724   1.221   0.832  17.097  0.3292  4.0044 -0.5214
 7103TIP3    H242725   1.291   0.785  17.222  0.7309 -0.5473 -2.2668
 7104TIP3   OH242726   0.832   1.671   4.915 -0.2328  0.2440  0.4122
 7104TIP3    H142727   0.742   1.700   4.900 -0.4816 -0.8747 -0.3861
 7104TIP3    H242728   0.835   1.647   5.008 -0.4674  1.2288  0.6853
 7105TIP3   OH242729   4.095   6.663   5.668  0.0572 -0.6625  0.4570
 7105TIP3    H142730   4.049   6.638   5.588 -1.1362 -1.0560  1.2353
 7105TIP3    H242731   4.136   6.582   5.699 -0.0252 -0.6579  0.5798
 7106TIP3   OH242732   3.581   5.448  12.528 -0.0529  0.1646  0.3311
 7106TIP3    H142733   3.658   5.444  12.471 -0.9584 -2.2728 -0.8756
 7106TIP3    H242734   3.528   5.518  12.491  0.4028  0.0951 -0.5002
 7107TIP3   OH242735   3.996   3.255   0.116  0.4311  0.3563 -0.1015
 7107TIP3    H142736   3.979   3.281   0.026 -0.6819 -1.5743 -0.4942
 7107TIP3    H242737   3.919   3.283   0.165  0.5422  0.4198  0.0391
 7108TIP3   OH242738   0.848   3.022   2.218 -0.1092 -0.0677 -0.5148
 7108TIP3    H142739   0.800   3.045   2.138 -0.9541  0.4819  0.1428
 7108TIP3    H242740   0.863   3.105   2.262 -1.7939 -0.5615  1.0986
 7109TIP3   OH242741   5.763   2.576  15.366  0.1104 -0.2917  0.3195
 7109TIP3    H142742   5.773   2.638  15.438  1.1532  0.0917 -0.1277
 7109TIP3    H242743   5.830   2.510  15.381  1.0557  0.3524 -0.8285
 7110TIP3   OH242744   4.720   2.745  15.520  0.7052 -0.2948  0.0009
 7110TIP3    H142745   4.804   2.737  15.566  0.9291  0.7047 -0.2187
 7110TIP3    H242746   4.726   2.827  15.472 -0.6515  0.1155  0.4771
 7111TIP3   OH242747   2.925   4.698  13.578  0.6288  0.3485  0.4795
 7111TIP3    H142748   3.009   4.696  13.623  0.5337  1.9972  0.7953
 7111TIP3    H242749   2.947   4.700  13.485  0.8403 -2.0424  0.4021
 7112TIP3   OH242750   1.751   4.978  14.063  0.1027 -0.5648  0.2266
 7112TIP3    H142751   1.794   4.897  14.035 -1.6175 -1.8840  1.2182
 7112TIP3    H242752   1.790   4.997  14.148 -1.5689 -2.0571  1.3723
 7113TIP3   OH242753   2.130   5.993  14.733  0.8282  0.3960  0.3208
 7113TIP3    H142754   2.124   5.969  14.825  1.5903  0.3258  0.3533
 7113TIP3    H242755   2.129   6.089  14.733  0.9989  0.3987  0.4171
 7114TIP3   OH242756   1.400   3.463   0.740 -0.2994  0.0374 -0.1612
 7114TIP3    H142757   1.410   3.368   0.747  3.0557  0.2082 -1.1055
 7114TIP3    H242758   1.449   3.499   0.814  1.9266  1.0181 -1.9913
 7115TIP3   OH242759   0.925   4.410  14.402 -0.0288  0.1088 -0.1794
 7115TIP3    H142760   0.854   4.444  14.347  1.0694 -0.6736 -2.1627
 7115TIP3    H242761   0.994   4.387  14.341  1.0757 -1.3123  1.5144
 7116TIP3   OH242762   4.026   5.938   3.817  0.1210 -0.1329  0.0409
 7116TIP3    H142763   4.073   5.858   3.841 -2.2427 -1.2698  1.2629
 7116TIP3    H242764   4.070   6.007   3.866 -0.1843 -1.3542  2.1801
 7117TIP3   OH242765   2.058   0.251  11.283 -0.6551  0.4512  0.0243
 7117TIP3    H142766   2.023   0.163  11.296  0.7874 -0.0411  0.8335
 7117TIP3    H242767   2.087   0.252  11.192 -1.3932  0.3598 -0.2141
 7118TIP3   OH242768   3.661   3.384   6.146 -0.5371 -0.0815 -0.0835
 7118TIP3    H142769   3.695   3.471   6.124  1.1773 -0.8250 -0.5051
 7118TIP3    H242770   3.579   3.402   6.193  0.5825  1.8219  1.2925
 7119TIP3   OH242771   6.686   2.670  16.369 -0.2014 -0.4800  0.2836
 7119TIP3    H142772   6.717   2.749  16.414 -0.8400 -0.8506  1.4235
 7119TIP3    H242773   6.766   2.625  16.341  0.1580  0.8549 -0.9322
 7120TIP3   OH242774   2.703   4.235   2.959  0.5276  0.0531 -0.3616
 7120TIP3    H142775   2.694   4.147   2.923  3.2550 -0.5516  0.1743
 7120TIP3    H242776   2.617   4.256   2.996 -0.6107 -1.7263 -1.8452
 7121TIP3   OH242777   4.354   1.414  16.427 -0.1894 -0.8079  0.1476
 7121TIP3    H142778   4.375   1.475  16.498 -0.0353 -1.2730  0.5014
 7121TIP3    H242779   4.365   1.466  16.347  0.4196 -0.5091  0.4209
 7122TIP3   OH242780   4.709   4.906   3.571  0.3705  0.2364 -0.0075
 7122TIP3    H142781   4.789   4.919   3.622  0.2071  0.3398  0.2223
 7122TIP3    H242782   4.721   4.821   3.529  0.4265  0.0676  0.3486
 7123TIP3   OH242783   3.405   0.252   0.464  0.2449 -0.0724 -0.1084
 7123TIP3    H142784   3.427   0.211   0.380  0.8470 -1.7461  0.8341
 7123TIP3    H242785   3.316   0.284   0.452 -0.3000 -1.7559 -0.8900
 7124TIP3   OH242786   0.601   3.742  12.314 -0.3258  0.1236  0.4364
 7124TIP3    H142787   0.661   3.816  12.309 -1.0854  0.6588 -1.1965
 7124TIP3    H242788   0.514   3.780  12.305 -0.7216 -0.9652 -0.5353
 7125TIP3   OH242789   5.444   2.419   0.543 -0.1390 -0.8005 -0.7770
 7125TIP3    H142790   5.426   2.434   0.450 -1.7164  1.0719 -0.2322
 7125TIP3    H242791   5.528   2.462   0.559  0.2324 -1.3008 -1.3637
 7126TIP3   OH242792   1.100   4.997  15.253 -0.2914  0.3737  0.0119
 7126TIP3    H142793   1.117   4.989  15.347 -0.8377  3.1264  0.4259
 7126TIP3    H242794   1.172   4.950  15.211  0.4134 -0.2131  1.7873
 7127TIP3   OH242795   6.089   4.191  12.386 -0.5089 -0.3165  0.0755
 7127TIP3    H142796   5.999   4.160  12.380 -0.2780 -1.7496  2.6118
 7127TIP3    H242797   6.123   4.150  12.466  1.9390  1.3441 -0.0143
 7128TIP3   OH242798   2.527   0.590   6.362 -0.1467  0.5814  0.0306
 7128TIP3    H142799   2.441   0.622   6.390 -0.5028  0.5593 -0.9985
 7128TIP3    H242800   2.588   0.658   6.391 -0.6474  1.1613 -0.2567
 7129TIP3   OH242801   4.927   1.368   3.556  0.7685 -0.2580 -0.1211
 7129TIP3    H142802   4.918   1.435   3.488 -1.2424 -1.9533 -1.6643
 7129TIP3    H242803   5.019   1.372   3.582  0.6850  3.3088  0.1849
 7130TIP3   OH242804   3.762   3.802   4.987 -0.4229 -0.0568 -0.3643
 7130TIP3    H142805   3.786   3.714   4.960 -0.5148  0.2649 -1.5512
 7130TIP3    H242806   3.843   3.840   5.022 -0.8449 -1.2848  2.1466
 7131TIP3   OH242807   5.975   3.724   2.957  1.0014 -0.0389  0.0701
 7131TIP3    H142808   6.070   3.721   2.952  0.9912 -0.6039  0.2240
 7131TIP3    H242809   5.956   3.744   3.049  0.9690  0.1728  0.0195
 7132TIP3   OH242810   4.841   4.277  16.046 -0.7914 -0.3211  0.2244
 7132TIP3    H142811   4.752   4.257  16.077 -0.6211 -1.3862  0.0657
 7132TIP3    H242812   4.861   4.206  15.984 -0.3198  0.6118 -0.7223
 7133TIP3   OH242813   3.570   2.785   2.683 -0.3200 -0.5928  0.5295
 7133TIP3    H142814   3.476   2.797   2.676 -0.2095  0.0255 -0.0498
 7133TIP3    H242815   3.581   2.713   2.745 -1.1085  1.4373  3.2198
 7134TIP3   OH242816   6.686   5.176   4.924 -0.1853 -0.1067  0.4746
 7134TIP3    H142817   6.627   5.117   4.973 -1.0020  0.5270  0.2727
 7134TIP3    H242818   6.706   5.246   4.986  0.0596 -0.1268  0.4188
 7135TIP3   OH242819   6.455   1.401   5.916  0.3167  0.0953  0.0868
 7135TIP3    H142820   6.398   1.337   5.959 -0.5903  0.1897 -0.9345
 7135TIP3    H242821   6.407   1.427   5.837  0.8709  1.6711  0.2204
 7136TIP3   OH242822   2.052   0.003   1.563 -0.2902  0.4398 -0.2901
 7136TIP3    H142823   2.068   0.091   1.599  0.5245  0.8661 -1.6324
 7136TIP3    H242824   2.108  -0.054   1.615  1.5210  1.1693 -1.3344
 7137TIP3   OH242825   5.248   1.584  14.810 -0.2362 -0.5171  0.0818
 7137TIP3    H142826   5.329   1.569  14.860  0.3491  0.7956 -0.4318
 7137TIP3    H242827   5.241   1.508  14.753  0.6077 -0.6775  0.1764
 7138TIP3   OH242828   4.577   1.685   0.495  0.4375  0.2398 -0.1319
 7138TIP3    H142829   4.660   1.660   0.535  0.9448  1.9400 -0.0625
 7138TIP3    H242830   4.584   1.655   0.404  1.4425  1.0011 -0.3208
 7139TIP3   OH242831   4.930   4.813   2.949  0.2827 -0.5822  1.1526
 7139TIP3    H142832   4.983   4.744   2.990  0.5373 -0.6668  0.6867
 7139TIP3    H242833   4.990   4.885   2.936  0.7026 -1.2196 -0.7906
 7140TIP3   OH242834   3.540   2.574  13.609 -0.0434 -0.1618  0.0307
 7140TIP3    H142835   3.455   2.610  13.635 -0.6353 -1.8289  0.5067
 7140TIP3    H242836   3.520   2.487  13.574  1.3609 -0.1596 -0.8493
 7141TIP3   OH242837   1.535   5.534  11.856  0.1310 -0.4034 -0.3786
 7141TIP3    H142838   1.600   5.547  11.926  0.1934  1.1497 -0.6801
 7141TIP3    H242839   1.583   5.553  11.775 -0.2612 -0.9626 -0.7427
 7142TIP3   OH242840   2.160   4.889   3.440 -0.1802  0.1536 -0.0677
 7142TIP3    H142841   2.252   4.861   3.441  0.1501  1.0635 -1.3945
 7142TIP3    H242842   2.113   4.814   3.403 -0.0945 -0.5769  1.2525
 7143TIP3   OH242843   0.604   2.289   3.652 -0.0746  0.2140 -0.4872
 7143TIP3    H142844   0.679   2.295   3.593  0.9096 -1.3527  0.5342
 7143TIP3    H242845   0.639   2.315   3.737 -1.0303  0.7218 -0.2423
 7144TIP3   OH242846   2.130   1.918   5.095  0.6393 -0.4994 -0.3144
 7144TIP3    H142847   2.094   1.961   5.018  2.0828  1.5066  0.0460
 7144TIP3    H242848   2.216   1.887   5.067 -0.3350 -3.2702 -0.5460
 7145TIP3   OH242849   6.020   0.714   1.757 -0.1886  0.3840  0.1583
 7145TIP3    H142850   6.104   0.741   1.721 -1.2266  0.6289 -2.3002
 7145TIP3    H242851   6.007   0.625   1.724 -1.8369  1.1511 -1.4774
 7146TIP3   OH242852   2.177   6.600   0.446  0.2253  0.0206  0.1347
 7146TIP3    H142853   2.196   6.689   0.416 -0.2571  0.3981  0.9335
 7146TIP3    H242854   2.085   6.586   0.422  0.7188 -0.8592 -1.4072
 7147TIP3   OH242855   1.335   6.512   1.158  0.0723  0.3518  0.2359
 7147TIP3    H142856   1.290   6.428   1.166  2.2011 -0.8178  0.6551
 7147TIP3    H242857   1.384   6.521   1.239  1.6655  0.8680 -0.7445
 7148TIP3   OH242858   4.378   1.903  11.213 -0.5266  0.2902 -0.2409
 7148TIP3    H142859   4.354   1.855  11.293 -0.8985 -0.8687 -1.0304
 7148TIP3    H242860   4.298   1.903  11.160  0.0786 -0.0758 -1.1648
 7149TIP3   OH242861   1.218   4.677  15.514  0.5296 -0.2547 -0.1481
 7149TIP3    H142862   1.267   4.608  15.559 -1.6808 -1.3177  0.7820
 7149TIP3    H242863   1.166   4.631  15.448  1.2903  0.9273 -1.6533
 7150TIP3   OH242864   3.501   2.775   0.567 -0.0800  0.1926 -0.1884
 7150TIP3    H142865   3.447   2.699   0.543 -0.6678  0.6309 -0.2972
 7150TIP3    H242866   3.472   2.844   0.506 -0.4886  0.8812  0.7662
 7151TIP3   OH242867   6.447   1.702  13.204 -0.1519 -0.3575  0.0050
 7151TIP3    H142868   6.425   1.728  13.293 -1.3638  1.4806 -0.7725
 7151TIP3    H242869   6.533   1.742  13.187 -0.6315  0.6352 -0.1524
 7152TIP3   OH242870   4.058   1.135   5.005  0.0252  0.0251 -0.5592
 7152TIP3    H142871   4.142   1.109   4.968 -0.4093 -2.1234 -0.1695
 7152TIP3    H242872   4.081   1.193   5.077  0.9983  1.8457 -2.2253
 7153TIP3   OH242873   4.094   0.592   0.538  0.4847 -0.0559 -0.3518
 7153TIP3    H142874   4.022   0.644   0.503  0.2600 -0.6132 -0.7351
 7153TIP3    H242875   4.110   0.627   0.626  0.7519  1.0668 -0.8299
 7154TIP3   OH242876   0.229   5.702   5.670 -0.4699  0.6076  0.5831
 7154TIP3    H142877   0.146   5.737   5.703 -1.5460 -0.4006 -0.9184
 7154TIP3    H242878   0.235   5.615   5.708  0.8244  1.3121  2.1000
 7155TIP3   OH242879   0.893   2.681   1.805  0.2980  0.6319  0.5057
 7155TIP3    H142880   0.931   2.594   1.791  0.1447  0.5728  0.4492
 7155TIP3    H242881   0.893   2.720   1.718 -1.7946 -0.2004  0.0835
 7156TIP3   OH242882   6.139   1.855   0.050  0.1577 -0.3962  0.4399
 7156TIP3    H142883   6.050   1.879   0.078  0.0741 -0.7899  0.5111
 7156TIP3    H242884   6.183   1.939   0.037 -0.3988 -0.1916 -0.1629
 7157TIP3   OH242885   5.634   3.258  13.044  0.2074  0.5758 -0.0041
 7157TIP3    H142886   5.643   3.225  12.954 -0.6461  0.5798 -0.1014
 7157TIP3    H242887   5.541   3.247  13.064  0.0761  2.0231  0.3071
 7158TIP3   OH242888   3.951   2.270  15.073  0.3892 -1.2018 -0.0831
 7158TIP3    H142889   3.989   2.319  15.145  1.5493 -0.7717 -0.9551
 7158TIP3    H242890   3.870   2.317  15.051  0.9522 -0.2796 -0.2275
 7159TIP3   OH242891   2.125   0.417  13.911  0.0422  0.0577 -0.7837
 7159TIP3    H142892   2.101   0.352  13.977 -0.2816  0.4313 -0.5308
 7159TIP3    H242893   2.217   0.436  13.928  0.2953 -0.7252 -1.1979
 7160TIP3   OH242894   4.713   3.963  14.858 -0.7205  0.0716  0.1790
 7160TIP3    H142895   4.688   3.979  14.949 -0.9377  1.1685 -0.0621
 7160TIP3    H242896   4.770   3.886  14.862  0.9301  1.2931  1.4940
 7161TIP3   OH242897   5.654   0.081  14.270  0.2602  0.9271 -0.1689
 7161TIP3    H142898   5.590   0.056  14.203 -0.9096  1.8858  0.5400
 7161TIP3    H242899   5.725   0.018  14.261 -0.5667  0.1289 -1.3133
 7162TIP3   OH242900   5.571   0.538  14.336 -0.0389 -0.3076 -0.3738
 7162TIP3    H142901   5.492   0.550  14.283 -0.1034  0.2658 -0.1515
 7162TIP3    H242902   5.626   0.613  14.313 -0.2503  0.1953  0.6925
 7163TIP3   OH242903   5.349   0.050  12.550 -0.6810  0.0715 -0.2016
 7163TIP3    H142904   5.357   0.144  12.562 -1.1596  0.0829  0.0371
 7163TIP3    H242905   5.439   0.019  12.541 -0.5201  0.5398 -0.2160
 7164TIP3   OH242906   0.082   2.673  14.175  0.5424  0.6772 -0.2256
 7164TIP3    H142907   0.141   2.598  14.171 -1.1910 -0.7664 -0.0909
 7164TIP3    H242908   0.087   2.701  14.267  0.8852  0.4565 -0.1729
 7165TIP3   OH242909   6.045   4.670  16.598  0.1927 -0.3758  0.2453
 7165TIP3    H142910   6.086   4.584  16.611  0.7176 -0.1470  0.1018
 7165TIP3    H242911   5.966   4.651  16.547 -0.2026 -0.8868  1.0231
 7166TIP3   OH242912   4.441   4.214   3.717 -1.0677  0.0131 -0.4873
 7166TIP3    H142913   4.492   4.150   3.767 -1.6564  0.5648  0.8802
 7166TIP3    H242914   4.472   4.205   3.627  0.6533 -0.4432  0.1118
 7167TIP3   OH242915   5.649   5.240   2.202  0.4814  0.1274  0.8086
 7167TIP3    H142916   5.741   5.234   2.229  1.2873  1.6798 -1.3039
 7167TIP3    H242917   5.599   5.233   2.284  2.3667 -2.1197  1.8705
 7168TIP3   OH242918   3.100   4.152  13.393 -0.2002  0.3117 -0.3067
 7168TIP3    H142919   3.168   4.197  13.342  1.1982 -0.4590  0.8272
 7168TIP3    H242920   3.097   4.199  13.476 -0.6585 -0.0165 -0.1334
 7169TIP3   OH242921   6.376   4.660  14.573  0.5195  0.8380 -0.6873
 7169TIP3    H142922   6.442   4.695  14.513 -0.4435  0.0471 -2.2963
 7169TIP3    H242923   6.298   4.714  14.558  0.1324  0.3537 -0.4935
 7170TIP3   OH242924   3.628   4.217   0.746 -0.2861  0.1602 -0.2375
 7170TIP3    H142925   3.583   4.158   0.686 -0.2638  0.8491 -0.9431
 7170TIP3    H242926   3.720   4.215   0.718  0.0060 -0.6158  0.6886
 7171TIP3   OH242927   5.409   5.082  15.729  0.0173  0.2363 -0.1778
 7171TIP3    H142928   5.360   5.147  15.779  0.5006  0.4285  0.0464
 7171TIP3    H242929   5.396   5.108  15.637  0.3542  0.7489 -0.0815
 7172TIP3   OH242930   2.469   2.880   0.561  0.0801 -0.2804 -0.1102
 7172TIP3    H142931   2.470   2.817   0.489 -1.3131  1.4041 -1.6820
 7172TIP3    H242932   2.538   2.849   0.621 -1.0338 -3.7163 -0.3885
 7173TIP3   OH242933   0.118   2.045  14.560 -0.5461  0.0802 -0.4774
 7173TIP3    H142934   0.171   2.025  14.638 -1.8415 -0.4809  0.2842
 7173TIP3    H242935   0.115   2.141  14.558  0.6432  0.1275 -0.6431
 7174TIP3   OH242936   5.408   6.050   0.496  0.2220  0.2025  0.1379
 7174TIP3    H142937   5.365   5.974   0.456  0.4126  0.4598 -0.5684
 7174TIP3    H242938   5.428   6.108   0.422 -0.8100  1.3955  0.7531
 7175TIP3   OH242939   4.895   3.736  11.575  0.2645  0.4205  0.0388
 7175TIP3    H142940   4.916   3.767  11.486 -0.0496 -1.7159 -0.8329
 7175TIP3    H242941   4.939   3.651  11.581  0.2939  0.5443  1.9710
 7176TIP3   OH242942   1.816   5.372   0.305 -0.2862 -0.2984  0.3765
 7176TIP3    H142943   1.906   5.350   0.279 -1.5340 -3.0695 -2.2553
 7176TIP3    H242944   1.804   5.324   0.388 -0.2767 -2.8698 -0.9941
 7177TIP3   OH242945   5.247   1.623   1.638  0.3482  0.3404  0.1782
 7177TIP3    H142946   5.173   1.564   1.654  1.7529 -1.4315  0.5153
 7177TIP3    H242947   5.302   1.576   1.575  0.9344  1.8592 -0.4908
 7178TIP3   OH242948   3.992   0.157  10.911  0.7073 -0.4195  0.0496
 7178TIP3    H142949   4.049   0.216  10.861 -0.4397 -0.3593 -1.2467
 7178TIP3    H242950   3.999   0.073  10.866  0.8088 -0.7642  0.7019
 7179TIP3   OH242951   6.684   0.638   1.324 -0.6642  0.0369 -0.2815
 7179TIP3    H142952   6.764   0.678   1.291  0.0151 -0.2055  1.0399
 7179TIP3    H242953   6.678   0.666   1.415 -1.8508 -0.3246 -0.2247
 7180TIP3   OH242954   4.063   6.108  15.493 -0.1162 -0.3271 -0.2264
 7180TIP3    H142955   4.113   6.029  15.472  2.8361  1.5018 -0.6428
 7180TIP3    H242956   4.094   6.174  15.432  0.8614  2.3389  2.8376
 7181TIP3   OH242957   6.100   1.913   5.650  0.1544  0.5299 -0.7326
 7181TIP3    H142958   6.023   1.885   5.601 -0.3143  1.6040 -0.6547
 7181TIP3    H242959   6.065   1.955   5.728  0.8199  0.8321 -0.5820
 7182TIP3   OH242960   4.290   2.206   4.001 -0.4655  0.1225 -0.2289
 7182TIP3    H142961   4.276   2.223   4.094  0.3597 -1.0676  0.1421
 7182TIP3    H242962   4.239   2.273   3.956  0.0189  1.4274  1.0848
 7183TIP3   OH242963   3.553   6.222  13.908  0.5256  0.0299 -0.3330
 7183TIP3    H142964   3.637   6.268  13.912 -0.1310  1.1904  1.5068
 7183TIP3    H242965   3.512   6.254  13.828  1.4346  0.2043 -0.7340
 7184TIP3   OH242966   3.850   2.052   5.735  0.4817  0.1589  0.2105
 7184TIP3    H142967   3.840   2.107   5.657  0.8191  2.0826  1.4585
 7184TIP3    H242968   3.867   1.964   5.701  0.3770  0.9002 -1.8701
 7185TIP3   OH242969   6.150   0.520  16.516 -0.6650 -0.6756 -0.1814
 7185TIP3    H142970   6.073   0.464  16.522 -0.5002 -0.7912  1.5902
 7185TIP3    H242971   6.122   0.603  16.555 -0.1703 -0.4026 -0.4010
 7186TIP3   OH242972   5.271   1.677  15.795  0.1389 -0.1078  0.0139
 7186TIP3    H142973   5.229   1.628  15.865  0.1822 -0.4425 -0.1929
 7186TIP3    H242974   5.357   1.637  15.785  0.7591  0.9799  0.8562
 7187TIP3   OH242975   0.099   3.238   4.340 -0.2527 -0.1939  0.3417
 7187TIP3    H142976   0.157   3.188   4.398 -0.2693 -0.6583 -0.0371
 7187TIP3    H242977   0.144   3.239   4.256 -0.9856 -0.9262 -0.0704
 7188TIP3   OH242978   4.184   4.165   5.200 -0.7518  0.0985  0.3174
 7188TIP3    H142979   4.205   4.151   5.292 -1.7160  0.5736  0.6222
 7188TIP3    H242980   4.134   4.087   5.174  2.0168 -1.4851 -0.6654
 7189TIP3   OH242981   4.452   4.949  16.086  0.3059 -0.1869  0.1300
 7189TIP3    H142982   4.436   4.859  16.056 -2.0990  0.0883  0.4095
 7189TIP3    H242983   4.457   5.000  16.005 -0.4448 -0.2829  0.0154
 7190TIP3   OH242984   0.382   1.703   1.940 -0.2727  0.3701 -0.1844
 7190TIP3    H142985   0.450   1.770   1.939  0.1881 -0.1020 -0.4152
 7190TIP3    H242986   0.388   1.663   2.026 -0.1091  0.1766 -0.2854
 7191TIP3   OH242987   0.411   5.544  15.999  0.2683 -0.6376  0.1520
 7191TIP3    H142988   0.383   5.616  16.056 -0.0384 -0.4223 -0.2657
 7191TIP3    H242989   0.363   5.558  15.918  2.1619  0.1659 -0.8748
 7192TIP3   OH242990   5.787   2.544  12.314  0.1501  0.3252  0.2167
 7192TIP3    H142991   5.756   2.614  12.372  0.3005 -0.7039  1.5792
 7192TIP3    H242992   5.837   2.589  12.246 -1.0680  1.6726  0.1732
 7193TIP3   OH242993   5.136   0.453   5.502  0.1800  0.2524  0.3296
 7193TIP3    H142994   5.054   0.491   5.534 -0.3978 -0.8560  0.2309
 7193TIP3    H242995   5.164   0.394   5.572  1.4439  1.3454  0.7938
 7194TIP3   OH242996   0.411   4.433  12.394  0.3349 -0.4911 -0.1921
 7194TIP3    H142997   0.454   4.351  12.367  0.9732 -0.4188  0.5960
 7194TIP3    H242998   0.437   4.497  12.328 -0.6201 -1.0342 -1.1383
 7195TIP3   OH242999   5.151   6.476   4.967  0.1995 -0.4179  0.4402
 7195TIP3    H143000   5.245   6.488   4.949 -0.0394 -0.5548 -1.0241
 7195TIP3    H243001   5.121   6.562   4.994  0.6951 -0.3202  0.7003
 7196TIP3   OH243002   0.842   5.711  12.033 -1.0786 -0.4340 -0.1024
 7196TIP3    H143003   0.760   5.757  12.053 -1.4118  0.2276 -2.6436
 7196TIP3    H243004   0.817   5.640  11.975  0.0918 -0.5866 -0.4542
 7197TIP3   OH243005   5.276   0.568  11.905  0.0450  0.7718 -0.5814
 7197TIP3    H143006   5.324   0.532  11.830  0.7573  0.2423  0.1034
 7197TIP3    H243007   5.235   0.492  11.946  1.6155  0.6552  0.9222
 7198TIP3   OH243008   2.288   5.260  12.596  0.2118 -0.0176 -0.2512
 7198TIP3    H143009   2.318   5.351  12.606 -0.5314  0.2721 -0.5311
 7198TIP3    H243010   2.293   5.245  12.501  1.1815 -0.5796 -0.1200
 7199TIP3   OH243011   0.027   2.353  11.067  0.0250 -0.0718 -0.0720
 7199TIP3    H143012   0.113   2.384  11.038  1.1804 -1.9318  1.1233
 7199TIP3    H243013   0.004   2.284  11.004 -0.3297  0.0196 -0.0455
 7200TIP3   OH243014   0.103   4.986  14.649 -0.1120 -0.3220  0.0999
 7200TIP3    H143015   0.023   4.958  14.694  0.3067  0.2825  1.2685
 7200TIP3    H243016   0.170   4.927  14.682 -0.1656 -1.2359 -1.3554
 7201TIP3   OH243017   3.056   5.503  13.586 -0.3705 -0.0217  0.1026
 7201TIP3    H143018   2.976   5.527  13.633 -0.3086 -0.4285  0.4120
 7201TIP3    H243019   3.039   5.415  13.552 -0.2916  0.1383 -0.3666
 7202TIP3   OH243020   0.326   5.230   5.540  0.2406  0.2286 -0.2913
 7202TIP3    H143021   0.341   5.158   5.600 -0.7638 -0.4984 -0.8840
 7202TIP3    H243022   0.298   5.302   5.597 -1.0019 -0.5394  0.1091
 7203TIP3   OH243023   0.989   5.985  10.373  0.3154 -0.4450 -0.6060
 7203TIP3    H143024   0.985   5.937  10.456 -0.7301 -0.3726 -0.5991
 7203TIP3    H243025   1.080   5.976  10.344  1.2352  1.1184  1.4967
 7204TIP3   OH243026   3.764   6.178   5.921  0.7015 -0.5355  0.1234
 7204TIP3    H143027   3.719   6.261   5.940  2.4705  0.7925 -1.1582
 7204TIP3    H243028   3.812   6.157   6.001 -0.5862 -0.9260  0.8194
 7205TIP3   OH243029   3.261   1.110   4.454  0.0634  0.0426 -0.6777
 7205TIP3    H143030   3.262   1.203   4.476 -1.9952 -0.5265  2.3555
 7205TIP3    H243031   3.177   1.098   4.408 -0.0018 -0.4388 -0.4303
 7206TIP3   OH243032   2.365   6.144  12.173 -0.6421 -0.1618 -0.6873
 7206TIP3    H143033   2.333   6.065  12.129  0.5449 -0.6172 -0.7508
 7206TIP3    H243034   2.375   6.208  12.103 -2.2120  0.2737 -0.5512
 7207TIP3   OH243035   3.684   6.418   1.344 -0.2724 -0.1250  0.3849
 7207TIP3    H143036   3.673   6.329   1.311  0.7230  0.1794 -0.8413
 7207TIP3    H243037   3.766   6.415   1.394 -0.4322  0.0200  0.6560
 7208TIP3   OH243038   2.399   5.957   5.635  0.2620 -0.3070  0.2713
 7208TIP3    H143039   2.449   5.979   5.556  1.1861 -1.0582  0.6250
 7208TIP3    H243040   2.360   6.040   5.662  0.9347  0.2082 -0.2933
 7209TIP3   OH243041   5.151   2.176   3.149 -0.1030  0.2551  0.4994
 7209TIP3    H143042   5.214   2.244   3.172 -0.7745  1.1295 -0.2065
 7209TIP3    H243043   5.187   2.096   3.190  2.3743  0.3537 -1.2474
 7210TIP3   OH243044   5.836   3.140  13.190  0.2410  0.0134 -0.6243
 7210TIP3    H143045   5.882   3.059  13.170  1.0747  0.5618 -1.0200
 7210TIP3    H243046   5.756   3.137  13.137  0.7440 -0.1149 -1.3831
 7211TIP3   OH243047   1.698   6.108   5.757  0.5768  0.4945 -0.4223
 7211TIP3    H143048   1.678   6.015   5.743  0.2717  0.7135 -1.5355
 7211TIP3    H243049   1.612   6.150   5.759  0.7150  0.7587  0.1038
 7212TIP3   OH243050   5.869   1.209  12.390  0.2705 -0.5101 -0.0863
 7212TIP3    H143051   5.804   1.279  12.402  1.6329  1.1770 -1.9075
 7212TIP3    H243052   5.817   1.130  12.376 -1.4180  0.7539 -1.3990
 7213TIP3   OH243053   2.351   5.066  15.692 -0.0204 -0.1106  0.1983
 7213TIP3    H143054   2.387   5.062  15.781 -0.2923 -0.0959  0.3085
 7213TIP3    H243055   2.257   5.067  15.704 -0.0704 -0.6836 -0.1132
 7214TIP3   OH243056   3.398   3.476   0.834  0.0713  0.4528  0.3653
 7214TIP3    H143057   3.459   3.417   0.878 -0.1788 -0.1669 -0.1053
 7214TIP3    H243058   3.361   3.423   0.763  0.4804  1.4207 -0.6033
 7215TIP3   OH243059   2.552   1.765  13.180 -0.2940 -0.4283 -0.5218
 7215TIP3    H143060   2.600   1.683  13.164 -0.7692 -0.5700 -1.2507
 7215TIP3    H243061   2.491   1.772  13.107  1.1168  1.6090 -1.6231
 7216TIP3   OH243062   6.109   5.932  11.316 -0.8725 -0.0186 -0.8094
 7216TIP3    H143063   6.201   5.913  11.335 -1.3599 -1.8160 -0.0154
 7216TIP3    H243064   6.111   5.994  11.244  0.9625  0.2299 -0.5818
 7217TIP3   OH243065   1.540   2.961  13.245  0.2674  0.2736 -0.3937
 7217TIP3    H143066   1.633   2.980  13.248 -0.1163  2.3011  1.0986
 7217TIP3    H243067   1.504   3.024  13.182 -0.3912  1.3367  0.9785
 7218TIP3   OH243068   2.052   1.238  14.989 -0.5797  0.0132  0.5579
 7218TIP3    H143069   2.033   1.329  15.009 -1.8590 -0.0190 -0.4258
 7218TIP3    H243070   1.985   1.188  15.035 -0.5418 -0.3567  0.2231
 7219TIP3   OH243071   1.734   3.222  15.349  0.1837  0.2027 -0.5163
 7219TIP3    H143072   1.808   3.162  15.340 -0.0209 -0.4916  1.8540
 7219TIP3    H243073   1.752   3.292  15.286  1.4579 -1.3136 -1.8990
 7220TIP3   OH243074   2.864   2.845  13.647 -0.0117  0.5479  0.2162
 7220TIP3    H143075   2.848   2.909  13.577  1.1851  0.9613  0.3006
 7220TIP3    H243076   2.920   2.779  13.607  1.2958  1.1632  0.9347
 7221TIP3   OH243077   3.160   0.818   1.892 -0.2652  0.3329 -0.1370
 7221TIP3    H143078   3.139   0.726   1.878 -0.7163  0.3521  0.3887
 7221TIP3    H243079   3.100   0.846   1.960 -0.5593  1.1788 -0.7291
 7222TIP3   OH243080   1.920   4.137   2.254 -0.1407 -0.4447 -0.4227
 7222TIP3    H143081   1.893   4.050   2.280  0.0359 -0.4553 -0.2737
 7222TIP3    H243082   2.015   4.135   2.257 -0.1299 -0.3021 -0.6008
 7223TIP3   OH243083   2.018   2.755  15.938 -0.2158 -0.3169  0.4511
 7223TIP3    H143084   1.929   2.736  15.967 -0.1084  0.9703  1.7890
 7223TIP3    H243085   2.056   2.670  15.918 -2.1960 -0.7925 -1.7074
 7224TIP3   OH243086   1.057   5.954  11.341 -0.5633 -0.2796 -0.2704
 7224TIP3    H143087   1.129   5.905  11.301 -0.5656  0.1111 -0.7725
 7224TIP3    H243088   1.064   5.937  11.434  0.2712 -0.1292 -0.3016
 7225TIP3   OH243089   4.858   5.901   4.099 -0.2816  0.0343  0.5947
 7225TIP3    H143090   4.846   5.968   4.032 -2.2871  0.0598  0.9155
 7225TIP3    H243091   4.816   5.823   4.063 -1.3852  0.0521  1.7669
 7226TIP3   OH243092   4.149   0.244   2.637 -0.0799  0.4170  0.0876
 7226TIP3    H143093   4.120   0.295   2.713  1.1501  2.0377 -0.4643
 7226TIP3    H243094   4.236   0.213   2.661 -0.0835  0.1121 -0.2825
 7227TIP3   OH243095   4.842   2.754  13.563 -0.2726  0.2624 -0.1230
 7227TIP3    H143096   4.763   2.732  13.612  0.6931  0.0663  1.3778
 7227TIP3    H243097   4.887   2.820  13.616 -0.8409  2.6700 -2.3640
 7228TIP3   OH243098   3.510   1.886  13.781 -0.1372  0.0106 -0.2930
 7228TIP3    H143099   3.437   1.898  13.720  0.0072  1.4858 -0.2093
 7228TIP3    H243100   3.497   1.953  13.847  0.2484 -0.9517  0.7951
 7229TIP3   OH243101   6.077   2.015   0.716  0.1298 -0.8430 -0.2840
 7229TIP3    H143102   6.098   2.007   0.623  2.3260 -0.1323  0.0825
 7229TIP3    H243103   6.146   1.965   0.760  1.2627  1.7138  1.0655
 7230TIP3   OH243104   2.385   1.771  12.355 -0.0026  0.0082 -0.1806
 7230TIP3    H143105   2.456   1.707  12.347  1.1074  1.3722 -2.1107
 7230TIP3    H243106   2.352   1.758  12.444  1.8647 -1.4875  0.3871
 7231TIP3   OH243107   3.529   4.665   5.310 -0.5669  0.1695 -0.1744
 7231TIP3    H143108   3.620   4.684   5.332 -0.3396 -0.0909 -0.8483
 7231TIP3    H243109   3.488   4.751   5.299 -0.8765  0.3313  1.9050
 7232TIP3   OH243110   1.378   1.596   4.363  0.0959 -0.4401 -0.1868
 7232TIP3    H143111   1.406   1.673   4.314  3.2260 -0.5992  1.1166
 7232TIP3    H243112   1.387   1.622   4.455  0.2035 -2.0154  0.2721
 7233TIP3   OH243113   0.825   3.834   6.288  0.6960 -0.2023 -0.2416
 7233TIP3    H143114   0.775   3.872   6.360 -0.4516  0.0428 -1.1327
 7233TIP3    H243115   0.917   3.846   6.313  0.3612 -1.5769  1.9114
 7234TIP3   OH243116   6.307   6.511  15.204 -0.1386  0.2225 -0.5241
 7234TIP3    H143117   6.240   6.455  15.164  0.7792 -1.0494 -0.3531
 7234TIP3    H243118   6.347   6.556  15.129 -1.4976  1.4057 -0.5838
 7235TIP3   OH243119   1.262   4.113  15.827 -0.0396 -0.0234 -0.0802
 7235TIP3    H143120   1.268   4.024  15.790  0.4144  0.5757 -1.5390
 7235TIP3    H243121   1.345   4.126  15.872 -1.5757 -1.7432  3.7083
 7236TIP3   OH243122   6.119   4.277  15.205 -0.1446  0.6185  0.3265
 7236TIP3    H143123   6.125   4.183  15.191 -1.3726  0.3975  1.1397
 7236TIP3    H243124   6.210   4.306  15.214  0.2880 -0.3372 -0.7771
 7237TIP3   OH243125   5.153   5.494   5.242  0.1302 -0.2247 -0.0408
 7237TIP3    H143126   5.200   5.576   5.256 -0.9903  0.2412  1.1376
 7237TIP3    H243127   5.061   5.517   5.251 -0.1643 -1.8100  1.4091
 7238TIP3   OH243128   5.905   6.418   2.668  0.1961 -0.5740  0.2118
 7238TIP3    H143129   5.836   6.388   2.727  1.3138 -0.4240  1.6715
 7238TIP3    H243130   5.984   6.377   2.702  1.3433  1.7955  0.6094
 7239TIP3   OH243131   2.835   5.315  14.611  0.3906 -0.3813 -0.0953
 7239TIP3    H143132   2.923   5.295  14.578  1.9287  2.1026  2.0847
 7239TIP3    H243133   2.819   5.247  14.677  0.2844 -1.3000 -1.0342
 7240TIP3   OH243134   4.224   1.072  11.122  0.2977  0.1487 -0.2727
 7240TIP3    H143135   4.188   1.028  11.045  0.7765  1.9156 -1.5598
 7240TIP3    H243136   4.317   1.083  11.102  0.3520  0.9598  0.3928
 7241TIP3   OH243137   5.388   4.844  13.547 -0.3161 -0.6345  0.6763
 7241TIP3    H143138   5.415   4.764  13.593 -0.9283 -0.1340  1.9446
 7241TIP3    H243139   5.462   4.904  13.559 -1.6811  0.6099  3.8401
 7242TIP3   OH243140   0.628   1.281  10.379 -0.0136  0.2872  0.2120
 7242TIP3    H143141   0.685   1.293  10.454 -0.6558  2.6604  0.3973
 7242TIP3    H243142   0.552   1.335  10.398  0.0551  1.4297 -2.3770
 7243TIP3   OH243143   1.832   6.760  11.848 -0.2877 -0.1593  0.3036
 7243TIP3    H143144   1.920   6.795  11.838  0.2257 -1.5298 -0.1857
 7243TIP3    H243145   1.831   6.723  11.936 -0.3354 -0.2246  0.2757
 7244TIP3   OH243146   1.781   0.015  14.494  0.2826 -0.0083  0.5015
 7244TIP3    H143147   1.770   0.110  14.505  1.8260  0.4123 -1.0172
 7244TIP3    H243148   1.841  -0.010  14.563 -0.8062 -0.0632  1.4477
 7245TIP3   OH243149   4.700   4.085  14.506 -0.2455 -0.3290  0.1378
 7245TIP3    H143150   4.698   4.137  14.426  0.9831  3.9934  2.5564
 7245TIP3    H243151   4.789   4.049  14.509  0.4971  1.4198  0.5052
 7246TIP3   OH243152   5.163   0.075   5.337 -0.1821  0.5230  0.2019
 7246TIP3    H143153   5.085   0.108   5.382  0.2819  0.8397  0.7801
 7246TIP3    H243154   5.233   0.084   5.401 -0.1426 -2.2537  0.6581
 7247TIP3   OH243155   5.263   0.661   2.636  0.3524  0.1075  0.3019
 7247TIP3    H143156   5.309   0.741   2.661 -0.4190  1.1438 -1.4029
 7247TIP3    H243157   5.288   0.646   2.545 -1.6876  0.0327 -0.3001
 7248TIP3   OH243158   0.198   2.275  14.284  0.9530  0.0527 -0.3571
 7248TIP3    H143159   0.279   2.227  14.302  1.4047  0.7424 -0.5039
 7248TIP3    H243160   0.168   2.304  14.371  0.0442 -1.4668 -0.1358
 7249TIP3   OH243161   4.378   5.328  17.120  0.4539  0.0594 -0.0546
 7249TIP3    H143162   4.294   5.343  17.164 -0.4132 -1.1221 -1.2338
 7249TIP3    H243163   4.407   5.415  17.093 -1.2461  0.3388 -1.0987
 7250TIP3   OH243164   0.282   3.822  16.014  0.1333 -0.3512  0.4121
 7250TIP3    H143165   0.302   3.872  15.934  2.0887 -0.1090  0.9988
 7250TIP3    H243166   0.320   3.875  16.085 -1.1690 -0.7875  1.4689
 7251TIP3   OH243167   3.568   0.126  13.484 -0.2180  0.1314 -0.0283
 7251TIP3    H143168   3.485   0.110  13.530 -0.0209  0.3104  0.4009
 7251TIP3    H243169   3.563   0.218  13.458 -0.5100 -0.0806 -0.7516
 7252TIP3   OH243170   0.969   2.903  12.251  0.0590  0.0435  0.0015
 7252TIP3    H143171   0.898   2.923  12.190 -0.8369 -2.2544  0.2033
 7252TIP3    H243172   1.005   2.820  12.220  1.6848  0.4198  0.7892
 7253TIP3   OH243173   1.978   3.788  11.874  0.4546  0.3937 -0.2902
 7253TIP3    H143174   2.011   3.802  11.962 -0.9536 -0.7026  0.4551
 7253TIP3    H243175   1.979   3.874  11.833 -2.0999  1.6581  1.9754
 7254TIP3   OH243176   2.936   5.517  12.105 -0.0961 -0.3864 -0.1740
 7254TIP3    H143177   2.932   5.600  12.057  1.2443 -0.1914  0.0274
 7254TIP3    H243178   2.844   5.488  12.110 -0.3403 -0.1315 -2.3194
 7255TIP3   OH243179   0.661   2.642  13.427 -0.5083 -0.2273 -0.3966
 7255TIP3    H143180   0.743   2.671  13.465 -0.8135 -2.2324  2.0796
 7255TIP3    H243181   0.596   2.704  13.460 -0.2496  0.2443 -0.7737
 7256TIP3   OH243182   5.261   0.894   4.717  0.5207  0.3350 -0.2775
 7256TIP3    H143183   5.325   0.914   4.648  1.3826 -1.0521  0.0641
 7256TIP3    H243184   5.306   0.829   4.772 -0.4038  0.9061  1.2003
 7257TIP3   OH243185   0.947   4.687   1.634 -0.3887  0.6815 -0.2575
 7257TIP3    H143186   0.902   4.603   1.644  1.2075 -0.0814  0.9877
 7257TIP3    H243187   0.955   4.721   1.723  0.3544  1.4066 -0.5858
 7258TIP3   OH243188   3.913   4.327  14.622 -0.0536 -0.5221 -0.3641
 7258TIP3    H143189   3.825   4.302  14.595 -0.7909  0.3434  1.0733
 7258TIP3    H243190   3.901   4.369  14.708  1.8335 -0.9234  0.1509
 7259TIP3   OH243191   3.207   3.484   2.361 -0.2144 -0.2655  0.5610
 7259TIP3    H143192   3.190   3.434   2.281 -0.5854 -0.6376  0.8690
 7259TIP3    H243193   3.235   3.419   2.425 -1.1560 -0.1643  1.0994
 7260TIP3   OH243194   5.188   4.681  13.430  0.0623 -0.1801  0.5215
 7260TIP3    H143195   5.259   4.732  13.470 -0.3994 -0.0733  1.2191
 7260TIP3    H243196   5.207   4.591  13.454  0.6831 -0.3075 -0.4115
 7261TIP3   OH243197   6.359   6.357   2.182 -0.7046  0.0495 -0.1925
 7261TIP3    H143198   6.428   6.364   2.116 -0.3332  0.8187  0.2573
 7261TIP3    H243199   6.401   6.385   2.263 -1.0648 -1.2017  0.4494
 7262TIP3   OH243200   5.356   2.848   2.783 -0.6080 -0.5464 -0.5584
 7262TIP3    H143201   5.435   2.803   2.755 -1.2422 -1.0903 -1.5441
 7262TIP3    H243202   5.384   2.938   2.800  0.1172 -0.5920 -1.4577
 7263TIP3   OH243203   1.310   0.453   0.092  0.3946  0.2996 -0.1530
 7263TIP3    H143204   1.371   0.400   0.145 -0.2620 -1.5182 -1.1305
 7263TIP3    H243205   1.259   0.389   0.043 -0.5887  1.8674 -1.2718
 7264TIP3   OH243206   2.996   6.276  12.922  0.0025  0.1069 -0.0171
 7264TIP3    H143207   2.911   6.301  12.886  0.2030 -0.6412 -1.0672
 7264TIP3    H243208   3.055   6.277  12.846  0.9547  0.7254  0.7139
 7265TIP3   OH243209   6.728   4.937  16.316  0.1748  0.4440 -0.3026
 7265TIP3    H143210   6.715   5.007  16.253  2.1644  1.0703 -0.0650
 7265TIP3    H243211   6.750   4.981  16.398  1.1322 -0.4451 -0.0623
 7266TIP3   OH243212   5.247   1.166   0.309 -0.2866  0.1121  0.3378
 7266TIP3    H143213   5.297   1.163   0.391  0.1887 -0.5078  0.0279
 7266TIP3    H243214   5.180   1.099   0.320 -0.4540  0.2807  0.3592
 7267TIP3   OH243215   4.107   1.564  14.169  0.1666  0.2631 -0.3216
 7267TIP3    H143216   4.023   1.548  14.211  0.2752 -0.6580 -0.4295
 7267TIP3    H243217   4.158   1.611  14.236 -0.0700 -0.1212  0.1331
 7268TIP3   OH243218   4.731   6.729   5.410 -0.2707  0.0153  0.0560
 7268TIP3    H143219   4.727   6.673   5.333 -2.7117  0.3100 -0.0905
 7268TIP3    H243220   4.740   6.669   5.483 -0.8770 -0.4528 -0.2505
 7269TIP3   OH243221   2.913   3.708   1.354  0.2686 -0.4671  0.0875
 7269TIP3    H143222   2.920   3.803   1.364 -0.3778 -0.4214  0.1295
 7269TIP3    H243223   2.963   3.689   1.274 -0.7107  0.0874 -0.6872
 7270TIP3   OH243224   4.723   2.416  14.506 -0.1140 -0.7363  0.2333
 7270TIP3    H143225   4.646   2.410  14.562  1.1590 -0.0073  2.1909
 7270TIP3    H243226   4.790   2.366  14.553  0.7732 -0.8532 -1.1138
 7271TIP3   OH243227   3.137   6.094   3.538  0.2976  0.0797 -0.0112
 7271TIP3    H143228   3.142   6.141   3.622 -1.6803  1.2736 -0.5073
 7271TIP3    H243229   3.212   6.034   3.540  1.4221  1.4351  1.7737
 7272TIP3   OH243230   4.879   6.113   1.795  0.0792  0.3064  0.4374
 7272TIP3    H143231   4.955   6.167   1.772  0.7764 -0.7966  0.0834
 7272TIP3    H243232   4.805   6.174   1.790  0.7296  1.0605 -0.7642
 7273TIP3   OH243233   2.025   5.581   4.369 -0.1138  0.4953 -0.1743
 7273TIP3    H143234   2.057   5.521   4.436  0.1136  0.8395  0.0269
 7273TIP3    H243235   2.000   5.660   4.417  3.0213  2.0100 -0.7577
 7274TIP3   OH243236   1.025   5.716  16.234  0.3647 -0.2585 -0.5413
 7274TIP3    H143237   1.118   5.722  16.211  0.0007 -1.0003 -2.3886
 7274TIP3    H243238   0.986   5.665  16.163 -1.1786 -1.4200  1.0634
 7275TIP3   OH243239   2.377   6.689   6.679  0.3719 -0.1669  0.3646
 7275TIP3    H143240   2.426   6.607   6.674  0.7665  0.1208 -1.7982
 7275TIP3    H243241   2.405   6.738   6.601 -1.8234  0.8889  0.1552
 7276TIP3   OH243242   2.059   6.506  11.400  0.1754  0.0340 -0.3171
 7276TIP3    H143243   1.997   6.448  11.356  1.2465 -0.9955 -0.5210
 7276TIP3    H243244   2.056   6.478  11.492  1.5126 -1.1480 -0.6028
 7277TIP3   OH243245   2.759   6.619   3.141 -0.1312 -0.3846  0.0558
 7277TIP3    H143246   2.724   6.651   3.058  0.2281  1.5259  0.6062
 7277TIP3    H243247   2.710   6.666   3.208  1.3481  0.0165  0.8856
 7278TIP3   OH243248   4.716   0.747   4.991  0.1033  0.3391  0.1815
 7278TIP3    H143249   4.806   0.777   5.007 -0.5073  2.4504 -0.1382
 7278TIP3    H243250   4.720   0.707   4.904  0.3117  2.5230 -0.8830
 7279TIP3   OH243251   3.969   4.603  11.484  0.0978 -0.3626  0.1418
 7279TIP3    H143252   3.992   4.681  11.535  0.3805  1.1559 -2.1477
 7279TIP3    H243253   3.873   4.606  11.478  0.1972  0.9566 -1.5155
 7280TIP3   OH243254   5.044   5.445  13.964 -0.5184  0.4669  0.2561
 7280TIP3    H143255   5.056   5.364  14.014  1.0034 -0.7252 -1.9132
 7280TIP3    H243256   5.092   5.511  14.015 -3.4506  0.6233  3.1463
 7281TIP3   OH243257   4.267   4.668  16.766 -0.1086 -0.0866  0.7212
 7281TIP3    H143258   4.350   4.689  16.722  0.3563 -1.6664  0.7480
 7281TIP3    H243259   4.234   4.752  16.798  0.8950  0.7340 -0.3052
 7282TIP3   OH243260   3.055   6.152  12.498 -0.1760 -0.0493  0.4517
 7282TIP3    H143261   3.089   6.232  12.457  0.1251 -0.6555 -0.5113
 7282TIP3    H243262   3.057   6.171  12.592 -1.4763  1.6124  0.2014
 7283TIP3   OH243263   1.797   1.163  14.858 -0.1938 -0.2382 -0.9015
 7283TIP3    H143264   1.738   1.088  14.851  0.2914 -0.5264 -2.1363
 7283TIP3    H243265   1.768   1.209  14.937 -1.3624 -0.9722 -0.8765
 7284TIP3   OH243266   0.960   1.617   4.378  0.3203 -0.5028  0.4999
 7284TIP3    H143267   0.980   1.610   4.471  0.9526 -0.1258  0.3998
 7284TIP3    H243268   1.039   1.655   4.339 -0.6564  1.2319  0.1143
 7285TIP3   OH243269   3.852   6.382   4.595 -0.0091  0.0087 -0.2678
 7285TIP3    H143270   3.872   6.396   4.503 -0.4114  0.0682 -0.3494
 7285TIP3    H243271   3.919   6.321   4.625  0.3810  0.3203 -0.4886
 7286TIP3   OH243272   2.032   1.135  12.619 -0.1514  0.0429  0.8848
 7286TIP3    H143273   1.951   1.093  12.649  0.1282 -1.1590  0.0308
 7286TIP3    H243274   2.100   1.104  12.678 -0.0422 -0.2335  0.6146
 7287TIP3   OH243275   1.643   5.355  11.272  0.2067  0.2644  0.2889
 7287TIP3    H143276   1.581   5.321  11.208  2.0304 -1.4092 -0.6907
 7287TIP3    H243277   1.641   5.291  11.344  1.4411 -0.3415 -0.1866
 7288TIP3   OH243278   2.621   5.596   1.712  0.3321  0.6188  0.1956
 7288TIP3    H143279   2.608   5.567   1.622  0.1140  1.9293 -0.2180
 7288TIP3    H243280   2.599   5.520   1.765 -1.2175  0.3218 -0.8023
 7289TIP3   OH243281   5.691   6.569   0.548 -0.2113  0.2885  0.2198
 7289TIP3    H143282   5.766   6.616   0.511 -0.3294  1.1807  1.0946
 7289TIP3    H243283   5.678   6.495   0.488  0.8231  0.6026 -0.4219
 7290TIP3   OH243284   3.259   3.802  13.261 -0.1295 -0.3359  0.2630
 7290TIP3    H143285   3.172   3.815  13.298 -1.5321 -2.1073 -2.1110
 7290TIP3    H243286   3.268   3.870  13.194 -0.1810 -0.8315 -0.2589
 7291TIP3   OH243287   0.565   6.408   1.358  0.4266 -0.3073  0.6430
 7291TIP3    H143288   0.611   6.329   1.330 -0.1779 -0.3548 -0.2749
 7291TIP3    H243289   0.633   6.474   1.371  0.7657 -0.3979 -0.6101
 7292TIP3   OH243290   6.608   5.945  13.222  0.1464  0.1890  0.9592
 7292TIP3    H143291   6.560   5.879  13.271 -0.7758  0.5351  0.5451
 7292TIP3    H243292   6.546   6.017  13.211 -0.5777 -0.7602 -2.6848
 7293TIP3   OH243293   6.112   5.877  13.474  0.2967  0.5053  0.0278
 7293TIP3    H143294   6.078   5.955  13.429 -2.0445  0.1081  0.9537
 7293TIP3    H243295   6.121   5.812  13.404 -0.4295  0.7865 -0.3428
 7294TIP3   OH243296   6.667   1.552  16.372 -0.7406 -0.5585 -0.0296
 7294TIP3    H143297   6.721   1.517  16.301  0.7201  0.9910  0.2636
 7294TIP3    H243298   6.655   1.478  16.432 -0.5472 -1.4234 -1.0237
 7295TIP3   OH243299   2.033   4.160  15.284  0.2741 -0.4048  0.4820
 7295TIP3    H143300   2.109   4.198  15.327 -0.2599  2.3073 -0.7612
 7295TIP3    H243301   2.044   4.182  15.191 -0.1229 -3.3928 -0.3844
 7296TIP3   OH243302   2.889   4.892   5.120  0.2275 -0.2342  0.3287
 7296TIP3    H143303   2.948   4.825   5.154 -0.0721 -1.2889 -1.1273
 7296TIP3    H243304   2.939   4.974   5.124  1.0973 -0.7905  0.8385
 7297TIP3   OH243305   6.339   3.570  14.358  0.3413 -0.4415  0.3252
 7297TIP3    H143306   6.342   3.603  14.448  1.5129 -0.9948  0.5093
 7297TIP3    H243307   6.431   3.566  14.332 -0.0299  0.9139 -1.3515
 7298TIP3   OH243308   4.552   5.592   4.686  0.5280  0.1245 -0.3315
 7298TIP3    H143309   4.482   5.656   4.683  0.7151  0.2896 -1.3978
 7298TIP3    H243310   4.551   5.560   4.777  0.4839  1.6622  0.2335
 7299TIP3   OH243311   4.954   2.961  15.332 -0.1771 -0.1598  0.5902
 7299TIP3    H143312   4.971   2.941  15.240  1.8578  0.9991  0.6575
 7299TIP3    H243313   4.859   2.957  15.340 -0.3219 -1.6879 -1.2029
 7300TIP3   OH243314   6.672   0.593   5.861  0.3099  0.3712  0.0588
 7300TIP3    H143315   6.746   0.548   5.902 -0.2282 -0.3821  0.2247
 7300TIP3    H243316   6.616   0.620   5.934  0.1677  0.4911 -0.0924
 7301TIP3   OH243317   5.952   3.530   0.990 -0.1553  0.0096  0.1582
 7301TIP3    H143318   6.047   3.520   0.995 -0.0653 -0.0537 -1.2509
 7301TIP3    H243319   5.918   3.440   0.985 -0.3663 -0.0016  1.3389
 7302TIP3   OH243320   6.326   4.854   4.832  0.2638  0.1137 -0.0205
 7302TIP3    H143321   6.313   4.918   4.902  0.7290 -0.2213  0.3745
 7302TIP3    H243322   6.270   4.886   4.761 -1.4138 -0.3848  1.0315
 7303TIP3   OH243323   6.727   3.446   1.790  0.5863 -0.2399 -0.4239
 7303TIP3    H143324   6.743   3.365   1.742  2.6285 -0.4737  0.5172
 7303TIP3    H243325   6.814   3.473   1.821 -0.0769  2.1226 -0.3862
 7304TIP3   OH243326   3.532   4.148   5.687  0.0501 -0.0493  0.5600
 7304TIP3    H143327   3.463   4.181   5.629 -2.7532 -3.5950  1.4665
 7304TIP3    H243328   3.605   4.128   5.628 -0.8065  1.0163 -0.9449
 7305TIP3   OH243329   6.273   3.346  17.359 -0.3080 -0.5169 -0.3625
 7305TIP3    H143330   6.213   3.287  17.404 -1.0945 -1.6672 -2.7553
 7305TIP3    H243331   6.241   3.349  17.269  1.0013  1.8977 -0.8361
 7306TIP3   OH243332   5.670   2.766   3.308  0.6813 -0.1879 -0.1283
 7306TIP3    H143333   5.732   2.792   3.241  0.4391 -2.9594 -1.5522
 7306TIP3    H243334   5.720   2.710   3.367 -0.4876 -3.1059 -1.7300
 7307TIP3   OH243335   6.001   5.736   0.859 -0.0209  1.1534 -0.5976
 7307TIP3    H143336   5.912   5.755   0.890 -0.3435  0.2632 -0.9223
 7307TIP3    H243337   6.022   5.808   0.800 -1.4452  0.2617 -2.3020
 7308TIP3   OH243338   2.221   5.069   6.156 -0.1860  0.6625  0.1705
 7308TIP3    H143339   2.287   5.036   6.217  0.2279  2.8124  0.9583
 7308TIP3    H243340   2.204   5.159   6.184 -2.2402  0.7248 -1.0477
 7309TIP3   OH243341   0.546   0.428   0.082  0.0461 -0.2567 -0.1267
 7309TIP3    H143342   0.543   0.376   0.161 -1.8874  0.5089  0.3657
 7309TIP3    H243343   0.596   0.506   0.106 -0.8429  0.1437  0.4804
 7310TIP3   OH243344   6.560   0.363   6.186  0.1895 -0.4222 -0.0007
 7310TIP3    H143345   6.569   0.415   6.266  1.9978 -0.0057 -0.4352
 7310TIP3    H243346   6.496   0.295   6.208 -3.4137  2.7195  0.1806
 7311TIP3   OH243347   4.980   2.493   1.526 -0.0642 -0.1018  0.1545
 7311TIP3    H143348   5.063   2.538   1.508 -0.6113  0.8115 -0.1996
 7311TIP3    H243349   4.931   2.499   1.444 -0.0217 -1.6867 -0.0090
 7312TIP3   OH243350   6.273   1.513   2.007  0.2374  0.0418 -0.8284
 7312TIP3    H143351   6.257   1.479   1.919  1.5427 -1.2066 -0.6098
 7312TIP3    H243352   6.254   1.607   2.000  1.2238  0.1508 -2.6940
 7313TIP3   OH243353   5.755   2.331   0.028 -0.3281 -0.1110  0.1140
 7313TIP3    H143354   5.818   2.387   0.074  0.2398 -0.8811  0.3064
 7313TIP3    H243355   5.808   2.288  -0.040 -1.3211  1.6941 -1.9262
 7314TIP3   OH243356   3.625   2.639  17.360  0.5026 -0.0912  0.2386
 7314TIP3    H143357   3.610   2.683  17.277  0.3622 -0.9109 -0.1815
 7314TIP3    H243358   3.702   2.584  17.345  1.5556  1.0598  1.1805
 7315TIP3   OH243359   2.306   4.672  17.021 -0.3096  0.0715 -0.8317
 7315TIP3    H143360   2.333   4.580  17.016  0.2460  0.0952  0.9228
 7315TIP3    H243361   2.211   4.669  17.030 -0.3006 -0.3270 -0.8643
 7316TIP3   OH243362   1.035   3.647   5.442  0.0145 -0.0627  0.1575
 7316TIP3    H143363   1.123   3.624   5.412 -0.3742 -0.7828 -0.4681
 7316TIP3    H243364   1.047   3.726   5.494  1.2296 -0.8811  1.1980
 7317TIP3   OH243365   2.319   1.064   0.519  0.0784  0.1442  0.0359
 7317TIP3    H143366   2.316   1.095   0.610  0.0321 -1.4150  0.5835
 7317TIP3    H243367   2.243   1.104   0.477 -1.0162 -0.6639  1.2065
 7318TIP3   OH243368   0.495   0.689   0.449 -0.2474 -0.7241  0.4868
 7318TIP3    H143369   0.512   0.601   0.483  0.1130 -1.5485 -1.6794
 7318TIP3    H243370   0.405   0.708   0.477 -0.6540 -2.1525  0.2532
 7319TIP3   OH243371   4.514   5.322   3.811  1.0078 -0.0206 -0.0167
 7319TIP3    H143372   4.549   5.326   3.722  0.7988  0.5672 -0.0721
 7319TIP3    H243373   4.419   5.320   3.799  0.9803  0.0305  0.1954
 7320TIP3   OH243374   1.312   3.374  15.494  0.1879  0.2801 -0.0677
 7320TIP3    H143375   1.325   3.355  15.401  0.1918 -0.5089  0.0849
 7320TIP3    H243376   1.279   3.292  15.531 -2.7457  1.4304  0.0611
 7321TIP3   OH243377   4.826   3.468   6.136  0.6876 -0.4193  0.7896
 7321TIP3    H143378   4.884   3.530   6.181  0.9276 -0.7947  1.0063
 7321TIP3    H243379   4.737   3.498   6.158  0.7955  0.1607  0.4506
 7322TIP3   OH243380   4.815   0.166  11.764 -0.2787 -0.1488  0.3743
 7322TIP3    H143381   4.753   0.109  11.810 -1.1791  1.6717  1.5147
 7322TIP3    H243382   4.835   0.236  11.826 -0.9112  1.9743 -1.6488
 7323TIP3   OH243383   4.635   5.331   5.313 -0.2030 -0.0300 -0.1107
 7323TIP3    H143384   4.719   5.338   5.268  0.7919 -3.2897  0.9407
 7323TIP3    H243385   4.658   5.327   5.406 -1.6599  0.3250  0.2832
 7324TIP3   OH243386   6.123   5.524   3.919  0.0715  0.2874  0.2900
 7324TIP3    H143387   6.097   5.609   3.884 -0.2192  0.7017  1.4521
 7324TIP3    H243388   6.189   5.545   3.986 -1.6502 -0.1617  2.2346
 7325TIP3   OH243389   2.752   0.402  11.999  0.9000  0.0375  0.3587
 7325TIP3    H143390   2.758   0.497  11.989  0.7453 -0.0652 -0.9566
 7325TIP3    H243391   2.729   0.388  12.091  0.1852  1.2987  0.3919
 7326TIP3   OH243392   0.024   0.245  13.257 -0.3927  0.1501  0.1149
 7326TIP3    H143393   0.070   0.180  13.309  0.9592  0.4838 -0.6322
 7326TIP3    H243394   0.070   0.327  13.274  0.0820  0.2659 -1.5754
 7327TIP3   OH243395   6.549   4.797   0.776 -0.6274 -0.4694  0.0542
 7327TIP3    H143396   6.555   4.708   0.811 -0.9874 -0.1200  1.0508
 7327TIP3    H243397   6.466   4.830   0.810 -0.3208  0.3776 -0.0061
 7328TIP3   OH243398   3.726   2.760  13.494  0.5378  0.5209  0.4663
 7328TIP3    H143399   3.778   2.686  13.464  0.8643  1.3035 -0.9620
 7328TIP3    H243400   3.646   2.720  13.529  1.0109 -0.5335  0.3875
 7329TIP3   OH243401   0.938   4.844   0.780  0.5925 -0.2077  0.0884
 7329TIP3    H143402   0.980   4.800   0.853  1.3022  0.9565  0.4196
 7329TIP3    H243403   0.971   4.934   0.784 -1.4233  0.5952 -0.0456
 7330TIP3   OH243404   5.357   4.806  16.756 -0.0861  0.2027 -0.1317
 7330TIP3    H143405   5.384   4.876  16.696 -0.5044 -0.4452 -1.1127
 7330TIP3    H243406   5.261   4.811  16.756 -0.0881  0.2480  0.5707
 7331TIP3   OH243407   2.174   1.519   1.415  0.6938  0.1655  0.1601
 7331TIP3    H143408   2.149   1.501   1.506 -2.5570 -1.3789 -0.8861
 7331TIP3    H243409   2.147   1.440   1.367  1.0216  1.4876 -2.3535
 7332TIP3   OH243410   3.738   1.926  13.406 -0.4521  0.3949 -0.5415
 7332TIP3    H143411   3.746   1.885  13.492  2.5368 -1.4500 -1.5477
 7332TIP3    H243412   3.802   1.998  13.409  0.0371 -0.0014 -1.3691
 7333TIP3   OH243413   1.108   5.164   2.520 -0.0274  0.1992 -0.1849
 7333TIP3    H143414   1.042   5.114   2.568  0.9749 -0.5401  0.4597
 7333TIP3    H243415   1.115   5.120   2.435  2.4241 -2.2517  1.1391
 7334TIP3   OH243416   2.306   4.243  13.164 -0.5661 -0.5959  0.4706
 7334TIP3    H143417   2.282   4.278  13.078  1.1213  0.3478  0.3251
 7334TIP3    H243418   2.344   4.157  13.145 -1.4242 -0.9701  0.4288
 7335TIP3   OH243419   1.045   5.095   1.442  0.3614  0.1841  0.4330
 7335TIP3    H143420   1.035   5.003   1.466  0.3179  0.1096  0.1300
 7335TIP3    H243421   1.030   5.143   1.524 -1.5224  0.0313  0.2230
 7336TIP3   OH243422   4.998   3.759  16.266 -0.1064 -0.1346  0.2257
 7336TIP3    H143423   5.064   3.762  16.196 -0.6775  0.2548 -0.3091
 7336TIP3    H243424   5.037   3.704  16.333  1.9440  2.2618  1.1525
 7337TIP3   OH243425   3.132   0.002   6.078 -0.3588 -0.0642 -0.0561
 7337TIP3    H143426   3.209  -0.037   6.119  0.2266 -1.4897 -2.3248
 7337TIP3    H243427   3.114  -0.054   6.002 -2.3428  1.4733 -0.8156
 7338TIP3   OH243428   0.306   5.170   1.130  0.6843  0.0450  0.7089
 7338TIP3    H143429   0.390   5.153   1.171  0.3611  0.0539  1.3914
 7338TIP3    H243430   0.270   5.246   1.177  0.5065  0.3432  0.1065
 7339TIP3   OH243431   0.257   0.043   1.403 -0.2910 -0.0314 -0.4286
 7339TIP3    H143432   0.248  -0.046   1.370 -2.1887 -0.1439  0.3108
 7339TIP3    H243433   0.251   0.035   1.498 -0.6442  0.9105 -0.3613
 7340TIP3   OH243434   6.436   5.601   3.091 -0.6691 -0.0628 -0.7657
 7340TIP3    H143435   6.505   5.612   3.026  0.5749  0.3323  0.5768
 7340TIP3    H243436   6.452   5.514   3.129  0.5460  0.9023  1.1139
 7341TIP3   OH243437   2.413   2.501   5.697  0.0811  0.4207  0.5009
 7341TIP3    H143438   2.497   2.498   5.651 -0.0113 -2.8467  0.3070
 7341TIP3    H243439   2.357   2.441   5.649 -1.7968  1.1220  1.7093
 7342TIP3   OH243440   3.691   4.559  11.379  0.5189 -0.0371 -0.6652
 7342TIP3    H143441   3.728   4.513  11.304  2.0416  2.5333 -1.6210
 7342TIP3    H243442   3.645   4.634  11.341  0.6985  0.9333  0.9263
 7343TIP3   OH243443   0.320   0.292   4.041 -0.2146 -0.0617  0.2808
 7343TIP3    H143444   0.345   0.208   4.078 -1.1678 -0.3848  0.2161
 7343TIP3    H243445   0.359   0.357   4.101 -1.2704 -0.5717  1.5821
 7344TIP3   OH243446   0.835   5.974  14.089 -0.3743 -0.1700  0.1527
 7344TIP3    H143447   0.849   5.893  14.137  3.4502  0.7382  0.9101
 7344TIP3    H243448   0.834   5.947  13.997  0.7259 -1.1387  0.3998
 7345TIP3   OH243449   6.430   2.108  13.884 -0.3748  0.0351 -0.3505
 7345TIP3    H143450   6.439   2.199  13.913 -1.6656  0.3256 -0.7838
 7345TIP3    H243451   6.517   2.082  13.855  0.0455  1.0713 -0.0246
 7346TIP3   OH243452   1.922   6.244  16.385 -0.2799  0.1560 -0.1306
 7346TIP3    H143453   1.949   6.239  16.294 -0.0719  0.5053 -0.0909
 7346TIP3    H243454   1.987   6.192  16.432 -0.2226  0.2149 -0.1457
 7347TIP3   OH243455   0.896   3.371  12.444 -0.3223 -0.0077 -0.4796
 7347TIP3    H143456   0.879   3.277  12.434  0.2585 -0.1057 -0.5532
 7347TIP3    H243457   0.820   3.413  12.403  0.4993 -0.4197 -2.5695
 7348TIP3   OH243458   0.030   4.889   5.807  0.2842 -0.5571 -0.3464
 7348TIP3    H143459  -0.046   4.902   5.864 -0.2667 -1.6231 -0.8107
 7348TIP3    H243460   0.097   4.852   5.865  0.9596  1.6853  0.3788
 7349TIP3   OH243461   1.664   6.550   1.287  0.1495 -0.3771  0.2893
 7349TIP3    H143462   1.718   6.550   1.208 -0.4673  2.6400 -0.2480
 7349TIP3    H243463   1.725   6.534   1.358  1.3702  0.5013 -0.5152
 7350TIP3   OH243464   6.587   0.541  11.553  0.2409  0.0596  0.4936
 7350TIP3    H143465   6.656   0.521  11.616  1.4304 -0.9575 -1.0638
 7350TIP3    H243466   6.612   0.494  11.473 -0.2287  2.6733 -1.3595
 7351TIP3   OH243467   0.309   3.585  14.504  0.6540  0.1579  0.2937
 7351TIP3    H143468   0.231   3.638  14.519  1.0327  0.6298  0.6293
 7351TIP3    H243469   0.286   3.530  14.429  0.5908  1.4789 -0.6956
 7352TIP3   OH243470   6.485   0.985   4.475 -0.4216  0.2901  0.2808
 7352TIP3    H143471   6.573   0.947   4.479 -0.4674  0.0033 -0.9599
 7352TIP3    H243472   6.497   1.068   4.428 -0.5327  1.2062  1.8005
 7353TIP3   OH243473   3.223   0.417   4.190  0.4953 -0.3823  0.1190
 7353TIP3    H143474   3.220   0.455   4.278  2.4625  2.7464 -1.0368
 7353TIP3    H243475   3.309   0.375   4.185 -0.2893 -2.0803  0.1925
 7354TIP3   OH243476   5.991   2.171   4.435  0.0621  0.0528 -0.1638
 7354TIP3    H143477   5.933   2.114   4.485 -0.0493 -2.0017 -2.4068
 7354TIP3    H243478   5.934   2.241   4.404 -0.9046 -1.0336 -0.9492
 7355TIP3   OH243479   2.935   3.753   2.135 -0.1001  0.4042 -0.6132
 7355TIP3    H143480   3.013   3.717   2.176 -1.3765 -0.9279  0.7869
 7355TIP3    H243481   2.927   3.705   2.052 -1.1664 -1.9453  0.7275
 7356TIP3   OH243482   3.319   6.049  14.290  0.5603 -0.3490  0.1916
 7356TIP3    H143483   3.360   5.969  14.321 -0.0041 -1.0723 -0.8749
 7356TIP3    H243484   3.289   6.093  14.370  0.5619 -1.3624  0.7672
 7357TIP3   OH243485   3.039   0.055  15.691 -0.9162 -0.1375 -0.1173
 7357TIP3    H143486   3.124   0.014  15.671 -1.6732 -1.5376 -0.5587
 7357TIP3    H243487   3.044   0.141  15.649  0.5938  0.1472  0.5631
 7358TIP3   OH243488   1.836   4.915   3.333 -0.8470  0.2994  0.5031
 7358TIP3    H143489   1.882   4.837   3.366 -1.2503 -0.3437 -0.4142
 7358TIP3    H243490   1.786   4.946   3.408 -0.7829 -0.4061  0.8525
 7359TIP3   OH243491   4.495   3.747   4.117  0.2537  0.2027  0.3952
 7359TIP3    H143492   4.513   3.654   4.109 -0.2466 -0.3433  3.8026
 7359TIP3    H243493   4.581   3.786   4.135  0.3588  0.3093 -0.3116
 7360TIP3   OH243494   3.464   2.321   1.213 -0.2430  0.1998  0.1754
 7360TIP3    H143495   3.521   2.290   1.143 -2.1996  1.2728 -2.0271
 7360TIP3    H243496   3.514   2.391   1.255  1.0992 -0.6773  0.0890
 7361TIP3   OH243497   3.042   1.952  12.696 -0.8874  0.0585  0.3545
 7361TIP3    H143498   3.041   2.045  12.721 -3.2935  0.1559  0.0747
 7361TIP3    H243499   2.952   1.932  12.674 -0.3543 -2.2954  0.0711
 7362TIP3   OH243500   0.591   0.170  13.299 -0.5855  0.0994  0.2089
 7362TIP3    H143501   0.581   0.191  13.392 -1.4392  1.6746 -0.1870
 7362TIP3    H243502   0.615   0.254  13.258  0.1847 -0.6501 -0.9384
 7363TIP3   OH243503   5.035   0.530  14.407 -0.9837 -0.1730  0.5398
 7363TIP3    H143504   5.081   0.606  14.372  0.8724 -0.9793  1.1219
 7363TIP3    H243505   5.017   0.475  14.331  1.2267 -0.9711  0.5243
 7364TIP3   OH243506   2.249   5.168   6.524 -0.1220  0.0254  0.3762
 7364TIP3    H143507   2.281   5.247   6.480 -0.3685 -0.0040  0.1426
 7364TIP3    H243508   2.285   5.096   6.474 -0.7884 -0.0087 -0.0637
 7365TIP3   OH243509   4.842   4.752  15.589 -0.0838  0.2853 -0.0487
 7365TIP3    H143510   4.751   4.735  15.613  0.1720 -1.3424 -0.0769
 7365TIP3    H243511   4.849   4.724  15.498  0.0301  2.1622 -0.6593
 7366TIP3   OH243512   3.105   2.449   0.976 -0.1729 -0.3874 -0.0821
 7366TIP3    H143513   3.131   2.469   1.066  0.8342  0.0478 -0.4514
 7366TIP3    H243514   3.085   2.355   0.977 -1.9282 -0.0433  0.9765
 7367TIP3   OH243515   4.921   6.209   2.308  0.3643  0.7855 -0.1225
 7367TIP3    H143516   4.884   6.297   2.304  2.4351  1.6699 -1.2897
 7367TIP3    H243517   4.934   6.185   2.216  1.3676 -0.0626  0.2295
 7368TIP3   OH243518   1.782   4.472   2.793  0.0139  0.6003 -0.6845
 7368TIP3    H143519   1.742   4.412   2.729 -0.1401  0.2018 -0.2172
 7368TIP3    H243520   1.708   4.510   2.839  0.1656 -0.7681  0.7610
 7369TIP3   OH243521   4.507   3.144   3.993 -0.1325  0.0751  0.0751
 7369TIP3    H143522   4.486   3.194   3.914 -2.2759  0.7725  1.0029
 7369TIP3    H243523   4.496   3.053   3.967 -2.3488  0.3431 -0.0900
 7370TIP3   OH243524   4.158   2.350   2.149  0.1247 -0.5751  0.3464
 7370TIP3    H143525   4.155   2.379   2.240 -0.7437  1.9283 -0.3950
 7370TIP3    H243526   4.153   2.430   2.098  0.1014 -1.9363 -1.9332
 7371TIP3   OH243527   3.906   1.858   0.994 -0.2782 -0.3476  0.1092
 7371TIP3    H143528   3.922   1.763   1.001  0.5265 -0.1570  1.1303
 7371TIP3    H243529   3.950   1.884   0.913 -0.4805 -0.8459 -0.1635
 7372TIP3   OH243530   0.782   4.536  16.193 -0.1814 -0.0333  0.1709
 7372TIP3    H143531   0.820   4.622  16.211  0.4782  0.0139 -1.3821
 7372TIP3    H243532   0.856   4.482  16.165 -1.1297  0.0029 -2.6850
 7373TIP3   OH243533   6.280   1.937  11.513  0.3433  0.1451  0.8356
 7373TIP3    H143534   6.316   1.850  11.525  1.3132  0.6214  1.4956
 7373TIP3    H243535   6.187   1.923  11.497  0.6750 -1.0655 -0.1286
 7374TIP3   OH243536   4.657   3.777   1.006 -0.2198  0.4434  0.0369
 7374TIP3    H143537   4.718   3.833   1.055  0.3239 -0.2831  0.2106
 7374TIP3    H243538   4.658   3.694   1.053  1.7814 -0.9446 -2.1892
 7375TIP3   OH243539   3.204   5.167   3.960 -0.1389 -0.7075 -0.2180
 7375TIP3    H143540   3.123   5.205   3.994 -0.4737  0.1243 -1.8498
 7375TIP3    H243541   3.176   5.097   3.902  0.4338 -2.3538  1.4146
 7376TIP3   OH243542   4.029   0.002  14.430  0.2601  0.1031  0.3236
 7376TIP3    H143543   4.032   0.012  14.525  1.6156 -1.2072  0.4588
 7376TIP3    H243544   4.047   0.089  14.396 -1.5085  0.8768  1.2239
 7377TIP3   OH243545   1.934   2.270  12.106  0.4677 -0.0107  0.3125
 7377TIP3    H143546   1.907   2.332  12.037  0.1053  0.7736  1.1434
 7377TIP3    H243547   2.001   2.317  12.155  1.2769 -0.8601  0.0423
 7378TIP3   OH243548   1.909   5.151  16.459  0.1770  0.2702  0.3505
 7378TIP3    H143549   1.871   5.226  16.412  1.6893  0.8378 -0.0429
 7378TIP3    H243550   1.970   5.191  16.521  1.4614 -0.6380 -0.2852
 7379TIP3   OH243551   0.387   4.088   2.494 -0.5935  0.4636 -0.6258
 7379TIP3    H143552   0.458   4.133   2.541 -1.0713 -0.4212  1.0218
 7379TIP3    H243553   0.319   4.154   2.484 -0.3642  0.7521 -0.3070
 7380TIP3   OH243554   2.504   0.978  16.466 -0.7073 -0.2104  0.1622
 7380TIP3    H143555   2.452   0.899  16.452 -1.1375  0.0539  0.2390
 7380TIP3    H243556   2.583   0.947  16.510 -0.9816 -0.5693  0.4148
 7381TIP3   OH243557   5.940   1.512  16.699  0.2999 -0.3854 -0.4969
 7381TIP3    H143558   5.919   1.605  16.697  2.0417  0.0385 -1.2065
 7381TIP3    H243559   6.035   1.509  16.711  0.2238 -2.0831 -0.0668
 7382TIP3   OH243560   5.974   5.469  13.278 -0.2733  0.4353  0.0487
 7382TIP3    H143561   5.927   5.502  13.355  0.5312  3.4232 -0.6136
 7382TIP3    H243562   5.906   5.426  13.226 -1.4667  1.1603  0.9515
 7383TIP3   OH243563   5.972   4.669  12.504 -0.3946 -0.3682  0.1716
 7383TIP3    H143564   5.973   4.711  12.590 -0.5908  0.8454 -0.4006
 7383TIP3    H243565   5.886   4.627  12.498 -0.6593  0.1526  0.2894
 7384TIP3   OH243566   0.795   3.929  12.349 -0.8435  0.0253 -0.4298
 7384TIP3    H143567   0.860   3.866  12.381 -1.1241  0.2985  0.7228
 7384TIP3    H243568   0.782   3.989  12.422 -1.5972  0.6140 -1.0340
 7385TIP3   OH243569   3.111   5.983   1.750 -0.0341  0.2054 -0.3010
 7385TIP3    H143570   3.196   5.943   1.733  0.5883  1.9293 -1.4583
 7385TIP3    H243571   3.115   6.011   1.841  1.9200  3.0686 -1.1389
 7386TIP3   OH243572   5.563   3.983   2.870 -0.6328  0.6252  0.0946
 7386TIP3    H143573   5.531   3.913   2.927 -0.7141  2.1351  1.9934
 7386TIP3    H243574   5.645   3.949   2.835  0.6712  0.4593  2.9967
 7387TIP3   OH243575   0.718   6.259   6.581 -0.3242 -0.3090  0.1295
 7387TIP3    H143576   0.781   6.191   6.606  1.0869  1.1158  0.6441
 7387TIP3    H243577   0.633   6.226   6.611  0.6280 -0.8610  2.4384
 7388TIP3   OH243578   4.334   6.585  14.446 -0.4404 -0.5326 -0.9056
 7388TIP3    H143579   4.383   6.664  14.424  0.6066 -1.5209 -2.2757
 7388TIP3    H243580   4.332   6.534  14.366  0.1389 -2.5454  0.2904
 7389TIP3   OH243581   1.629   0.628   4.274 -1.3095 -0.4970 -0.6458
 7389TIP3    H143582   1.635   0.649   4.180  0.9946 -1.4035 -0.7486
 7389TIP3    H243583   1.613   0.533   4.276 -2.1034 -0.3669 -0.0893
 7390TIP3   OH243584   4.782   5.267   5.812  0.5631  0.4262 -0.6469
 7390TIP3    H143585   4.751   5.320   5.739 -1.1383  0.4439  0.0489
 7390TIP3    H243586   4.762   5.320   5.890  2.2088  0.3548 -0.1247
 7391TIP3   OH243587   2.924   4.598   3.813  0.3011 -0.3674 -0.0697
 7391TIP3    H143588   2.945   4.628   3.725  0.9559 -1.2427 -0.2281
 7391TIP3    H243589   2.847   4.649   3.839  0.6840  0.5830 -0.7621
 7392TIP3   OH243590   3.597   2.578  15.118 -0.8534  0.1464  0.2509
 7392TIP3    H143591   3.660   2.623  15.174  0.1622  0.1710 -0.8672
 7392TIP3    H243592   3.525   2.555  15.177 -0.2924  1.0623  1.3428
 7393TIP3   OH243593   1.738   3.012  17.336  0.1269 -0.4132 -0.2922
 7393TIP3    H143594   1.828   2.987  17.316  0.1415  0.1190 -0.9035
 7393TIP3    H243595   1.700   3.037  17.252  0.4002  2.4923  0.3147
 7394TIP3   OH243596   2.628   4.634   2.538 -0.9225  0.4994 -0.1356
 7394TIP3    H143597   2.566   4.684   2.593 -0.9498  1.8655 -1.3641
 7394TIP3    H243598   2.580   4.618   2.457 -0.1528  0.3171 -0.5573
 7395TIP3   OH243599   4.026   1.299   2.409 -0.0556 -0.1194  0.4972
 7395TIP3    H143600   4.065   1.367   2.465 -0.1720  0.3385  0.0303
 7395TIP3    H243601   4.098   1.269   2.354 -0.2362  0.3735 -0.0197
 7396TIP3   OH243602   6.742   6.655   0.189 -0.2603  0.2533 -0.2699
 7396TIP3    H143603   6.798   6.635   0.264 -0.5871 -1.0343 -0.3560
 7396TIP3    H243604   6.663   6.603   0.203  0.0609 -0.7786 -1.9732
 7397TIP3   OH243605   4.910   1.507  15.511 -0.2171  0.0997 -0.6803
 7397TIP3    H143606   4.968   1.456  15.568 -0.2981  0.6746 -0.0662
 7397TIP3    H243607   4.909   1.459  15.428  0.5843 -0.2904 -0.4727
 7398TIP3   OH243608   3.595   0.294   2.919  0.0880 -0.7887  0.2233
 7398TIP3    H143609   3.591   0.386   2.945  0.0767 -0.2384 -1.5713
 7398TIP3    H243610   3.673   0.289   2.864  0.9546 -2.2146  1.5089
 7399TIP3   OH243611   2.905   1.016  13.194 -0.3378 -0.1699 -0.0209
 7399TIP3    H143612   2.842   1.076  13.155 -0.6918  0.2004  1.0761
 7399TIP3    H243613   2.872   0.929  13.173 -0.4457  0.0182 -0.6468
 7400TIP3   OH243614   4.541   1.747  14.665  0.1173  0.6601 -0.2756
 7400TIP3    H143615   4.463   1.693  14.651 -0.2222  0.6813  1.3258
 7400TIP3    H243616   4.533   1.777  14.755  1.8656  0.8613 -0.1546
 7401TIP3   OH243617   3.607   3.576   1.083 -0.2154 -0.3089 -0.1108
 7401TIP3    H143618   3.602   3.591   1.178  0.8653 -1.6929  0.1872
 7401TIP3    H243619   3.626   3.663   1.046 -3.0153  0.7418  0.6693
 7402TIP3   OH243620   5.357   4.850   5.334 -1.0114  0.2378 -0.4917
 7402TIP3    H143621   5.267   4.860   5.303 -1.8934 -1.0234  1.5099
 7402TIP3    H243622   5.388   4.940   5.346 -2.0720  0.6818 -0.9623
 7403TIP3   OH243623   2.520   1.914  11.075  0.2249 -0.5356  0.4049
 7403TIP3    H143624   2.563   1.892  10.993 -2.9430  1.8061 -2.1675
 7403TIP3    H243625   2.493   2.006  11.064 -3.6089 -1.2076  2.3602
 7404TIP3   OH243626   5.299   4.267  11.386  0.3360  0.8825  0.7022
 7404TIP3    H143627   5.306   4.352  11.430 -1.2108  0.7199  1.3067
 7404TIP3    H243628   5.333   4.204  11.449 -0.6590  0.8038  1.1804
 7405TIP3   OH243629   4.128   0.110   2.988  0.0064  0.6025 -0.5476
 7405TIP3    H143630   4.162   0.116   3.077 -1.7582  0.1522  0.1907
 7405TIP3    H243631   4.205   0.125   2.932  1.1817  0.6910  1.0267
 7406TIP3   OH243632   5.215   5.649  15.283  0.1997 -0.5892 -0.0192
 7406TIP3    H143633   5.282   5.582  15.273  0.3983 -0.2320 -1.2749
 7406TIP3    H243634   5.263   5.732  15.276  0.0472 -0.2690  2.0905
 7407TIP3   OH243635   5.529   4.579  15.770  0.3757  0.2160  1.2105
 7407TIP3    H143636   5.463   4.528  15.815 -0.2020  0.0142  0.1675
 7407TIP3    H243637   5.612   4.539  15.795 -0.0061 -0.5816  1.2199
 7408TIP3   OH243638   6.599   6.433   0.136  0.1630 -0.1477  0.3059
 7408TIP3    H143639   6.691   6.411   0.122  0.0959 -0.3097  0.1106
 7408TIP3    H243640   6.553   6.350   0.126 -0.0499  0.0060 -0.0337
 7409TIP3   OH243641   2.823   0.584  16.667 -0.4602  0.6873 -0.9798
 7409TIP3    H143642   2.865   0.499  16.652 -1.9427  0.0861 -2.0519
 7409TIP3    H243643   2.747   0.563  16.721  1.0852  1.8980  1.8560
 7410TIP3   OH243644   4.217   0.391   5.040  0.3601  0.5526 -0.2471
 7410TIP3    H143645   4.132   0.432   5.055  0.1576  0.8975 -2.0414
 7410TIP3    H243646   4.249   0.367   5.127 -1.8764 -0.2140  0.4177
 7411TIP3   OH243647   4.520   1.105  14.381 -0.1098 -0.2920  0.0324
 7411TIP3    H143648   4.491   1.195  14.366 -2.7325 -1.4359 -2.8045
 7411TIP3    H243649   4.560   1.078  14.298 -0.9880 -2.2482  0.1928
 7412TIP3   OH243650   4.794   3.768   3.845  0.0860  0.2524  0.4616
 7412TIP3    H143651   4.725   3.804   3.789  0.9572  2.0727  0.4854
 7412TIP3    H243652   4.758   3.686   3.877 -2.3243  1.4136  0.9514
 7413TIP3   OH243653   0.404   3.600   2.264 -0.4907 -0.3366  0.3371
 7413TIP3    H143654   0.384   3.615   2.172 -1.1632 -1.1624  0.3348
 7413TIP3    H243655   0.480   3.655   2.282  0.6141 -1.3065 -1.1122
 7414TIP3   OH243656   1.492   0.821   4.446 -0.2164 -0.0205  0.2892
 7414TIP3    H143657   1.449   0.784   4.524 -2.3783  2.5237  0.4456
 7414TIP3    H243658   1.493   0.749   4.383 -2.8157 -0.8646  1.0664
 7415TIP3   OH243659   5.047   1.432  11.258 -0.2851  0.3651 -0.3024
 7415TIP3    H143660   5.032   1.519  11.294 -0.2323  0.4117 -0.3927
 7415TIP3    H243661   4.970   1.414  11.205 -0.3372  0.3198 -0.2115
 7416TIP3   OH243662   2.149   1.923  15.864  0.2199 -0.0703  0.4306
 7416TIP3    H143663   2.139   1.979  15.940 -1.3943  0.0840  0.1417
 7416TIP3    H243664   2.143   1.983  15.789 -1.1026 -0.5467  0.1297
 7417TIP3   OH243665   1.994   1.016  10.611  0.4522 -0.1538  0.1937
 7417TIP3    H143666   2.083   1.041  10.588  0.7876 -1.0222  0.5079
 7417TIP3    H243667   1.954   1.097  10.645  0.9857  0.3287 -0.3221
 7418TIP3   OH243668   1.649   1.360  11.560  0.1666  0.2281 -0.9306
 7418TIP3    H143669   1.721   1.423  11.569 -0.2699  0.4643  2.4222
 7418TIP3    H243670   1.684   1.279  11.597 -0.6666 -0.1953 -1.0502
 7419TIP3   OH243671   4.450   3.350   5.214 -0.4589 -0.4600 -0.1606
 7419TIP3    H143672   4.403   3.348   5.297  1.7471 -2.2260  1.1711
 7419TIP3    H243673   4.542   3.340   5.238  0.5500  1.6915 -2.6930
 7420TIP3   OH243674   4.453   0.303   4.810  0.1266 -0.5099  0.3705
 7420TIP3    H143675   4.475   0.284   4.719  0.4250  1.8676 -0.1126
 7420TIP3    H243676   4.371   0.255   4.825 -0.8652  0.4183 -1.7217
 7421TIP3   OH243677   0.880   4.719   3.338  0.2961  0.2427  0.5314
 7421TIP3    H143678   0.822   4.773   3.285  2.6851 -0.7681 -3.4879
 7421TIP3    H243679   0.896   4.640   3.286  2.2278 -1.3041  3.1478
 7422TIP3   OH243680   4.914   6.183  13.692 -0.2200  0.4312  0.0093
 7422TIP3    H143681   4.964   6.263  13.676 -0.5049  0.7941  0.8545
 7422TIP3    H243682   4.887   6.153  13.605  0.2463  1.0216 -0.3423
 7423TIP3   OH243683   1.064   3.125  16.900 -0.3435  0.2846  0.0533
 7423TIP3    H143684   1.110   3.186  16.958  1.0423 -1.1613  0.5278
 7423TIP3    H243685   0.971   3.141  16.918 -0.0801  2.9580 -0.5952
 7424TIP3   OH243686   3.053   1.107  11.995  0.0639  0.1283  0.8012
 7424TIP3    H143687   3.134   1.126  12.042  0.7275 -1.0972  0.1853
 7424TIP3    H243688   3.078   1.111  11.903 -0.3593 -1.1244  0.6170
 7425TIP3   OH243689   6.510   0.510   3.239  0.1164 -0.0557 -0.3801
 7425TIP3    H143690   6.433   0.494   3.184  2.4336  1.5944 -4.5992
 7425TIP3    H243691   6.509   0.604   3.256  1.0665 -0.0357 -0.3633
 7426TIP3   OH243692   4.243   0.283   0.859  0.4517 -0.4213  0.1870
 7426TIP3    H143693   4.262   0.326   0.775  1.2475  1.5931  1.3337
 7426TIP3    H243694   4.215   0.195   0.834  1.7909 -0.2801 -2.1316
 7427TIP3   OH243695   3.166   3.352  15.735 -0.1583 -0.1717 -0.0870
 7427TIP3    H143696   3.228   3.320  15.670 -0.3263 -0.4235 -0.1270
 7427TIP3    H243697   3.125   3.273  15.769  1.6134 -0.2555  2.0674
 7428TIP3   OH243698   4.050   4.127   6.026  0.0489  0.1135  0.1709
 7428TIP3    H143699   4.032   4.036   6.049  2.2779 -0.2158  0.8713
 7428TIP3    H243700   4.045   4.174   6.110 -1.4152  0.7272 -0.2339
 7429TIP3   OH243701   3.387   6.425   1.341 -0.0422 -0.1511 -0.3011
 7429TIP3    H143702   3.409   6.351   1.397  0.3318  0.4806  0.4017
 7429TIP3    H243703   3.452   6.422   1.271  1.0858  0.5161  0.6698
 7430TIP3   OH243704   1.591   1.834  12.370  0.2783  0.5358  0.7069
 7430TIP3    H143705   1.628   1.829  12.282 -1.5260  0.8091 -0.1078
 7430TIP3    H243706   1.584   1.928  12.387 -0.9460  0.5097  0.4245
 7431TIP3   OH243707   4.542   5.272  15.003  0.0184  0.0728 -0.5310
 7431TIP3    H143708   4.556   5.334  14.931 -0.6068 -1.3679 -1.9386
 7431TIP3    H243709   4.448   5.279  15.022 -0.3317 -1.3045 -1.5739
 7432TIP3   OH243710   5.318   2.540   2.392 -0.6296 -0.0764  0.4996
 7432TIP3    H143711   5.308   2.634   2.381  0.6205  0.2185  1.7098
 7432TIP3    H243712   5.302   2.504   2.304 -0.2759  1.3111 -0.1619
 7433TIP3   OH243713   0.084   1.402   5.518 -0.7500 -0.3075  0.1152
 7433TIP3    H143714   0.144   1.339   5.556 -2.3935 -2.6508 -0.9388
 7433TIP3    H243715   0.005   1.397   5.572 -1.2116  0.2228 -0.4892
 7434TIP3   OH243716   0.790   0.386  14.067  0.3357 -0.1746  0.1951
 7434TIP3    H143717   0.810   0.304  14.022  1.4915 -0.3950  1.0729
 7434TIP3    H243718   0.695   0.387  14.074  0.1148 -0.2196 -2.0648
 7435TIP3   OH243719   1.502   5.521  10.570  0.0770 -0.4382 -0.3668
 7435TIP3    H143720   1.444   5.454  10.533  0.0082 -0.8809  0.4942
 7435TIP3    H243721   1.564   5.541  10.500 -1.0723 -0.0020 -1.2879
 7436TIP3   OH243722   6.118   5.388   3.648 -0.6746  0.7109  0.1857
 7436TIP3    H143723   6.201   5.436   3.650 -0.0731 -0.2349 -0.6516
 7436TIP3    H243724   6.099   5.378   3.554 -1.5942  0.6818  0.3724
 7437TIP3   OH243725   0.100   3.992  11.428  0.4551 -0.7267 -0.4512
 7437TIP3    H143726   0.099   3.937  11.350 -0.5006 -0.2548 -0.7862
 7437TIP3    H243727   0.008   3.996  11.455  0.6984 -0.3692  0.3302
 7438TIP3   OH243728   3.394   0.323   3.758 -0.1912 -0.0066 -0.2151
 7438TIP3    H143729   3.308   0.290   3.785  0.3396 -0.2413  1.2411
 7438TIP3    H243730   3.447   0.244   3.747  0.3617  0.2128  0.7627
 7439TIP3   OH243731   2.390   3.640   5.852  0.2666  0.2496  0.2210
 7439TIP3    H143732   2.380   3.699   5.927  1.0359 -0.2810  0.7552
 7439TIP3    H243733   2.466   3.587   5.874  0.1018 -0.3563 -0.6504
 7440TIP3   OH243734   3.365   4.488   0.007  0.5196  0.0014 -0.0608
 7440TIP3    H143735   3.401   4.534   0.084  1.1926 -0.3185 -0.1760
 7440TIP3    H243736   3.296   4.433   0.043  0.8345 -0.1511  0.3243
 7441TIP3   OH243737   0.474   2.835   6.046 -0.5148 -0.0299  0.3075
 7441TIP3    H143738   0.408   2.828   6.115 -0.0826  0.7175  0.8095
 7441TIP3    H243739   0.554   2.862   6.091 -0.5942  2.0044 -0.6367
 7442TIP3   OH243740   1.339   2.385  11.375 -0.9171  0.4899  0.5255
 7442TIP3    H143741   1.430   2.370  11.348 -1.8820 -0.5637 -2.5429
 7442TIP3    H243742   1.337   2.476  11.404  1.1645  0.4307  1.0081
 7443TIP3   OH243743   4.088   6.442  17.061 -0.3077  0.3988  0.2257
 7443TIP3    H143744   4.022   6.375  17.045 -0.8757  0.9881  0.0717
 7443TIP3    H243745   4.134   6.451  16.977 -0.7103  0.7100  0.0345
 7444TIP3   OH243746   0.871   0.763  16.735  0.0547  0.1173 -0.6864
 7444TIP3    H143747   0.794   0.717  16.768  1.2719 -2.2208 -0.8662
 7444TIP3    H243748   0.878   0.842  16.788 -0.0652 -1.7243  2.2900
 7445TIP3   OH243749   5.032   3.136  15.005  0.0277 -0.1227  0.2109
 7445TIP3    H143750   5.034   3.045  14.976  0.9055 -0.0981  0.1663
 7445TIP3    H243751   4.940   3.162  14.997 -0.2031 -0.9547  0.0851
 7446TIP3   OH243752   5.045   1.252  16.804 -0.1012  0.0528  0.2113
 7446TIP3    H143753   5.137   1.248  16.828  0.2078 -1.0446 -1.0750
 7446TIP3    H243754   5.003   1.300  16.876  1.1653 -0.9647  1.6680
 7447TIP3   OH243755   2.477   0.773  13.772 -0.7675 -0.4535 -0.3676
 7447TIP3    H143756   2.506   0.853  13.729 -1.0741 -0.0241  0.2060
 7447TIP3    H243757   2.390   0.757  13.737 -0.1220 -1.3902 -1.6143
 7448TIP3   OH243758   0.751   0.636   1.135  0.6054 -0.4774 -0.1835
 7448TIP3    H143759   0.662   0.617   1.104  0.4568  1.4386 -1.1211
 7448TIP3    H243760   0.762   0.581   1.213 -1.7198 -0.1740  0.4431
 7449TIP3   OH243761   5.180   3.831   1.685 -0.4743  0.3514 -0.2968
 7449TIP3    H143762   5.209   3.923   1.686  0.6717  0.0117 -0.7319
 7449TIP3    H243763   5.132   3.822   1.602 -0.9254  0.6504 -0.0725
 7450TIP3   OH243764   5.163   1.213   5.552  0.4412 -0.1681  0.0574
 7450TIP3    H143765   5.251   1.225   5.518  0.7282  0.4202  0.9626
 7450TIP3    H243766   5.151   1.118   5.557  1.2063 -0.2474  0.3998
 7451TIP3   OH243767   3.526   5.155   0.898 -0.0272 -0.5353 -0.4773
 7451TIP3    H143768   3.590   5.211   0.941  1.7547 -2.1995 -0.7546
 7451TIP3    H243769   3.538   5.069   0.939 -2.1212 -0.9228 -0.5625
 7452TIP3   OH243770   0.506   3.045   2.250 -0.2909  0.0552 -0.1126
 7452TIP3    H143771   0.460   2.971   2.209 -0.5493  0.3589 -0.3772
 7452TIP3    H243772   0.581   3.061   2.193 -0.4608  0.2580 -0.2799
 7453TIP3   OH243773   4.041   4.467  17.169  0.6976  0.1434  0.1973
 7453TIP3    H143774   4.117   4.523  17.157 -0.9599  2.2524 -1.1621
 7453TIP3    H243775   3.966   4.526  17.164 -1.1374 -2.0740 -0.4124
 7454TIP3   OH243776   3.764   5.861   0.718  0.2089  0.1536  0.5775
 7454TIP3    H143777   3.839   5.804   0.705 -0.0137 -0.3304  1.3536
 7454TIP3    H243778   3.723   5.867   0.632 -0.1323 -1.3851  0.6079
 7455TIP3   OH243779   5.056   2.176   0.427 -0.1114  0.2769 -0.0477
 7455TIP3    H143780   5.037   2.152   0.517  0.9004 -1.8057 -0.3196
 7455TIP3    H243781   5.049   2.271   0.425  0.5948  0.4460  2.3968
 7456TIP3   OH243782   5.641   6.149   2.791 -0.6171  0.3888  0.3502
 7456TIP3    H143783   5.676   6.074   2.744 -1.1574  0.5517 -0.3204
 7456TIP3    H243784   5.558   6.169   2.748 -0.2431  1.6923  0.1706
 7457TIP3   OH243785   3.585   1.979   2.667  0.2485 -0.2716  0.1657
 7457TIP3    H143786   3.507   1.965   2.613  0.1583  0.2291  0.1605
 7457TIP3    H243787   3.623   1.892   2.678  0.4772 -0.3296 -1.0100
 7458TIP3   OH243788   5.407   4.114  11.563  0.4655  0.4114 -0.7208
 7458TIP3    H143789   5.492   4.076  11.540  0.1948 -0.5855 -0.1562
 7458TIP3    H243790   5.354   4.039  11.591 -0.3809  1.1076 -0.3932
 7459TIP3   OH243791   0.906   1.037  10.907  0.0075 -0.2186 -0.5460
 7459TIP3    H143792   0.899   1.080  10.992  0.8098 -1.1681  0.0098
 7459TIP3    H243793   0.890   1.108  10.844 -3.0247  0.0835  0.3658
 7460TIP3   OH243794   3.338   6.448   3.032 -0.1485  0.2883 -0.4347
 7460TIP3    H143795   3.274   6.519   3.038 -0.3005  0.3917 -2.5632
 7460TIP3    H243796   3.416   6.490   2.995 -0.2595 -0.6113 -1.7728
 7461TIP3   OH243797   4.256   4.647  15.377  0.0436 -0.4083 -0.0533
 7461TIP3    H143798   4.350   4.663  15.379 -0.1056  0.5834  1.5820
 7461TIP3    H243799   4.219   4.727  15.339 -0.2821  0.5162  2.0488
 7462TIP3   OH243800   0.719   6.008  11.361  0.0207  0.0898 -0.8075
 7462TIP3    H143801   0.715   5.917  11.391  0.4596  0.6655  1.0972
 7462TIP3    H243802   0.784   6.007  11.291  0.4576 -0.9711 -0.4084
 7463TIP3   OH243803   0.388   4.255   0.656  0.3472 -0.4519  0.4841
 7463TIP3    H143804   0.340   4.337   0.667 -0.4536 -0.9595  0.9349
 7463TIP3    H243805   0.370   4.228   0.566  1.6066  0.4673 -0.0551
 7464TIP3   OH243806   1.899   5.265  13.435  0.4737  0.1067 -0.3516
 7464TIP3    H143807   1.929   5.315  13.360  1.5126 -0.3590 -0.2657
 7464TIP3    H243808   1.864   5.184  13.398  0.4430  0.1287 -0.3707
 7465TIP3   OH243809   0.879   6.257  11.169  0.1434  0.3102 -0.4256
 7465TIP3    H143810   0.974   6.250  11.175  0.1618  0.0437 -0.9354
 7465TIP3    H243811   0.849   6.169  11.147 -0.2634  0.2955  0.1521
 7466TIP3   OH243812   5.744   5.296  13.219 -0.0965 -0.1933  0.4492
 7466TIP3    H143813   5.697   5.264  13.296 -0.2713  1.5723  1.1088
 7466TIP3    H243814   5.774   5.216  13.175 -0.4661 -1.2502  2.0288
 7467TIP3   OH243815   2.841   4.423   5.083  0.0241 -0.1989 -0.1185
 7467TIP3    H143816   2.826   4.468   5.167  0.3839 -0.1637 -0.0724
 7467TIP3    H243817   2.928   4.385   5.091 -0.6017 -1.6582  0.1837
 7468TIP3   OH243818   6.705   5.673   1.100  0.2083  0.7512 -0.0081
 7468TIP3    H143819   6.669   5.739   1.040 -1.1501  0.2645  0.2212
 7468TIP3    H243820   6.698   5.591   1.051  0.2416  0.5284  0.3641
 7469TIP3   OH243821   3.328   6.668  12.917  0.5083 -0.8072 -0.4393
 7469TIP3    H143822   3.278   6.593  12.949  1.7264 -0.3496  3.0255
 7469TIP3    H243823   3.355   6.644  12.829 -1.1412 -3.3722 -0.3415
 7470TIP3   OH243824   4.189   5.504  12.480 -0.5238 -0.6205  0.0062
 7470TIP3    H143825   4.175   5.563  12.407  0.7568 -0.3726 -0.0588
 7470TIP3    H243826   4.119   5.525  12.542 -1.5199 -0.7305 -1.0701
 7471TIP3   OH243827   1.047   3.368  12.746  0.3411 -0.3166 -0.1607
 7471TIP3    H143828   1.090   3.283  12.746 -2.1592 -1.6864 -1.1393
 7471TIP3    H243829   1.016   3.380  12.656 -2.8854 -0.3730  0.8110
 7472TIP3   OH243830   1.874   3.455   4.109 -0.6584  0.2823 -0.1600
 7472TIP3    H143831   1.954   3.488   4.069 -0.0600  2.0274  2.2512
 7472TIP3    H243832   1.904   3.398   4.180 -1.6624 -1.6078 -1.1584
 7473TIP3   OH243833   4.105   0.616  11.793  0.7067  0.3013 -0.4615
 7473TIP3    H143834   4.086   0.677  11.722  0.0771  1.8330  0.9617
 7473TIP3    H243835   4.021   0.600  11.835  0.8860 -1.4443 -0.6635
 7474TIP3   OH243836   6.596   1.677  17.361  0.1299  0.2880 -0.7276
 7474TIP3    H143837   6.575   1.612  17.294  1.0072 -1.5089  0.6387
 7474TIP3    H243838   6.679   1.714  17.332  0.4663 -0.4192 -0.6976
 7475TIP3   OH243839   5.161   2.151  15.130  1.1134 -0.1323 -0.0663
 7475TIP3    H143840   5.192   2.240  15.149  0.1201  0.1700  0.1582
 7475TIP3    H243841   5.148   2.150  15.035 -1.9905  1.0363  0.2283
 7476TIP3   OH243842   2.666   1.042  16.723 -0.3580  0.5469 -0.1029
 7476TIP3    H143843   2.630   1.129  16.706  1.3974  1.3404  0.0644
 7476TIP3    H243844   2.623   1.015  16.805 -0.1491  1.7324  0.4302
 7477TIP3   OH243845   5.062   5.535  14.799 -0.4785 -0.7292 -0.1908
 7477TIP3    H143846   5.039   5.471  14.866 -2.3783 -1.6035 -1.5896
 7477TIP3    H243847   5.121   5.596  14.844 -1.7691 -1.1786  2.3368
 7478TIP3   OH243848   2.856   1.597   3.307  0.1255  0.2407  0.2552
 7478TIP3    H143849   2.844   1.521   3.363  2.3721 -0.5872 -0.2736
 7478TIP3    H243850   2.923   1.570   3.244 -0.3557  2.0442 -1.1197
 7479TIP3   OH243851   2.192   2.422  12.712 -0.0698  0.1252  0.3320
 7479TIP3    H143852   2.255   2.457  12.775 -0.2394 -1.9254  1.7559
 7479TIP3    H243853   2.109   2.466  12.734  0.5617  1.9616 -0.7831
 7480TIP3   OH243854   5.613   0.040  13.469  0.2185 -0.0730 -0.3121
 7480TIP3    H143855   5.684  -0.012  13.430  2.7960  1.5663  1.8307
 7480TIP3    H243856   5.538  -0.019  13.470  2.7016 -3.5376  1.2297
 7481TIP3   OH243857   4.347   5.268   0.255 -0.1486 -0.4047  0.0094
 7481TIP3    H143858   4.300   5.317   0.322 -0.1236 -0.2651 -0.0737
 7481TIP3    H243859   4.278   5.226   0.203 -0.1365 -2.0268  1.2316
 7482TIP3   OH243860   2.124   3.614  14.846 -0.5542  0.2072 -0.0091
 7482TIP3    H143861   2.088   3.587  14.930 -1.0917  0.6774 -0.0767
 7482TIP3    H243862   2.084   3.554  14.783  0.4660 -0.6621  0.1468
 7483TIP3   OH243863   4.661   5.000   5.627 -0.0706  0.0701  0.2566
 7483TIP3    H143864   4.735   5.056   5.603  1.5234 -1.0332  2.2508
 7483TIP3    H243865   4.631   4.962   5.545  2.4156 -0.4246 -0.4944
 7484TIP3   OH243866   1.026   3.332  15.777  0.0637  0.2097 -0.3255
 7484TIP3    H143867   1.100   3.332  15.837  0.5620 -1.7896 -0.8780
 7484TIP3    H243868   0.961   3.276  15.820 -0.0614 -0.2213 -1.0657
 7485TIP3   OH243869   3.251   5.998   0.515  0.3077  0.0246  0.2407
 7485TIP3    H143870   3.278   5.951   0.436  0.9734 -0.6092  0.8241
 7485TIP3    H243871   3.333   6.034   0.550 -0.0545  0.7429  0.3716
 7486TIP3   OH243872   0.429   2.158   0.428 -0.3163  0.2605 -0.5186
 7486TIP3    H143873   0.351   2.172   0.480 -0.2227  0.0355 -0.3136
 7486TIP3    H243874   0.455   2.068   0.448  0.1712  0.4363 -0.3471
 7487TIP3   OH243875   5.011   4.254  14.278 -0.5857  0.0182  0.3555
 7487TIP3    H143876   5.050   4.341  14.288 -2.5956  0.9775  0.2823
 7487TIP3    H243877   5.073   4.207  14.223  1.2036  0.9369  1.4770
 7488TIP3   OH243878   4.514   1.214   5.109  0.1170 -0.6905 -0.4294
 7488TIP3    H143879   4.574   1.267   5.055 -0.2082 -0.2137 -0.3300
 7488TIP3    H243880   4.557   1.209   5.194 -1.0195  1.6256  0.3728
 7489TIP3   OH243881   4.982   2.426  16.717 -0.0632 -0.1456 -0.6097
 7489TIP3    H143882   4.895   2.463  16.724  0.1307  0.1417  0.4300
 7489TIP3    H243883   4.982   2.352  16.778  0.9996  1.0424  0.9090
 7490TIP3   OH243884   0.178   5.731  11.706 -0.1168  0.0458  0.0230
 7490TIP3    H143885   0.273   5.719  11.711 -0.0402  0.0622 -1.1577
 7490TIP3    H243886   0.167   5.825  11.691 -0.2527 -0.1198 -1.0083
 7491TIP3   OH243887   1.824   1.092   3.606  0.1290 -0.2755 -0.3005
 7491TIP3    H143888   1.762   1.129   3.669 -2.0527 -1.7987 -1.3837
 7491TIP3    H243889   1.838   1.002   3.636  1.9340  0.0555 -0.0468
 7492TIP3   OH243890   4.739   1.840  13.267 -0.3655 -0.3064  0.6105
 7492TIP3    H143891   4.655   1.799  13.248 -0.5806  0.7132 -0.8638
 7492TIP3    H243892   4.718   1.932  13.280  0.5352  0.0164 -0.0979
 7493TIP3   OH243893   6.609   4.165   4.121 -0.5014 -0.2041  0.3094
 7493TIP3    H143894   6.534   4.216   4.090 -0.6996 -0.7284 -0.0936
 7493TIP3    H243895   6.604   4.170   4.217 -0.3528  0.7583  0.2714
 7494TIP3   OH243896   6.306   4.980   5.846  0.3063 -0.9314 -0.4169
 7494TIP3    H143897   6.258   5.001   5.766  0.3410 -1.1092 -0.4860
 7494TIP3    H243898   6.257   5.023   5.916  0.4492 -0.5141 -0.5704
 7495TIP3   OH243899   6.731   1.864  16.428  0.4608 -0.2284 -0.0572
 7495TIP3    H143900   6.781   1.786  16.404  1.4351  0.6106 -0.8602
 7495TIP3    H243901   6.668   1.833  16.493 -0.1545 -1.9801 -1.3988
 7496TIP3   OH243902   2.987   5.121   0.013 -0.0155  0.0753  0.3291
 7496TIP3    H143903   3.054   5.178  -0.024 -1.1885  1.6521  0.4849
 7496TIP3    H243904   2.978   5.050  -0.050  1.7549 -0.1564  0.3017
 7497TIP3   OH243905   3.891   1.364   0.780 -0.7947  0.4619 -0.1052
 7497TIP3    H143906   3.827   1.433   0.798 -0.3868  1.2346 -1.4930
 7497TIP3    H243907   3.972   1.396   0.820 -0.8655  0.2523  0.2139
 7498TIP3   OH243908   4.377   6.085   2.727  0.2602 -0.1850 -0.7148
 7498TIP3    H143909   4.374   6.066   2.633 -1.0015  1.5574 -1.0800
 7498TIP3    H243910   4.286   6.103   2.750  0.9042  2.1905  0.2149
 7499TIP3   OH243911   1.729   4.923   1.611  1.1512 -0.7402  0.0253
 7499TIP3    H143912   1.703   4.841   1.653  0.4639 -0.0562  0.9777
 7499TIP3    H243913   1.701   4.913   1.520 -1.1009 -0.6611  0.6520
 7500TIP3   OH243914   0.280   1.487  14.438 -0.1006 -0.4151  0.3448
 7500TIP3    H143915   0.352   1.537  14.399  0.8613 -2.0008 -0.0009
 7500TIP3    H243916   0.205   1.505  14.381  0.2921  0.3624  0.0516
 7501TIP3   OH243917   2.333   6.185   5.794 -0.2793  0.3013 -0.5142
 7501TIP3    H143918   2.392   6.253   5.761 -1.2697  0.3388 -2.3370
 7501TIP3    H243919   2.370   6.161   5.880  3.1516 -0.6110 -2.0571
 7502TIP3   OH243920   2.341   2.499   4.043  0.6237  0.0816 -0.1922
 7502TIP3    H143921   2.316   2.517   4.134 -0.9905 -0.9680 -0.3929
 7502TIP3    H243922   2.263   2.461   4.004  2.4888 -3.5463 -0.8358
 7503TIP3   OH243923   4.857   3.921  12.377  0.5097 -0.1062  0.2569
 7503TIP3    H143924   4.953   3.914  12.375  0.4681 -0.9549  0.7956
 7503TIP3    H243925   4.837   3.961  12.462  0.4545  1.7493 -0.5794
 7504TIP3   OH243926   1.246   3.529   6.071  0.1842 -0.3855 -0.6664
 7504TIP3    H143927   1.285   3.611   6.041 -0.2356  0.9885  2.1500
 7504TIP3    H243928   1.151   3.544   6.065  0.1037 -0.8735 -0.6541
 7505TIP3   OH243929   2.347   3.422   1.401 -0.3202 -0.6641 -0.1457
 7505TIP3    H143930   2.256   3.395   1.408  0.2540 -2.3739  1.9114
 7505TIP3    H243931   2.380   3.419   1.491  1.8185 -0.3077 -0.8580
 7506TIP3   OH243932   5.190   2.888  16.293 -0.8685  0.2900  0.4477
 7506TIP3    H143933   5.201   2.795  16.313 -0.9425  0.6384  2.3149
 7506TIP3    H243934   5.260   2.908  16.230 -0.3842 -0.8683  0.5986
 7507TIP3   OH243935   5.583   2.418  16.498 -0.4603  0.0463 -0.4993
 7507TIP3    H143936   5.508   2.462  16.538  0.4227  0.4901  0.7213
 7507TIP3    H243937   5.547   2.378  16.419 -1.6199  1.6893 -0.8632
 7508TIP3   OH243938   0.240   5.708   5.383  0.1228 -0.1924  0.1675
 7508TIP3    H143939   0.290   5.726   5.463  0.2251 -0.1955  0.1054
 7508TIP3    H243940   0.151   5.690   5.413  0.0505  0.2732  0.2408
 7509TIP3   OH243941   4.587   2.246   1.510 -0.2699 -0.0628  0.2071
 7509TIP3    H143942   4.624   2.203   1.587  0.2060 -1.9060 -0.9987
 7509TIP3    H243943   4.622   2.197   1.436  0.5942  2.6575 -1.3034
 7510TIP3   OH243944   5.055   0.488  11.084  0.1821  0.4080 -0.2738
 7510TIP3    H143945   5.112   0.495  11.007  0.6291  0.3471  0.0516
 7510TIP3    H243946   4.985   0.429  11.056  1.6084 -1.5670  0.1124
 7511TIP3   OH243947   5.820   6.159   0.179 -0.7773  0.4814  0.2088
 7511TIP3    H143948   5.795   6.219   0.109  0.3920  1.1368  0.3267
 7511TIP3    H243949   5.902   6.118   0.148 -1.3466 -0.7858  0.2948
 7512TIP3   OH243950   4.923   1.835  16.647 -0.0349 -0.4977  0.6228
 7512TIP3    H143951   4.937   1.915  16.596 -1.2632 -1.2972 -1.0638
 7512TIP3    H243952   4.928   1.864  16.738 -0.8600  1.5970  0.0648
 7513TIP3   OH243953   6.388   5.869   0.790 -0.2192 -0.0923  0.3557
 7513TIP3    H143954   6.384   5.928   0.715  3.0276 -0.2032 -0.0862
 7513TIP3    H243955   6.336   5.793   0.764 -0.3399  0.4758 -1.1800
 7514TIP3   OH243956   5.518   4.783   1.206 -0.2741 -0.0983  0.0523
 7514TIP3    H143957   5.613   4.774   1.210 -0.0034  2.3847  2.5035
 7514TIP3    H243958   5.503   4.856   1.145 -0.4332  0.6554  0.9669
 7515TIP3   OH243959   0.308   3.824  15.300  0.5810  0.0486  0.0019
 7515TIP3    H143960   0.337   3.869  15.379  0.6527 -0.6555  0.3861
 7515TIP3    H243961   0.382   3.830  15.240  0.9421 -0.3503  0.3926
 7516TIP3   OH243962   4.039   5.825   4.903 -0.2680 -0.2504 -0.3921
 7516TIP3    H143963   3.985   5.897   4.937  1.3131  1.0420 -0.5044
 7516TIP3    H243964   4.060   5.852   4.814  1.0262 -0.4373 -0.1564
 7517TIP3   OH243965   4.106   4.437  16.867  0.1311 -0.1331  0.1009
 7517TIP3    H143966   4.114   4.421  16.961  0.9984  0.2403  0.0995
 7517TIP3    H243967   4.157   4.516  16.851  2.1036 -1.5522 -1.0757
 7518TIP3   OH243968   0.574   2.259  15.048 -0.0381  0.4066  0.7018
 7518TIP3    H143969   0.493   2.208  15.053 -0.3806  0.8589 -0.0004
 7518TIP3    H243970   0.594   2.263  14.954  0.5749  0.6486  0.8356
 7519TIP3   OH243971   1.033   2.850   5.333  0.0526 -0.0013  0.0908
 7519TIP3    H143972   0.996   2.763   5.348  0.4046  0.0464  1.3088
 7519TIP3    H243973   0.970   2.893   5.275  0.0042 -1.1457 -0.7502
 7520TIP3   OH243974   6.131   3.333  12.778  0.1351 -0.1930 -0.0044
 7520TIP3    H143975   6.074   3.343  12.855  0.1562 -1.6128  0.2293
 7520TIP3    H243976   6.219   3.345  12.812  0.2639 -2.2740  0.5490
 7521TIP3   OH243977   4.073   4.560  12.623 -0.9351  0.6184 -0.0799
 7521TIP3    H143978   4.136   4.510  12.674 -2.3314 -0.8827  0.2491
 7521TIP3    H243979   4.006   4.586  12.687 -2.9707 -1.6979 -1.1327
 7522TIP3   OH243980   3.317   5.395   0.007 -0.5749 -0.9126 -0.0313
 7522TIP3    H143981   3.367   5.343  -0.057 -1.4263 -3.4383  1.2185
 7522TIP3    H243982   3.372   5.472   0.023  1.4836 -2.0999 -0.9562
 7523TIP3   OH243983   3.762   1.507  10.719  0.2896  0.3441 -0.2402
 7523TIP3    H143984   3.766   1.576  10.653  0.0839 -0.6346 -1.3069
 7523TIP3    H243985   3.674   1.514  10.756  0.4774  1.0292  0.0956
 7524TIP3   OH243986   1.905   2.895  12.228 -0.1908  0.5110 -0.1952
 7524TIP3    H143987   1.914   2.876  12.134  0.8885  1.4804 -0.3061
 7524TIP3    H243988   1.873   2.985  12.231  1.6275  1.1933  0.3422
 7525TIP3   OH243989   5.413   1.673   4.483  0.0081 -0.0813 -0.0683
 7525TIP3    H143990   5.472   1.715   4.420 -3.3304 -0.2316 -3.7303
 7525TIP3    H243991   5.423   1.579   4.467  1.5886 -0.4063  2.2967
 7526TIP3   OH243992   3.840   3.520   5.076  0.2742  0.5700 -0.5990
 7526TIP3    H143993   3.825   3.446   5.018  1.8420 -1.3418  1.2719
 7526TIP3    H243994   3.773   3.512   5.144  1.2196  0.0283  0.3125
 7527TIP3   OH243995   2.774   3.845   1.074  0.0355  0.2878  0.2148
 7527TIP3    H143996   2.679   3.833   1.076  0.1646 -0.6933  1.8229
 7527TIP3    H243997   2.809   3.757   1.063  0.7908  0.5860  0.1885
 7528TIP3   OH243998   5.157   5.709   1.870 -0.0488  0.1737 -0.0872
 7528TIP3    H143999   5.176   5.659   1.791 -0.6264  0.9103 -0.7114
 7528TIP3    H244000   5.176   5.800   1.846 -1.5609  0.5903  0.1540
 7529TIP3   OH244001   2.934   5.732  16.723  0.0604 -0.2375  0.1578
 7529TIP3    H144002   2.883   5.680  16.786  2.1555 -3.2272 -0.3816
 7529TIP3    H244003   2.997   5.779  16.777 -0.8570  0.5839  0.5451
 7530TIP3   OH244004   0.832   3.355  13.354  0.3599  0.2488  0.1451
 7530TIP3    H144005   0.828   3.351  13.450 -1.4662  0.0699  0.1053
 7530TIP3    H244006   0.754   3.404  13.330  0.5367 -0.1467 -1.2877
 7531TIP3   OH244007   5.577   1.504  16.544 -0.5084 -0.0869  0.5583
 7531TIP3    H144008   5.508   1.550  16.593 -0.6001  1.1321 -0.6483
 7531TIP3    H244009   5.613   1.442  16.607  0.3715  2.4008  2.7061
 7532TIP3   OH244010   5.967   6.379   3.919 -0.0803  0.0946 -0.4776
 7532TIP3    H144011   5.929   6.394   4.005  0.5559 -1.7151  0.1814
 7532TIP3    H244012   6.062   6.387   3.932  0.0063  0.1108 -1.0695
 7533TIP3   OH244013   4.505   5.567  15.924  0.3127 -0.0609  0.2216
 7533TIP3    H144014   4.564   5.640  15.941 -1.1491  1.0289  0.8756
 7533TIP3    H244015   4.432   5.581  15.984 -1.5667 -0.2365 -1.9012
 7534TIP3   OH244016   0.267   0.354   0.847  0.7951  0.1164  0.0216
 7534TIP3    H144017   0.335   0.287   0.837  2.3258  1.6165 -0.1591
 7534TIP3    H244018   0.231   0.365   0.759  0.5514 -0.4494  0.0489
 7535TIP3   OH244019   3.893   3.417  12.713  0.1059 -0.2454 -0.0575
 7535TIP3    H144020   3.927   3.478  12.648 -0.3272  1.7010  1.4491
 7535TIP3    H244021   3.919   3.454  12.797  2.3450 -3.6684  0.9817
 7536TIP3   OH244022   1.869   1.450  17.264 -0.1422 -0.0292 -0.0709
 7536TIP3    H144023   1.806   1.379  17.281  0.6704 -0.5026  1.1126
 7536TIP3    H244024   1.953   1.405  17.254  0.3640  0.7404  0.5880
 7537TIP3   OH244025   0.734   4.107   2.705 -0.3104  0.5781 -0.1372
 7537TIP3    H144026   0.646   4.142   2.691 -0.3828 -0.0717 -1.4558
 7537TIP3    H244027   0.720   4.020   2.743 -0.2763  0.2165 -0.9274
 7538TIP3   OH244028   4.225   5.365  17.364 -0.3858 -0.8621  0.5004
 7538TIP3    H144029   4.317   5.376  17.389 -0.1354 -0.5333 -0.5056
 7538TIP3    H244030   4.178   5.424  17.423 -0.0679 -1.7034  1.6350
 7539TIP3   OH244031   4.681   4.251  15.302  0.0580  0.0775 -0.5187
 7539TIP3    H144032   4.676   4.345  15.316  0.8620  0.1011 -0.3514
 7539TIP3    H244033   4.755   4.239  15.243 -0.2076 -0.4337 -0.7602
 7540TIP3   OH244034   5.134   2.640   1.142 -0.1535  0.2007  0.0993
 7540TIP3    H144035   5.108   2.723   1.182 -0.9751  0.5225 -1.0466
 7540TIP3    H244036   5.224   2.653   1.114  0.3846  0.0184  1.6783
 7541TIP3   OH244037   5.799   0.493  11.991 -0.4504 -0.4313  0.1112
 7541TIP3    H144038   5.804   0.574  11.941 -0.5821 -0.7962 -0.5225
 7541TIP3    H244039   5.775   0.520  12.079 -2.4343  0.1044 -0.5309
 7542TIP3   OH244040   1.726   0.783  14.756  0.0216  0.8205 -0.1493
 7542TIP3    H144041   1.816   0.774  14.725 -0.2642  2.0284 -1.4212
 7542TIP3    H244042   1.677   0.814  14.679 -1.8079 -1.2779  0.0417
 7543TIP3   OH244043   4.699   0.126   6.276 -0.6847 -0.0429  0.2008
 7543TIP3    H144044   4.711   0.076   6.195  0.3433  1.2284 -0.4609
 7543TIP3    H244045   4.774   0.102   6.330  0.5128  1.6846 -0.6259
 7544TIP3   OH244046   2.087   4.150  16.337 -0.4270  0.2764  0.3302
 7544TIP3    H144047   2.173   4.159  16.294 -0.4916  0.0144  0.1429
 7544TIP3    H244048   2.048   4.073  16.296 -0.6395  0.2338  0.6128
 7545TIP3   OH244049   5.549   1.635   0.176 -0.8218  0.6069  0.0410
 7545TIP3    H144050   5.577   1.649   0.086  0.1915 -0.6408  0.1331
 7545TIP3    H244051   5.512   1.719   0.203 -3.6710  0.2864 -2.3677
 7546TIP3   OH244052   6.262   4.146   3.380  0.1372  0.8992  0.0279
 7546TIP3    H144053   6.296   4.079   3.439 -3.7844  0.1821  1.8132
 7546TIP3    H244054   6.262   4.226   3.431  0.7753  1.3112 -0.5959
 7547TIP3   OH244055   6.146   3.876   0.303  0.1592  0.1862  0.6111
 7547TIP3    H144056   6.227   3.860   0.256 -0.9329  0.3354 -1.4371
 7547TIP3    H244057   6.110   3.788   0.321  0.7082  0.1230  1.4566
 7548TIP3   OH244058   5.854   3.111  16.352 -0.2316  0.5213 -0.2768
 7548TIP3    H144059   5.819   3.198  16.334  0.7119  0.9906  0.0853
 7548TIP3    H244060   5.904   3.088  16.273 -0.7878  0.1364 -0.5262
 7549TIP3   OH244061   2.665   3.795  11.418  0.1446  0.0472  0.5605
 7549TIP3    H144062   2.615   3.826  11.494 -1.1296  0.7899 -0.5588
 7549TIP3    H244063   2.614   3.722  11.384 -1.7990  2.4676 -2.2126
 7550TIP3   OH244064   0.646   1.175   4.751  0.0477  0.3817  0.4663
 7550TIP3    H144065   0.652   1.152   4.659 -1.7525  0.7242  0.2248
 7550TIP3    H244066   0.585   1.248   4.754 -0.2160  0.1434  1.9582
 7551TIP3   OH244067   0.580   2.734   2.306  0.4065  0.2232 -0.4525
 7551TIP3    H144068   0.639   2.667   2.272  0.1070 -0.8636  1.0672
 7551TIP3    H244069   0.598   2.737   2.400 -1.3827  0.4223 -0.0802
 7552TIP3   OH244070   2.806   4.336   3.724  0.2146 -0.4022  0.0592
 7552TIP3    H144071   2.835   4.426   3.743 -0.7861 -0.4463  2.1029
 7552TIP3    H244072   2.864   4.307   3.654  1.2345  1.4951  0.0333
 7553TIP3   OH244073   2.246   5.970  15.832 -0.0039  0.4269  0.2135
 7553TIP3    H144074   2.151   5.975  15.837  0.0534  0.7648  1.1975
 7553TIP3    H244075   2.266   5.877  15.841 -0.2512  0.3415 -0.1412
 7554TIP3   OH244076   0.055   3.827  11.994 -0.1128  0.4968  0.2709
 7554TIP3    H144077   0.090   3.902  11.947  1.2532 -0.0705  0.3361
 7554TIP3    H244078  -0.003   3.865  12.060  0.6649  1.4954  0.3991
 7555TIP3   OH244079   0.238   3.851  13.774 -0.0221  0.4955 -0.8857
 7555TIP3    H144080   0.160   3.894  13.810 -0.0161 -0.5719  0.4669
 7555TIP3    H244081   0.303   3.921  13.769 -1.1790  1.5238 -2.5340
 7556TIP3   OH244082   6.122   5.542  15.739  0.2400 -0.1957  0.1142
 7556TIP3    H144083   6.146   5.536  15.831 -1.5748 -0.4352  0.6178
 7556TIP3    H244084   6.199   5.511  15.692  2.2721  2.5536  1.3737
 7557TIP3   OH244085   5.612   5.104  11.474  0.3283  0.5108 -0.2345
 7557TIP3    H144086   5.673   5.039  11.509 -0.2740 -0.3309 -0.6932
 7557TIP3    H244087   5.533   5.094  11.528  0.3056  1.0182 -0.1687
 7558TIP3   OH244088   2.654   0.031  11.513 -0.0694 -0.0979  1.0367
 7558TIP3    H144089   2.734  -0.017  11.493  0.1095  0.6799 -0.2138
 7558TIP3    H244090   2.680   0.096  11.578  0.0998 -0.4716  1.3431
 7559TIP3   OH244091   6.035   4.831   1.260 -0.6113 -0.2903 -0.2947
 7559TIP3    H144092   6.048   4.863   1.171  0.2564 -0.3636 -0.2028
 7559TIP3    H244093   6.119   4.790   1.283 -0.3148  1.0199  1.0876
 7560TIP3   OH244094   5.741   1.426  11.898 -0.3913  0.0138  0.0957
 7560TIP3    H144095   5.782   1.510  11.878 -0.2678  0.2376  1.2145
 7560TIP3    H244096   5.783   1.364  11.839  0.9941  0.3794  0.6588
 7561TIP3   OH244097   4.819   0.554  16.945 -0.4901  0.5312 -0.2870
 7561TIP3    H144098   4.806   0.567  17.039 -0.1540  0.2197 -0.1947
 7561TIP3    H244099   4.840   0.641  16.911 -2.9507  1.1261 -0.4775
 7562TIP3   OH244100   4.414   4.624   5.902  0.4443  0.4818 -0.2306
 7562TIP3    H144101   4.466   4.593   5.976 -1.1082 -0.2094  0.6223
 7562TIP3    H244102   4.337   4.664   5.942 -0.4086  0.1345 -1.4569
 7563TIP3   OH244103   2.940   3.389   4.738 -0.2586 -0.1502 -0.3280
 7563TIP3    H144104   2.861   3.443   4.740  0.2685  0.6597 -0.9005
 7563TIP3    H244105   3.012   3.451   4.750  0.5185 -0.3703 -3.1742
 7564TIP3   OH244106   4.458   6.149  15.901 -0.0087  0.1579 -0.3804
 7564TIP3    H144107   4.371   6.178  15.926  1.1240  1.0435  3.1675
 7564TIP3    H244108   4.444   6.066  15.854 -2.6923 -0.3910  1.1977
 7565TIP3   OH244109   1.045   5.345  11.186  0.4020 -0.1453 -0.9304
 7565TIP3    H144110   0.958   5.306  11.175  0.5333 -0.9276  0.4885
 7565TIP3    H244111   1.029   5.425  11.236  0.5944 -1.1375  0.8305
 7566TIP3   OH244112   2.131   6.135  11.486  0.0449 -0.4246  0.4968
 7566TIP3    H144113   2.057   6.163  11.540  0.4358  1.6942  0.0333
 7566TIP3    H244114   2.094   6.126  11.398 -0.5091 -3.5056  0.9279
 7567TIP3   OH244115   2.594   3.293   2.881 -0.8016  0.1521 -0.3083
 7567TIP3    H144116   2.666   3.261   2.934 -0.2250  1.6566 -0.1410
 7567TIP3    H244117   2.527   3.224   2.887  0.2377 -0.8309  0.2928
 7568TIP3   OH244118   3.820   0.103  14.127  0.5801  0.1098  0.4791
 7568TIP3    H144119   3.796   0.100  14.219 -1.3237  0.1572  0.0161
 7568TIP3    H244120   3.797   0.192  14.099 -1.0209 -0.5788 -0.5537
 7569TIP3   OH244121   5.559   1.086   3.380 -0.6556  0.3665 -0.2563
 7569TIP3    H144122   5.575   1.023   3.450 -0.9554  0.4991 -0.0703
 7569TIP3    H244123   5.641   1.085   3.329 -1.1187 -1.1642 -1.0535
 7570TIP3   OH244124   4.970   1.937  17.052  0.0035  0.1124 -0.3469
 7570TIP3    H144125   4.923   1.909  17.131  1.0299 -0.8976 -0.0630
 7570TIP3    H244126   5.005   1.856  17.015 -0.2213  0.6069 -1.6986
 7571TIP3   OH244127   5.545   6.088   5.930  0.0246  0.4658 -0.2144
 7571TIP3    H144128   5.560   6.014   5.988 -0.7105  0.5459  0.0873
 7571TIP3    H244129   5.556   6.165   5.985  0.5237  0.5828 -0.4668
 7572TIP3   OH244130   5.130   2.940  17.046 -0.2521  0.5018 -0.4063
 7572TIP3    H144131   5.094   2.999  17.112 -0.3745 -0.2428  0.1948
 7572TIP3    H244132   5.140   2.995  16.968  0.4346  1.5364  0.3867
 7573TIP3   OH244133   5.146   1.720   1.147  0.5070 -0.0337 -0.0357
 7573TIP3    H144134   5.128   1.730   1.240  1.5764 -0.8365  0.2805
 7573TIP3    H244135   5.148   1.809   1.112 -2.0403  0.1977  0.2579
 7574TIP3   OH244136   3.457   6.570  15.203 -0.0075  0.1550 -0.6729
 7574TIP3    H144137   3.462   6.586  15.297  0.0835 -0.3546 -0.5908
 7574TIP3    H244138   3.521   6.631  15.165 -0.6949  1.0042 -0.4856
 7575TIP3   OH244139   1.418   1.652   3.993 -0.3326 -0.0393  0.0744
 7575TIP3    H144140   1.481   1.581   3.985 -0.7586 -0.3957 -0.1688
 7575TIP3    H244141   1.352   1.633   3.927 -0.0657  0.9929 -0.5151
 7576TIP3   OH244142   3.841   0.856  13.219  0.1131  0.1358 -0.8216
 7576TIP3    H144143   3.930   0.890  13.226  0.2872  0.6079 -3.9484
 7576TIP3    H244144   3.852   0.771  13.176 -0.9681  0.1757 -1.1799
 7577TIP3   OH244145   5.272   1.535   5.365 -0.5112  0.0515 -0.9063
 7577TIP3    H144146   5.241   1.622   5.340 -1.6408  0.3924  1.3956
 7577TIP3    H244147   5.198   1.477   5.346 -1.3140  0.2862  1.1965
 7578TIP3   OH244148   2.057   2.026   5.757 -0.4068 -0.1858 -0.3943
 7578TIP3    H144149   2.067   2.101   5.698  0.8948 -0.6351 -0.7926
 7578TIP3    H244150   2.020   2.064   5.837 -0.7670  0.6990 -0.9628
 7579TIP3   OH244151   5.676   2.850  13.575 -0.1776  0.0423  0.4614
 7579TIP3    H144152   5.708   2.798  13.649 -0.9954 -0.4186  0.5001
 7579TIP3    H244153   5.650   2.933  13.614  1.6344  0.7226  0.3212
 7580TIP3   OH244154   5.300   4.344   2.945 -0.1013  0.3066  0.2740
 7580TIP3    H144155   5.234   4.396   2.900  2.6761  2.0804 -2.1388
 7580TIP3    H244156   5.303   4.381   3.034 -2.4903 -0.0705  0.5574
 7581TIP3   OH244157   3.472   2.956  13.544 -0.6961  0.1320  0.2225
 7581TIP3    H144158   3.424   2.958  13.627  0.7136 -1.6014  1.1332
 7581TIP3    H244159   3.560   2.987  13.566 -0.3536 -0.1806 -0.6597
 7582TIP3   OH244160   2.147   0.765  11.811  0.1141  0.4357 -0.1107
 7582TIP3    H144161   2.229   0.726  11.841  0.7250 -0.4306 -2.6300
 7582TIP3    H244162   2.145   0.851  11.853  1.4539 -0.1755  1.3264
 7583TIP3   OH244163   2.505   2.018  16.924 -0.2616 -0.1316  0.4118
 7583TIP3    H144164   2.584   2.049  16.879  0.7453 -0.3917  1.9313
 7583TIP3    H244165   2.496   1.927  16.896 -0.4497  0.1160 -0.3377
 7584TIP3   OH244166   4.177   0.048  15.358 -0.2696 -0.4367  0.6112
 7584TIP3    H144167   4.165   0.012  15.270 -0.6643  0.2791  0.3617
 7584TIP3    H244168   4.208  -0.026  15.410 -1.1175 -1.1577  0.1271
 7585TIP3   OH244169   3.364   2.736  11.173  0.0105 -0.1242 -0.4244
 7585TIP3    H144170   3.451   2.743  11.134  0.3437 -0.3231  0.2718
 7585TIP3    H244171   3.304   2.737  11.098  0.6289 -0.3261 -0.9305
 7586TIP3   OH244172   0.759   1.448  16.624  0.2354  0.2429  0.3737
 7586TIP3    H144173   0.806   1.522  16.585 -1.3590  0.8644 -0.4527
 7586TIP3    H244174   0.739   1.476  16.713  0.5015  0.4093  0.3797
 7587TIP3   OH244175   2.446   5.926   6.678  0.0304  0.0648  0.5948
 7587TIP3    H144176   2.486   5.873   6.609 -0.3656 -1.4037  1.4704
 7587TIP3    H244177   2.356   5.938   6.650 -0.3743 -1.2851  1.2512
 7588TIP3   OH244178   1.258   6.204   5.328  0.5072 -0.4018  0.8324
 7588TIP3    H144179   1.247   6.299   5.325 -1.5879 -0.6112 -0.0034
 7588TIP3    H244180   1.233   6.180   5.417 -0.4935 -0.2975  0.5897
 7589TIP3   OH244181   2.878   3.994  16.712 -0.3206  0.1086 -0.0346
 7589TIP3    H144182   2.789   3.990  16.747 -1.3107 -1.6544 -2.4781
 7589TIP3    H244183   2.871   4.046  16.633  0.6870 -0.5443 -0.5701
 7590TIP3   OH244184   3.323   4.894   5.261 -0.1794 -0.6266 -0.2789
 7590TIP3    H144185   3.360   4.969   5.307 -2.0834 -1.8476  3.7168
 7590TIP3    H244186   3.287   4.931   5.180 -2.3998  3.2417  2.1587
 7591TIP3   OH244187   6.256   2.848  16.267  0.2245  0.3865  0.2533
 7591TIP3    H144188   6.290   2.825  16.180  0.7240  1.2549  0.2000
 7591TIP3    H244189   6.297   2.933  16.286 -2.2991  1.7712 -0.0285
 7592TIP3   OH244190   1.703   1.028  16.939 -0.4858 -0.2097  0.2911
 7592TIP3    H144191   1.680   0.945  16.981 -0.4786 -0.9348 -1.1079
 7592TIP3    H244192   1.713   1.089  17.012  1.1956 -1.8147  1.4879
 7593TIP3   OH244193   2.634   1.775   0.875 -0.0328  0.1049 -0.3998
 7593TIP3    H144194   2.570   1.799   0.942 -0.4565 -0.3484 -0.6376
 7593TIP3    H244195   2.714   1.819   0.902 -0.3091  0.2637  0.1801
 7594TIP3   OH244196   0.082   6.750   1.679  0.1245 -0.0640  0.2257
 7594TIP3    H144197   0.013   6.686   1.664  0.4387 -0.4755  0.5148
 7594TIP3    H244198   0.156   6.699   1.711  0.2383  0.4968  0.8849
 7595TIP3   OH244199   5.443   1.525   4.879 -0.1404 -0.0874  0.1947
 7595TIP3    H144200   5.456   1.437   4.913 -0.8041  0.0673  0.8955
 7595TIP3    H244201   5.474   1.583   4.949  0.1517  0.2372 -0.1967
 7596TIP3   OH244202   0.562   2.406  13.305 -0.6869  0.1062  0.1650
 7596TIP3    H144203   0.651   2.387  13.277 -1.3806 -0.0878 -2.1719
 7596TIP3    H244204   0.568   2.488  13.354  0.6246  0.8229 -1.1251
 7597TIP3   OH244205   0.150   2.792  12.414 -0.0396 -0.6928  0.1282
 7597TIP3    H144206   0.209   2.729  12.374  0.6316 -0.0957  0.1566
 7597TIP3    H244207   0.062   2.758  12.396  0.3120 -1.7946  0.4279
 7598TIP3   OH244208   1.405   2.949   3.980 -0.1865  0.3299 -0.1390
 7598TIP3    H144209   1.498   2.950   3.998 -0.4800  1.2747  1.5080
 7598TIP3    H244210   1.366   3.003   4.048 -1.8404  0.8698 -1.4233
 7599TIP3   OH244211   1.983   4.249  15.015 -0.2551  0.0275 -0.1543
 7599TIP3    H144212   1.984   4.343  14.996  0.1322  0.1304  0.3559
 7599TIP3    H244213   1.891   4.231  15.035 -0.6704 -0.0850 -2.0374
 7600TIP3   OH244214   1.487   2.457  11.757 -0.2534 -0.0097  0.3239
 7600TIP3    H144215   1.462   2.535  11.708  1.7556  1.1521  1.0284
 7600TIP3    H244216   1.405   2.423  11.793 -1.7808 -0.6294 -3.3071
 7601TIP3   OH244217   5.976   1.281  10.651 -0.3673 -0.6738 -0.4192
 7601TIP3    H144218   6.031   1.206  10.627  0.7188 -0.6755  1.7525
 7601TIP3    H244219   5.915   1.246  10.716 -0.4041  0.1372  0.0003
 7602TIP3   OH244220   1.940   2.850   0.621  0.1297  0.4544 -0.2418
 7602TIP3    H144221   2.021   2.899   0.610  0.3475 -0.1664 -1.6158
 7602TIP3    H244222   1.961   2.783   0.685  0.0357  1.6563  1.0979
 7603TIP3   OH244223   3.570   5.554   5.810  0.0390  0.5578 -0.0528
 7603TIP3    H144224   3.581   5.641   5.771  0.7385  0.1515 -0.7756
 7603TIP3    H244225   3.553   5.573   5.903 -0.7805  1.4936 -0.3716
 7604TIP3   OH244226   0.450   6.675  16.585 -0.1728 -0.0241 -0.4595
 7604TIP3    H144227   0.451   6.589  16.626  1.2762  0.2954  0.2240
 7604TIP3    H244228   0.525   6.674  16.525  0.7480  1.2449  0.6217
 7605TIP3   OH244229   1.323   0.693   4.647 -0.6713  0.0742 -0.3214
 7605TIP3    H144230   1.321   0.598   4.653 -1.2908  0.1726  1.5741
 7605TIP3    H244231   1.289   0.724   4.731  0.0641  1.9741 -0.6551
 7606TIP3   OH244232   0.068   2.305  16.527  0.3021  0.0484 -0.6684
 7606TIP3    H144233   0.008   2.358  16.581 -1.3302 -1.5689 -0.8008
 7606TIP3    H244234   0.141   2.285  16.586  1.1432  2.6247 -0.7091
 7607TIP3   OH244235   2.198   0.853   1.138 -0.2967 -0.6965 -0.4549
 7607TIP3    H144236   2.128   0.789   1.132 -1.5851  0.4961  0.8906
 7607TIP3    H244237   2.240   0.835   1.222 -0.6590  0.1683 -0.0691
 7608TIP3   OH244238   4.519   5.513   2.503 -0.1103 -0.1845  0.3504
 7608TIP3    H144239   4.520   5.607   2.519 -0.7230 -0.5139  2.7819
 7608TIP3    H244240   4.610   5.490   2.483  0.3463  0.6887  1.3673
 7609TIP3   OH244241   6.658   4.428  12.819  0.1371  0.3478  0.1999
 7609TIP3    H144242   6.577   4.461  12.858 -0.1067 -0.5998  0.5074
 7609TIP3    H244243   6.628   4.377  12.744  0.5438  1.2198 -0.5872
 7610TIP3   OH244244   3.869   3.200   2.228  0.5077 -0.4250  0.2338
 7610TIP3    H144245   3.829   3.165   2.148  0.7309 -1.1554  0.4363
 7610TIP3    H244246   3.824   3.283   2.243  0.5318 -0.2372 -0.7047
 7611TIP3   OH244247   5.463   6.082  12.092 -0.5009  0.2818  0.1880
 7611TIP3    H144248   5.540   6.039  12.053 -1.3884 -0.1526 -1.1543
 7611TIP3    H244249   5.455   6.164  12.043 -2.2589 -0.7471 -1.3862
 7612TIP3   OH244250   3.293   3.500   0.153 -0.0823 -0.3625  0.2926
 7612TIP3    H144251   3.365   3.491   0.216 -0.5206 -1.6414  0.6340
 7612TIP3    H244252   3.223   3.445   0.188 -1.4798  1.2986  0.2792
 7613TIP3   OH244253   4.806   5.773   4.978  0.0143 -0.0321 -0.1278
 7613TIP3    H144254   4.760   5.693   4.955 -1.0350  0.0641  1.5269
 7613TIP3    H244255   4.887   5.769   4.926 -1.5349 -0.4589 -2.6920
 7614TIP3   OH244256   5.296   6.523  16.436  0.2481 -0.1447  0.2346
 7614TIP3    H144257   5.257   6.599  16.479  0.4546  0.1489 -0.0942
 7614TIP3    H244258   5.233   6.452  16.451  0.1836  0.0224  0.7701
 7615TIP3   OH244259   1.878   1.039   4.228  0.1043 -0.1760  0.4867
 7615TIP3    H144260   1.961   1.045   4.275  0.5645 -0.0105 -0.3217
 7615TIP3    H244261   1.903   1.031   4.136 -0.7832  2.2875 -0.0379
 7616TIP3   OH244262   0.804   4.396   4.794  0.2307  0.3048 -0.2903
 7616TIP3    H144263   0.721   4.397   4.841  0.0060 -1.3405 -0.6143
 7616TIP3    H244264   0.787   4.443   4.713  0.0030  1.1461  0.2313
 7617TIP3   OH244265   1.025   5.674   2.421 -0.2881 -0.2982  0.4331
 7617TIP3    H144266   1.012   5.589   2.465 -1.5119  0.3519  1.3893
 7617TIP3    H244267   1.099   5.713   2.467 -2.0471  0.7204  2.5911
 7618TIP3   OH244268   3.510   0.384   6.064 -0.4052  0.4968 -0.6394
 7618TIP3    H144269   3.564   0.462   6.049 -0.1546  0.8631  1.7666
 7618TIP3    H244270   3.467   0.401   6.147 -0.0620 -2.1007  0.1389
 7619TIP3   OH244271   2.883   2.001  13.658  0.7653 -0.1056 -0.1211
 7619TIP3    H144272   2.812   1.945  13.627  0.6993 -0.3443  0.4631
 7619TIP3    H244273   2.954   1.941  13.681  0.6743  0.0403  0.5599
 7620TIP3   OH244274   2.056   2.155   3.051  0.1165 -0.0558 -0.0078
 7620TIP3    H144275   2.058   2.119   2.963  0.0442 -0.9858  0.3684
 7620TIP3    H244276   1.968   2.136   3.084 -1.0381  3.0882 -0.8616
 7621TIP3   OH244277   2.450   2.080  13.292  0.0066  0.7063 -0.2593
 7621TIP3    H144278   2.520   2.020  13.319 -0.8031 -0.5319 -0.8263
 7621TIP3    H244279   2.474   2.106  13.203 -0.0460  0.6146 -0.2991
 7622TIP3   OH244280   0.272   6.173  15.088 -0.3568 -0.6606 -0.4574
 7622TIP3    H144281   0.195   6.192  15.035 -1.7166  1.2556  2.0125
 7622TIP3    H244282   0.252   6.088  15.129 -1.3773 -0.0230  0.4308
 7623TIP3   OH244283   5.386   3.182  16.825 -0.6593  0.5352 -0.3825
 7623TIP3    H144284   5.397   3.245  16.753 -0.5280  1.0668  0.0950
 7623TIP3    H244285   5.387   3.236  16.904  0.9037 -0.1997  0.1484
 7624TIP3   OH244286   6.461   2.577   2.345  0.2467 -0.3745  1.0518
 7624TIP3    H144287   6.470   2.563   2.251 -1.5979 -1.0318  0.9392
 7624TIP3    H244288   6.542   2.621   2.370  1.9200 -2.3946 -0.3879
 7625TIP3   OH244289   6.247   6.402  15.556  0.4193 -0.2802  0.0659
 7625TIP3    H144290   6.162   6.437  15.528  0.8338  0.4392 -0.3249
 7625TIP3    H244291   6.225   6.328  15.613 -0.4625 -0.3021 -0.2888
 7626TIP3   OH244292   5.900   4.585   1.902 -0.1984  0.4197 -0.3924
 7626TIP3    H144293   5.815   4.545   1.885 -0.7102  0.2201  2.2749
 7626TIP3    H244294   5.948   4.519   1.952  0.9444  1.1349 -0.5116
 7627TIP3   OH244295   2.096   3.644  10.890  0.6882 -0.4179 -0.0744
 7627TIP3    H144296   2.028   3.689  10.842  0.9257 -0.5534 -0.5403
 7627TIP3    H244297   2.064   3.555  10.900  0.8486 -0.5145 -0.4035
 7628TIP3   OH244298   2.046   1.221   4.996  0.3215  0.0029 -0.1299
 7628TIP3    H144299   2.007   1.239   5.082 -1.0522 -0.6133 -0.5864
 7628TIP3    H244300   2.135   1.193   5.015 -0.0486 -0.3757  1.1288
 7629TIP3   OH244301   2.237   2.516   1.273 -0.1652  0.1992 -0.1222
 7629TIP3    H144302   2.168   2.484   1.332  0.1473  0.1115  0.1978
 7629TIP3    H244303   2.194   2.585   1.222 -0.5920 -0.1049 -0.1793
 7630TIP3   OH244304   0.705   2.869   0.956  0.6612  0.5866 -0.2562
 7630TIP3    H144305   0.708   2.809   0.882 -1.1241 -0.8056  0.7140
 7630TIP3    H244306   0.765   2.940   0.932  3.7541 -2.0545 -0.9893
 7631TIP3   OH244307   3.508   1.353  12.141  0.0782  0.0602 -0.0708
 7631TIP3    H144308   3.562   1.397  12.206  0.7477  1.9780 -1.7993
 7631TIP3    H244309   3.525   1.401  12.060 -1.3465 -1.6904 -1.4929
 7632TIP3   OH244310   6.305   0.037  16.901  0.4696  0.0208  0.0081
 7632TIP3    H144311   6.388  -0.006  16.921 -0.0400 -0.4430  1.1981
 7632TIP3    H244312   6.247  -0.035  16.876  0.0749  0.1925  0.4167
 7633TIP3   OH244313   0.872   0.721  12.464 -0.3163  0.5460 -0.0538
 7633TIP3    H144314   0.837   0.705  12.552 -1.4250  0.2749 -0.5241
 7633TIP3    H244315   0.892   0.815  12.463 -1.6275  0.8419  0.0384
 7634TIP3   OH244316   6.227   5.653  13.999 -0.2908 -0.0577 -0.0111
 7634TIP3    H144317   6.168   5.696  14.060 -0.9659  0.5464 -1.0633
 7634TIP3    H244318   6.172   5.632  13.923  0.8094  0.3907 -0.9525
 7635TIP3   OH244319   4.826   2.182  15.214  0.2378 -0.7982 -0.4070
 7635TIP3    H144320   4.821   2.091  15.243 -0.1046 -0.3298  1.1205
 7635TIP3    H244321   4.881   2.225  15.281 -1.2223  0.4991  0.0192
 7636TIP3   OH244322   3.633   1.230   1.500  0.0695 -0.0833  0.1878
 7636TIP3    H144323   3.673   1.311   1.467 -0.4867 -0.1652 -0.7049
 7636TIP3    H244324   3.707   1.170   1.511  0.5631  0.6788  1.3300
 7637TIP3   OH244325   3.376   0.525   3.939 -0.0187  0.3084  0.3995
 7637TIP3    H144326   3.380   0.460   4.009 -1.0367 -0.2484 -0.0162
 7637TIP3    H244327   3.377   0.472   3.859  1.2053  0.9375 -0.0067
 7638TIP3   OH244328   1.848   4.519   3.926 -0.2742  0.0579  0.8815
 7638TIP3    H144329   1.905   4.584   3.967  0.8485 -1.1666  1.3145
 7638TIP3    H244330   1.785   4.496   3.994 -2.2920  2.4533 -0.0238
 7639TIP3   OH244331   6.139   3.737   6.232  0.6628 -0.2821  0.5746
 7639TIP3    H144332   6.111   3.739   6.323  1.4796  0.8625  0.8261
 7639TIP3    H244333   6.234   3.751   6.236  0.9405 -1.7088 -0.3731
 7640TIP3   OH244334   0.736   5.638   0.331  0.0847  0.0623  0.6396
 7640TIP3    H144335   0.691   5.647   0.415  0.5546 -1.4900  1.0949
 7640TIP3    H244336   0.794   5.562   0.343  0.2421 -0.1199 -1.0526
 7641TIP3   OH244337   5.255   1.464   0.242  0.5131 -0.3874 -0.2905
 7641TIP3    H144338   5.200   1.398   0.284  0.3507 -0.0650  0.0076
 7641TIP3    H244339   5.327   1.414   0.203  0.0981 -0.7926 -0.5457
 7642TIP3   OH244340   2.473   5.168  14.997  0.4973 -0.1117  0.0537
 7642TIP3    H144341   2.406   5.188  14.931  0.4768 -1.7746 -0.4816
 7642TIP3    H244342   2.424   5.144  15.075  0.4206 -1.6278 -0.4291
 7643TIP3   OH244343   2.127   6.390  14.248 -0.1745  0.4338 -0.2652
 7643TIP3    H144344   2.095   6.477  14.225 -1.7069  0.0102  0.1233
 7643TIP3    H244345   2.077   6.366  14.326  0.7822 -0.4959  0.0968
 7644TIP3   OH244346   3.266   2.997   2.071 -0.2450 -0.0276 -0.2502
 7644TIP3    H144347   3.214   2.944   2.132 -1.0812 -0.1274 -1.0300
 7644TIP3    H244348   3.301   3.068   2.125 -2.0332  0.6337  0.1249
 7645TIP3   OH244349   2.345   3.500  15.356  0.1074  0.5051 -0.1427
 7645TIP3    H144350   2.412   3.439  15.388 -1.6302 -2.4989 -1.8445
 7645TIP3    H244351   2.268   3.482  15.410 -1.2838 -0.9542 -2.4542
 7646TIP3   OH244352   4.548   6.428   4.237 -0.6769  0.5366 -0.0822
 7646TIP3    H144353   4.483   6.491   4.207  0.7515  2.0787 -0.0999
 7646TIP3    H244354   4.610   6.421   4.164  1.4632  2.4061  1.4232
 7647TIP3   OH244355   1.449   3.699   2.436 -0.4282 -0.0582  0.0505
 7647TIP3    H144356   1.502   3.777   2.451 -2.0806  1.0986  0.2557
 7647TIP3    H244357   1.467   3.642   2.511  0.7843  0.1176 -0.0914
 7648TIP3   OH244358   6.073   4.256   4.915 -0.1692 -0.3428  0.1337
 7648TIP3    H144359   6.125   4.337   4.913 -0.1388 -0.3766 -1.1074
 7648TIP3    H244360   6.131   4.192   4.957  1.0254 -0.4991 -1.6329
 7649TIP3   OH244361   3.242   3.197   3.159  0.4209  0.0669  0.4281
 7649TIP3    H144362   3.221   3.105   3.177 -1.2175  0.0605 -1.2902
 7649TIP3    H244363   3.294   3.194   3.079  0.4702  0.6372  0.4368
 7650TIP3   OH244364   3.446   3.723  16.351  0.9263 -0.0264 -0.2088
 7650TIP3    H144365   3.379   3.736  16.284 -0.7819 -2.0619  0.9822
 7650TIP3    H244366   3.402   3.744  16.433  2.3966  0.5506  0.4672
 7651TIP3   OH244367   0.968   1.829   2.681  0.0170  0.4461  0.3420
 7651TIP3    H144368   0.959   1.844   2.586 -0.0678 -0.7911  0.1325
 7651TIP3    H244369   0.967   1.917   2.719 -0.0485  0.9666 -0.7949
 7652TIP3   OH244370   6.553   3.774   5.661  0.8450  0.1170  0.3812
 7652TIP3    H144371   6.501   3.746   5.585  1.1141 -0.6260  0.4592
 7652TIP3    H244372   6.494   3.830   5.711  0.5627  0.3710 -0.2191
 7653TIP3   OH244373   4.371   5.785  14.316 -0.2125  0.6091  0.2474
 7653TIP3    H144374   4.308   5.778  14.244 -1.4110  0.6743  1.2411
 7653TIP3    H244375   4.457   5.783  14.274 -0.8552 -0.4073 -1.0888
 7654TIP3   OH244376   4.940   0.036   2.222 -0.0869  0.4348 -0.0830
 7654TIP3    H144377   4.982   0.121   2.226 -2.0501  1.5475 -1.4822
 7654TIP3    H244378   4.986  -0.017   2.288  1.9946  2.1593 -0.0640
 7655TIP3   OH244379   1.200   5.186  14.207  0.0355 -0.4494 -0.0045
 7655TIP3    H144380   1.205   5.281  14.195  0.9464 -0.5159 -0.2375
 7655TIP3    H244381   1.122   5.172  14.261 -0.8361  0.3278 -1.0271
 7656TIP3   OH244382   5.359   4.979   3.315 -0.5769  0.4078  0.1173
 7656TIP3    H144383   5.419   4.939   3.253  2.6556  1.6998  2.1621
 7656TIP3    H244384   5.350   5.070   3.285 -0.4861  0.5474  0.5000
 7657TIP3   OH244385   0.769   1.774  13.647  0.0572 -0.2990 -0.5987
 7657TIP3    H144386   0.728   1.825  13.717  1.1692  0.1586 -0.2548
 7657TIP3    H244387   0.783   1.688  13.685 -0.4144 -0.4003 -0.6561
 7658TIP3   OH244388   0.640   6.460   4.527  0.1107 -0.3451  0.8716
 7658TIP3    H144389   0.590   6.505   4.459 -0.3709 -0.9986  0.7817
 7658TIP3    H244390   0.658   6.374   4.490  0.2007 -0.5589  1.4082
 7659TIP3   OH244391   2.939   5.172   5.203  0.3238 -0.6345  0.4573
 7659TIP3    H144392   3.011   5.230   5.182  0.9892 -0.7360  2.2435
 7659TIP3    H244393   2.862   5.212   5.163  1.0783  0.4520  0.0717
 7660TIP3   OH244394   5.061   0.373  14.181  0.2923 -0.5809  0.3169
 7660TIP3    H144395   5.114   0.300  14.150  2.3134  1.2488 -0.8362
 7660TIP3    H244396   5.069   0.440  14.113 -1.7873  0.6065  1.1293
 7661TIP3   OH244397   6.092   2.110  14.276 -0.3957  0.3811 -0.1720
 7661TIP3    H144398   6.059   2.191  14.315 -1.5218 -0.0334 -0.2284
 7661TIP3    H244399   6.143   2.138  14.200 -3.3277  0.9703 -2.0704
 7662TIP3   OH244400   2.601   5.778  12.462 -0.3028 -0.3083 -0.0378
 7662TIP3    H144401   2.523   5.783  12.407 -0.6454 -0.0455  0.4669
 7662TIP3    H244402   2.634   5.868  12.467 -0.3770 -0.2997  0.3326
 7663TIP3   OH244403   2.081   3.753   4.907  1.1509  0.0320  0.2373
 7663TIP3    H144404   2.137   3.705   4.846  1.7251  0.5953  0.3101
 7663TIP3    H244405   1.998   3.705   4.906  1.2046 -0.0706 -0.8604
 7664TIP3   OH244406   3.241   3.613  15.716 -0.3590 -0.6100  0.2702
 7664TIP3    H144407   3.321   3.617  15.768  0.2747 -3.7128 -0.2941
 7664TIP3    H244408   3.199   3.531  15.742 -2.0775 -0.2828 -1.2494
 7665TIP3   OH244409   0.546   2.487   0.152  0.1819  0.5548 -0.6759
 7665TIP3    H144410   0.510   2.401   0.175  3.3009 -0.4220  1.2191
 7665TIP3    H244411   0.480   2.549   0.182 -0.8604 -1.1264  0.7391
 7666TIP3   OH244412   3.950   0.878  11.348  0.1551  0.1170  0.0835
 7666TIP3    H144413   4.019   0.943  11.359 -1.3990  1.9587 -0.5083
 7666TIP3    H244414   3.929   0.880  11.254 -0.2479 -0.9027  0.1363
 7667TIP3   OH244415   0.912   4.726   0.057  0.2959  0.0184  0.1951
 7667TIP3    H144416   0.871   4.753   0.140 -1.6871  1.3725 -1.1185
 7667TIP3    H244417   0.839   4.722  -0.005  1.8824  0.4135 -1.8171
 7668TIP3   OH244418   2.927   0.272  12.252  0.2790  0.6441  0.3638
 7668TIP3    H144419   2.950   0.357  12.291  0.1997 -0.2779  2.5803
 7668TIP3    H244420   3.011   0.235  12.224  0.2683  1.5961 -1.0583
 7669TIP3   OH244421   4.201   5.620  14.881  0.2316 -0.2163  0.2224
 7669TIP3    H144422   4.214   5.710  14.909  0.4193 -0.1298 -0.1275
 7669TIP3    H244423   4.133   5.586  14.938  1.7942 -0.5931  1.9437
 7670TIP3   OH244424   2.508   3.762  16.308  0.2036 -0.4592  0.2391
 7670TIP3    H144425   2.538   3.842  16.264 -0.5711 -0.5888 -0.5629
 7670TIP3    H244426   2.588   3.712  16.325  1.0819  1.6586  3.2898
 7671TIP3   OH244427   2.244   0.260  13.108 -0.1426  0.1446  0.2864
 7671TIP3    H144428   2.257   0.212  13.026 -0.8551  0.5179 -0.0572
 7671TIP3    H244429   2.155   0.238  13.135 -1.2876  2.7397 -0.9397
 7672TIP3   OH244430   3.204   0.683  12.499 -0.2853 -0.2503 -0.4122
 7672TIP3    H144431   3.264   0.659  12.569 -0.8239 -1.0984 -0.2291
 7672TIP3    H244432   3.185   0.776  12.514 -0.7625 -0.5307  0.8514
 7673TIP3   OH244433   1.485   6.675  14.408 -0.2672  0.0757 -0.2575
 7673TIP3    H144434   1.477   6.707  14.498 -1.7705 -1.0310  0.0215
 7673TIP3    H244435   1.529   6.747  14.362 -0.0430  0.9241  1.2037
 7674TIP3   OH244436   4.315   3.343  16.514  0.3456 -0.3423  0.3535
 7674TIP3    H144437   4.272   3.379  16.592 -0.2552 -2.2982  0.9779
 7674TIP3    H244438   4.388   3.291  16.549 -0.2873 -1.7222 -0.3309
 7675TIP3   OH244439   3.621   1.266   4.812 -0.5964  0.0692 -0.0286
 7675TIP3    H144440   3.619   1.226   4.725 -1.3108 -0.4244  0.2041
 7675TIP3    H244441   3.531   1.258   4.845  0.3306 -3.1839  2.2550
 7676TIP3   OH244442   4.000   4.149   4.859 -0.4606 -0.6329  0.7762
 7676TIP3    H144443   3.919   4.198   4.874 -1.1938 -2.1053  1.9408
 7676TIP3    H244444   3.979   4.088   4.788  0.8908  1.5927 -1.7111
 7677TIP3   OH244445   1.744   2.118  13.171  0.2867 -0.1037 -0.4501
 7677TIP3    H144446   1.744   2.029  13.136 -0.4909 -0.1737 -0.2912
 7677TIP3    H244447   1.652   2.144  13.171  0.4986  0.6697 -0.4139
 7678TIP3   OH244448   3.500   0.273   3.493  0.3766  0.0195 -0.6352
 7678TIP3    H144449   3.490   0.213   3.567 -0.0739 -1.3083 -1.7456
 7678TIP3    H244450   3.595   0.285   3.484  0.4673 -0.4988 -0.3901
 7679TIP3   OH244451   2.381   3.665  13.867  0.4448  0.2273 -0.1801
 7679TIP3    H144452   2.353   3.747  13.906  0.6901 -0.0382  0.5849
 7679TIP3    H244453   2.465   3.685  13.826  0.1746  0.5163 -0.5922
 7680TIP3   OH244454   1.424   1.252  16.493 -0.5594  0.1182 -0.5591
 7680TIP3    H144455   1.469   1.331  16.520 -1.6277  0.3770  0.5902
 7680TIP3    H244456   1.452   1.185  16.556 -1.7996  0.3070  0.2352
 7681TIP3   OH244457   4.799   2.045   2.948  0.4282 -0.1586  0.0147
 7681TIP3    H144458   4.712   2.008   2.933  0.4676 -0.7913  1.1602
 7681TIP3    H244459   4.836   1.991   3.018  2.0851 -0.4314 -1.0217
 7682TIP3   OH244460   0.017   5.336   6.412  0.3174  0.1557  0.2917
 7682TIP3    H144461   0.019   5.303   6.502  2.1278 -0.3283  0.1091
 7682TIP3    H244462   0.106   5.368   6.397  0.4199 -1.0077 -1.7897
 7683TIP3   OH244463   6.683   5.111   3.719 -0.4508  0.4101 -0.2110
 7683TIP3    H144464   6.614   5.056   3.755  0.6468 -1.5603 -0.9396
 7683TIP3    H244465   6.764   5.065   3.741  0.5056  1.5894 -1.1216
 7684TIP3   OH244466   4.694   4.498   7.195  0.2395 -0.0339 -0.2646
 7684TIP3    H144467   4.749   4.423   7.173 -0.5671 -0.8834  0.5708
 7684TIP3    H244468   4.750   4.574   7.176  0.8265 -0.7917 -1.8004
 7685TIP3   OH244469   5.909   3.504  15.577  0.1313  0.3489  0.2721
 7685TIP3    H144470   5.896   3.506  15.482  1.6267 -1.0490 -0.0086
 7685TIP3    H244471   5.973   3.574  15.593 -0.0053  0.4827  0.2401
 7686TIP3   OH244472   3.174   2.928   5.947 -0.1208 -0.0725 -0.3956
 7686TIP3    H144473   3.195   3.021   5.955 -0.8900  0.3254 -2.3779
 7686TIP3    H244474   3.228   2.885   6.013 -1.5193  1.9787  2.2258
 7687TIP3   OH244475   4.598   3.852   0.444 -0.3188 -0.3186  0.0699
 7687TIP3    H144476   4.573   3.944   0.444 -1.1690 -0.5444  0.0982
 7687TIP3    H244477   4.520   3.805   0.415  0.1358 -1.0252 -0.0529
 7688TIP3   OH244478   5.958   3.809   2.128  0.2853  0.3651  0.2502
 7688TIP3    H144479   5.946   3.717   2.150  0.2554  0.3595  0.2112
 7688TIP3    H244480   6.048   3.829   2.154  0.0938  0.4905  0.8204
 7689TIP3   OH244481   3.077   3.330   4.513  0.4916 -0.1720 -1.1716
 7689TIP3    H144482   2.997   3.341   4.565  1.3185 -1.5346  0.4916
 7689TIP3    H244483   3.059   3.255   4.456  1.3472 -2.1473  0.9829
 7690TIP3   OH244484   3.404   0.263   5.327  0.3006  0.6818 -0.1234
 7690TIP3    H144485   3.356   0.245   5.408 -0.6610 -1.0516 -1.0259
 7690TIP3    H244486   3.343   0.242   5.257  1.8890 -0.2337 -1.3074
 7691TIP3   OH244487   4.392   0.425  13.645 -0.1832  0.0426  0.3205
 7691TIP3    H144488   4.352   0.363  13.706  0.2382  0.1858  0.7477
 7691TIP3    H244489   4.319   0.455  13.590 -0.5520 -0.1365  0.7093
 7692TIP3   OH244490   6.337   5.081  11.710  0.6634 -0.2188 -0.4963
 7692TIP3    H144491   6.298   5.123  11.787  1.9431 -0.7991  0.4916
 7692TIP3    H244492   6.268   5.087  11.643 -0.0874  1.2369  0.3480
 7693TIP3   OH244493   6.611   3.772   1.540 -0.3784  0.2620  0.0263
 7693TIP3    H144494   6.686   3.735   1.493  0.1702  1.7906 -0.3638
 7693TIP3    H244495   6.604   3.719   1.619  1.0440 -0.0004  0.0030
 7694TIP3   OH244496   2.158   2.065   5.452 -0.8373  0.5671 -0.2901
 7694TIP3    H144497   2.243   2.023   5.458 -0.0705  2.2277  1.4605
 7694TIP3    H244498   2.099   1.996   5.420  1.0485 -0.7170 -1.1364
 7695TIP3   OH244499   3.924   1.915  12.127  0.5396  0.3438  0.0793
 7695TIP3    H144500   3.933   1.949  12.217  0.9940  1.2920 -0.3092
 7695TIP3    H244501   3.897   1.824  12.139 -0.4175  0.7369  1.1652
 7696TIP3   OH244502   2.387   5.431   0.300 -0.2528 -0.8260  0.1869
 7696TIP3    H144503   2.463   5.464   0.348  0.9406  0.4281 -2.3649
 7696TIP3    H244504   2.336   5.509   0.280 -0.3734 -1.2166 -1.1040
 7697TIP3   OH244505   2.691   1.918   2.577  0.0670  0.1693 -0.0896
 7697TIP3    H144506   2.741   1.843   2.546  1.0562  1.3958 -1.6770
 7697TIP3    H244507   2.741   1.951   2.651 -0.3859 -0.7317  0.6285
 7698TIP3   OH244508   2.555   5.886  11.521  0.3696  0.2802  0.2180
 7698TIP3    H144509   2.635   5.937  11.503 -0.5902  0.7588 -3.3495
 7698TIP3    H244510   2.485   5.951  11.520 -0.5254 -0.6647 -1.1882
 7699TIP3   OH244511   4.699   3.324   2.622  0.1396  0.3314 -0.3205
 7699TIP3    H144512   4.671   3.296   2.709 -1.6843 -1.2559 -1.3535
 7699TIP3    H244513   4.786   3.361   2.636  0.2619 -0.6809  2.0343
 7700TIP3   OH244514   2.911   5.426   1.168 -0.5139 -0.0890  0.0232
 7700TIP3    H144515   2.844   5.482   1.129 -0.8722 -0.6484 -0.1689
 7700TIP3    H244516   2.869   5.387   1.244  0.2059  1.0594  1.0526
 7701TIP3   OH244517   1.351   3.901  13.932  0.3479  0.2880  0.0432
 7701TIP3    H144518   1.364   3.808  13.954 -0.4286  0.5435  1.6915
 7701TIP3    H244519   1.276   3.901  13.873  1.3117 -0.2474 -1.2398
 7702TIP3   OH244520   0.432   5.494  14.425 -0.2377 -0.1338 -0.0605
 7702TIP3    H144521   0.416   5.587  14.443  2.1116  1.2408 -3.8070
 7702TIP3    H244522   0.351   5.463  14.384 -0.8879  0.3611  0.8265
 7703TIP3   OH244523   4.893   3.027  12.962 -0.6447 -0.0663  0.0846
 7703TIP3    H144524   4.806   2.988  12.961 -0.6022 -0.1600  0.0121
 7703TIP3    H244525   4.897   3.080  12.883 -0.9226  0.5737  0.4964
 7704TIP3   OH244526   1.665   1.305   4.615  0.0345 -0.8957  0.0055
 7704TIP3    H144527   1.748   1.283   4.659 -0.2511 -1.4447  0.2776
 7704TIP3    H244528   1.653   1.234   4.552  0.3429 -0.2124 -0.8326
 7705TIP3   OH244529   2.259   3.444  11.581  0.0276 -0.6821  0.9968
 7705TIP3    H144530   2.268   3.349  11.587 -1.3936 -0.9323 -0.2607
 7705TIP3    H244531   2.217   3.459  11.496 -2.1260  0.8516  2.2192
 7706TIP3   OH244532   2.690   3.478  11.266 -0.9875 -0.0328  0.1756
 7706TIP3    H144533   2.715   3.394  11.227 -1.8189  0.6010 -1.8489
 7706TIP3    H244534   2.709   3.543  11.198  2.0442  1.8554  2.5742
 7707TIP3   OH244535   4.364   1.700  10.571  0.3907  0.0571 -0.2495
 7707TIP3    H144536   4.334   1.649  10.647  0.1985 -0.1335 -0.4499
 7707TIP3    H244537   4.291   1.759  10.551  0.0160 -0.6084 -0.9160
 7708TIP3   OH244538   2.566   3.870   1.690 -0.1226  0.4974  0.6345
 7708TIP3    H144539   2.488   3.906   1.732 -0.4689 -0.7548  1.1104
 7708TIP3    H244540   2.576   3.783   1.729  0.1528 -0.2961 -1.1385
 7709TIP3   OH244541   6.061   2.214  15.958 -0.0863 -0.9837  0.3341
 7709TIP3    H144542   5.976   2.186  15.990 -0.1750 -2.6297 -1.1723
 7709TIP3    H244543   6.044   2.252  15.872  0.6874 -1.4246 -0.0304
 7710TIP3   OH244544   1.164   2.930  13.017 -0.5321  0.6495 -0.0593
 7710TIP3    H144545   1.132   3.020  13.002 -1.2895  0.6865  1.5519
 7710TIP3    H244546   1.178   2.925  13.111  0.5192 -0.6228 -0.2575
 7711TIP3   OH244547   3.044   2.332  11.488  0.4550 -0.1295 -0.2037
 7711TIP3    H144548   3.068   2.243  11.463  1.0049 -0.1186  0.2427
 7711TIP3    H244549   3.069   2.337  11.581 -2.2576 -0.4478  0.6287
 7712TIP3   OH244550   1.306   0.898  14.079 -0.1778 -0.6955 -0.2505
 7712TIP3    H144551   1.363   0.973  14.096  0.0194 -0.8063 -0.4259
 7712TIP3    H244552   1.277   0.910  13.988  0.3815 -1.1845 -0.4975
 7713TIP3   OH244553   3.728   6.689   0.230 -0.5207 -0.1199 -0.3834
 7713TIP3    H144554   3.759   6.773   0.196  0.7137 -0.1578  0.5720
 7713TIP3    H244555   3.634   6.688   0.211 -0.1743  0.5144 -2.3919
 7714TIP3   OH244556   6.231   2.617   4.067 -0.0514  0.4772 -0.3390
 7714TIP3    H144557   6.220   2.567   4.148 -0.1126 -0.0032 -0.6377
 7714TIP3    H244558   6.258   2.704   4.096  1.4512 -0.1131  0.1354
 7715TIP3   OH244559   0.499   0.510  14.886 -0.2702  0.3867 -0.2116
 7715TIP3    H144560   0.420   0.560  14.907  0.1200  0.6599  0.6233
 7715TIP3    H244561   0.504   0.443  14.953 -0.0875  0.0188 -0.5864
 7716TIP3   OH244562   1.924   3.544  16.505  0.2037  0.4083 -0.7396
 7716TIP3    H144563   1.956   3.587  16.425 -2.4556  0.5805 -1.8157
 7716TIP3    H244564   1.828   3.551  16.500 -0.1774  3.3553  4.0630
 7717TIP3   OH244565   2.921   0.463   2.148 -0.0070 -0.6084  0.7308
 7717TIP3    H144566   2.926   0.401   2.220  2.2969  0.2935  1.4401
 7717TIP3    H244567   2.965   0.419   2.075  1.7147  0.1559  1.2623
 7718TIP3   OH244568   2.721   3.255   1.375  0.0037  0.1368  0.0277
 7718TIP3    H144569   2.792   3.266   1.312 -0.0749  0.8306  0.0591
 7718TIP3    H244570   2.688   3.343   1.391 -1.9537 -0.2966 -1.2286
 7719TIP3   OH244571   3.438   3.861  14.279  0.0861 -0.3433 -0.3489
 7719TIP3    H144572   3.469   3.815  14.357 -0.2176 -1.6906 -0.9943
 7719TIP3    H244573   3.398   3.941  14.312  1.4127 -0.0889  0.7402
 7720TIP3   OH244574   6.693   1.328  16.522  0.4065  0.6353  0.0545
 7720TIP3    H144575   6.777   1.295  16.551  0.1701  0.0223  0.0494
 7720TIP3    H244576   6.642   1.338  16.603  0.6413  1.4723  0.1092
 7721TIP3   OH244577   3.389   5.469  14.560 -0.1165  0.7324  0.5326
 7721TIP3    H144578   3.474   5.451  14.601 -0.6590  1.0160  1.8500
 7721TIP3    H244579   3.341   5.518  14.627 -1.6728 -0.2780  0.1868
 7722TIP3   OH244580   3.894   2.483   2.648 -0.4002  0.5159  0.0239
 7722TIP3    H144581   3.857   2.571   2.649 -1.2677  0.1724 -0.4178
 7722TIP3    H244582   3.818   2.425   2.638  0.3705 -0.1186 -3.4610
 7723TIP3   OH244583   1.977   1.523   3.319  0.5361  0.6494  0.9395
 7723TIP3    H144584   1.916   1.464   3.364 -0.0204  1.2999  1.0512
 7723TIP3    H244585   1.936   1.539   3.234  1.0409  0.3119  0.6249
 7724TIP3   OH244586   0.224   3.037   0.037 -0.5079 -0.3847 -0.0994
 7724TIP3    H144587   0.221   3.132   0.027 -0.8564 -0.2149  1.4015
 7724TIP3    H244588   0.178   3.003  -0.040  0.8781  0.5846 -1.4117
 7725TIP3   OH244589   1.629   3.778  12.489 -0.2934  0.0253 -0.5236
 7725TIP3    H144590   1.541   3.752  12.460 -0.5138 -1.0115  0.9797
 7725TIP3    H244591   1.654   3.712  12.554  1.6305  0.2745 -0.9448
 7726TIP3   OH244592   3.867   3.387  13.898 -0.3292 -0.0717 -0.2651
 7726TIP3    H144593   3.905   3.330  13.966  0.9206  0.2191 -0.6981
 7726TIP3    H244594   3.805   3.442  13.946  1.4275  0.9911  0.9247
 7727TIP3   OH244595   3.879   2.208  16.787 -0.1044  0.3144 -0.3690
 7727TIP3    H144596   3.856   2.165  16.705 -0.1289  0.5471 -0.4827
 7727TIP3    H244597   3.972   2.227  16.779  0.4605 -1.7549  0.5938
 7728TIP3   OH244598   6.495   3.774  15.639  0.2066 -0.2850  0.0508
 7728TIP3    H144599   6.407   3.759  15.605  0.1831  0.7287 -0.3691
 7728TIP3    H244600   6.508   3.868  15.630  0.8440 -0.2322  1.3076
 7729TIP3   OH244601   1.373   3.716  12.366  0.3552  0.3360  0.7678
 7729TIP3    H144602   1.414   3.722  12.280 -0.0413  1.5109  0.6430
 7729TIP3    H244603   1.287   3.677  12.349 -0.0998  1.4196  0.4764
 7730TIP3   OH244604   4.839   3.941   0.563  0.4074 -0.8460  0.4327
 7730TIP3    H144605   4.910   3.878   0.568  1.7095  0.2994 -2.0373
 7730TIP3    H244606   4.795   3.922   0.480  1.6562  2.1816 -1.0769
 7731TIP3   OH244607   2.957   5.508   3.701  0.2175  1.1627  0.4491
 7731TIP3    H144608   3.042   5.541   3.671  1.3500  0.0441  2.2120
 7731TIP3    H244609   2.906   5.496   3.621  2.0834  0.8985 -0.7673
 7732TIP3   OH244610   1.153   1.278  14.151  0.4737  0.4249  0.4842
 7732TIP3    H144611   1.132   1.218  14.223 -2.2157  0.3870 -0.2324
 7732TIP3    H244612   1.089   1.349  14.160  0.4352  0.6945 -1.5515
 7733TIP3   OH244613   5.113   0.418  16.174 -0.3346  0.5853 -0.1652
 7733TIP3    H144614   5.091   0.390  16.085  1.7389  0.1644 -0.5810
 7733TIP3    H244615   5.169   0.494  16.162  2.7170 -1.3940  0.5829
 7734TIP3   OH244616   3.793   6.594   2.394 -0.0886 -0.4806  0.6601
 7734TIP3    H144617   3.735   6.669   2.409  0.2407 -0.0838 -0.0016
 7734TIP3    H244618   3.791   6.580   2.300  1.8768  0.3732  0.4411
 7735TIP3   OH244619   6.134   6.502  14.102 -0.2537 -0.5914  0.0723
 7735TIP3    H144620   6.214   6.541  14.137  0.4911 -2.0697  0.1040
 7735TIP3    H244621   6.102   6.566  14.039  0.4646  0.4200  0.6971
 7736TIP3   OH244622   1.832   6.269  14.648  0.2990  0.1671  0.2063
 7736TIP3    H144623   1.821   6.190  14.594 -1.9763  0.7655 -0.3234
 7736TIP3    H244624   1.802   6.242  14.735  1.4516 -0.0736  0.5448
 7737TIP3   OH244625   2.449   0.732   0.118  0.2390  0.1956 -0.1497
 7737TIP3    H144626   2.524   0.747   0.177 -0.5474  2.0545  0.4373
 7737TIP3    H244627   2.469   0.784   0.041 -1.6646  3.0770  1.1462
 7738TIP3   OH244628   4.496   3.781   5.248 -0.4469  0.4621  0.3448
 7738TIP3    H144629   4.574   3.822   5.211  0.2496 -1.5379 -0.5434
 7738TIP3    H244630   4.520   3.762   5.339  1.5419 -3.2704 -0.7824
 7739TIP3   OH244631   6.348   3.265  12.367  0.1644 -0.3556  0.1384
 7739TIP3    H144632   6.285   3.319  12.415  0.0417  0.0464 -0.4680
 7739TIP3    H244633   6.417   3.326  12.340 -1.5733  0.2572 -3.4264
 7740TIP3   OH244634   3.413   5.137   5.393 -0.0318 -0.0567 -0.2315
 7740TIP3    H144635   3.402   5.232   5.389 -0.6975 -0.1327 -0.2824
 7740TIP3    H244636   3.430   5.119   5.486  1.7994  0.2818 -0.4743
 7741TIP3   OH244637   3.309   1.974  13.631 -0.3468 -0.0038  0.7522
 7741TIP3    H144638   3.271   1.918  13.563  2.4575 -0.7298 -0.3845
 7741TIP3    H244639   3.325   2.058  13.587  1.5273 -0.4929  0.3795
 7742TIP3   OH244640   4.239   3.890   5.168 -0.2380  0.1026 -0.1935
 7742TIP3    H144641   4.301   3.846   5.110 -1.2353 -0.2483 -1.0293
 7742TIP3    H244642   4.267   3.866   5.256  0.3038 -0.7358 -0.5821
 7743TIP3   OH244643   2.849   0.895   1.250 -0.3713 -0.3992 -1.1267
 7743TIP3    H144644   2.783   0.832   1.277 -0.5451 -0.2377 -1.1744
 7743TIP3    H244645   2.803   0.955   1.192 -0.3803  0.1693 -0.5503
 7744TIP3   OH244646   0.072   0.259  12.128  0.3696  0.0182  0.6502
 7744TIP3    H144647   0.004   0.252  12.196  0.1157  1.9658  0.6335
 7744TIP3    H244648   0.024   0.281  12.049  0.6255 -2.5736 -0.3251
 7745TIP3   OH244649   6.212   3.309  14.342 -0.0930  0.1863  0.1176
 7745TIP3    H144650   6.140   3.324  14.281 -2.4970  1.2629  2.9973
 7745TIP3    H244651   6.239   3.396  14.370  1.1111 -0.2786  0.4674
 7746TIP3   OH244652   2.741   1.635   2.908 -0.3102  0.7156  0.6082
 7746TIP3    H144653   2.781   1.549   2.893 -0.7392  0.7560 -0.8360
 7746TIP3    H244654   2.696   1.626   2.992  0.6574 -0.0874  1.0610
 7747TIP3   OH244655   0.340   5.139  14.440 -0.2639  0.7795 -0.6350
 7747TIP3    H144656   0.307   5.073  14.502  0.4640  2.2218  1.4095
 7747TIP3    H244657   0.435   5.135  14.449 -0.1454  1.0596 -1.6543
 7748TIP3   OH244658   0.041   2.602   6.076 -0.2625  0.3006 -0.4825
 7748TIP3    H144659  -0.025   2.533   6.085  0.7532 -0.6765 -0.2337
 7748TIP3    H244660   0.060   2.629   6.166  0.6913 -0.4545 -0.4320
 7749TIP3   OH244661   3.990   5.973   4.233  0.9113 -0.0885 -0.4041
 7749TIP3    H144662   3.942   6.041   4.281  1.7767 -0.8525  1.6581
 7749TIP3    H244663   4.062   5.949   4.291  2.3214 -0.7527 -2.3372
 7750TIP3   OH244664   2.337   2.344  13.115  0.1637  0.1121  0.2214
 7750TIP3    H144665   2.246   2.333  13.086  0.7641 -2.0718 -1.0325
 7750TIP3    H244666   2.349   2.277  13.182  1.4330 -1.0604 -1.1384
 7751TIP3   OH244667   6.494   3.874   0.446  0.3118  0.1409 -0.0896
 7751TIP3    H144668   6.501   3.779   0.458  1.0823  0.1339 -0.5690
 7751TIP3    H244669   6.420   3.899   0.503 -0.0671 -0.7713 -0.1554
 7752TIP3   OH244670   1.634   3.249   2.927 -0.0045  0.3348 -0.0385
 7752TIP3    H144671   1.714   3.297   2.948 -0.4476  0.1176  2.5136
 7752TIP3    H244672   1.571   3.317   2.901  0.7348  0.5828 -1.2500
 7753TIP3   OH244673   4.110   6.755  12.838 -0.0578  0.1786 -0.3581
 7753TIP3    H144674   4.052   6.683  12.865 -0.1473  1.0263  1.8824
 7753TIP3    H244675   4.182   6.711  12.792  1.2679 -1.7350  3.2011
 7754TIP3   OH244676   5.012   2.186   5.252 -0.5703 -0.5835 -0.4688
 7754TIP3    H144677   4.963   2.104   5.249  1.2024 -1.6810 -0.7331
 7754TIP3    H244678   5.086   2.167   5.310 -1.9857  1.9444  2.5095
 7755TIP3   OH244679   1.427   1.169  14.561  0.1519 -0.1103 -0.5133
 7755TIP3    H144680   1.500   1.113  14.533 -0.0919 -1.4309  1.3365
 7755TIP3    H244681   1.421   1.156  14.655 -1.5749  1.0939 -0.4061
 7756TIP3   OH244682   1.185   1.015  16.041 -0.3013  0.6853  0.0323
 7756TIP3    H144683   1.275   1.042  16.058 -0.9927  3.0139  0.4457
 7756TIP3    H244684   1.176   0.930  16.083  1.4589  0.7937  0.6895
 7757TIP3   OH244685   6.002   2.425   4.687 -0.5561 -0.1367 -0.8293
 7757TIP3    H144686   6.092   2.413   4.656 -0.7270  0.9918 -1.8389
 7757TIP3    H244687   5.960   2.341   4.671  0.1193 -0.4514 -1.0124
 7758TIP3   OH244688   1.665   0.327  14.061  0.3095  0.0027  0.1140
 7758TIP3    H144689   1.710   0.383  14.124  2.0949 -0.3983 -0.7503
 7758TIP3    H244690   1.611   0.387  14.009 -0.1283  0.5022  1.1136
 7759TIP3   OH244691   1.129   4.455   1.921 -0.6153 -0.4256  0.3742
 7759TIP3    H144692   1.204   4.436   1.864 -1.3818  0.1334 -0.8568
 7759TIP3    H244693   1.109   4.547   1.904 -0.3066  0.0364  2.2460
 7760TIP3   OH244694   0.823   2.144  15.645 -0.3030 -0.9248 -0.0341
 7760TIP3    H144695   0.831   2.069  15.585  0.3058 -0.3717 -0.6580
 7760TIP3    H244696   0.780   2.108  15.723  1.4433 -2.2988  0.3492
 7761TIP3   OH244697   1.786   5.099  16.767  0.0868  0.2517 -0.0676
 7761TIP3    H144698   1.866   5.060  16.801 -0.2073 -0.3399 -0.0528
 7761TIP3    H244699   1.782   5.071  16.676  0.5436  1.3144 -0.4278
 7762TIP3   OH244700   3.407   4.607  16.194  0.1040 -0.5574 -0.0392
 7762TIP3    H144701   3.399   4.541  16.125  0.1741  0.8096 -1.3936
 7762TIP3    H244702   3.466   4.567  16.258  0.6920 -1.5377 -1.1520
 7763TIP3   OH244703   5.642   3.765   4.623 -0.0969 -0.1682  0.0482
 7763TIP3    H144704   5.720   3.728   4.581 -0.5248  0.9830 -1.8889
 7763TIP3    H244705   5.662   3.858   4.634 -1.2420  0.1953 -0.7091
 7764TIP3   OH244706   6.394   0.203   1.870 -0.0852  0.6536 -0.1917
 7764TIP3    H144707   6.334   0.254   1.816  0.4656  0.3195 -1.1536
 7764TIP3    H244708   6.337   0.147   1.923 -0.6484 -0.6418 -2.0526
 7765TIP3   OH244709   2.537   3.073   0.815 -0.1780 -0.7873 -0.7183
 7765TIP3    H144710   2.486   3.109   0.888 -0.3381 -0.1032 -1.1665
 7765TIP3    H244711   2.504   3.118   0.738  1.7404  0.3563 -0.9333
 7766TIP3   OH244712   0.253   4.946  16.231  0.7876  0.0035  0.6684
 7766TIP3    H144713   0.161   4.925  16.215  1.2115 -1.1232 -0.4930
 7766TIP3    H244714   0.269   5.025  16.180 -0.1062  1.6707  2.8111
 7767TIP3   OH244715   2.430   0.624  17.244 -0.3626 -0.3279 -0.4418
 7767TIP3    H144716   2.374   0.633  17.320  0.6594  1.4935  0.1550
 7767TIP3    H244717   2.394   0.686  17.180 -1.5413 -2.2211 -1.7173
 7768TIP3   OH244718   2.214   6.236   5.004 -0.1366 -0.1428  0.0869
 7768TIP3    H144719   2.233   6.309   5.064  1.7304 -0.3510 -0.2024
 7768TIP3    H244720   2.280   6.244   4.935  1.1373 -2.9637  0.8460
 7769TIP3   OH244721   2.355   0.615   4.405 -0.4781  0.4160 -0.1085
 7769TIP3    H144722   2.412   0.686   4.375  0.5452 -0.8631 -1.3825
 7769TIP3    H244723   2.341   0.633   4.498  1.6001  1.0936  0.1353
 7770TIP3   OH244724   2.594   6.085   1.799  0.2141  0.0226  0.3209
 7770TIP3    H144725   2.648   6.050   1.870  0.8196 -0.2942 -0.2838
 7770TIP3    H244726   2.614   6.029   1.724 -0.4867  0.2953 -0.0794
 7771TIP3   OH244727   0.945   4.584  14.679 -0.0636  0.1167 -0.2078
 7771TIP3    H144728   1.039   4.602  14.682  0.3796 -1.9430 -0.2855
 7771TIP3    H244729   0.936   4.512  14.616 -1.6119 -0.1937  0.3171
 7772TIP3   OH244730   5.106   5.007   4.315  0.0658 -0.4494  0.4495
 7772TIP3    H144731   5.174   4.939   4.321 -0.3207 -0.7864  1.1185
 7772TIP3    H244732   5.031   4.963   4.276  0.8428  0.4218 -2.2105
 7773TIP3   OH244733   0.673   6.364   2.815  0.2827 -0.3920  0.0995
 7773TIP3    H144734   0.636   6.452   2.826  0.1906 -0.6180  1.8029
 7773TIP3    H244735   0.707   6.364   2.725 -1.4956  0.6930 -0.6325
 7774TIP3   OH244736   5.406   5.594   5.472 -0.3780 -0.4001  0.0074
 7774TIP3    H144737   5.500   5.611   5.460 -0.0200 -2.7032 -0.9622
 7774TIP3    H244738   5.366   5.619   5.389 -0.7558  1.1136  0.6116
 7775TIP3   OH244739   6.647   3.504   3.799 -0.0744  0.1193  0.0566
 7775TIP3    H144740   6.559   3.505   3.763 -0.7314 -1.2046  1.5091
 7775TIP3    H244741   6.641   3.553   3.881  0.7188  0.6594 -0.1933
 7776TIP3   OH244742   6.694   5.532  15.263 -0.3601  0.0164  0.1577
 7776TIP3    H144743   6.607   5.494  15.256 -0.1037 -0.5587  0.0475
 7776TIP3    H244744   6.712   5.536  15.357 -0.0759 -0.8679  0.1503
 7777TIP3   OH244745   5.829   5.093   5.797 -0.4532  0.3532 -0.3951
 7777TIP3    H144746   5.922   5.118   5.793 -0.2806 -0.2480 -0.3615
 7777TIP3    H244747   5.813   5.049   5.713 -0.7653  0.6457 -0.4870
 7778TIP3   OH244748   2.919   1.669   2.590  0.3064  0.6365 -0.0377
 7778TIP3    H144749   2.928   1.597   2.652  0.0551 -0.7631 -1.5726
 7778TIP3    H244750   2.975   1.645   2.516  1.0377  2.5229 -0.1608
 7779TIP3   OH244751   2.714   0.240  15.326 -0.2763 -0.0697 -0.2986
 7779TIP3    H144752   2.758   0.229  15.411  0.0854 -0.1328 -0.4944
 7779TIP3    H244753   2.685   0.332  15.326 -1.2087 -0.3458  0.3318
 7780TIP3   OH244754   2.681   0.747  11.527 -0.3008 -0.3065  0.4255
 7780TIP3    H144755   2.664   0.820  11.585  0.0823  0.1965 -0.0809
 7780TIP3    H244756   2.757   0.703  11.566 -0.3345 -0.2480  0.5576
 7781TIP3   OH244757   0.043   1.790  16.127 -0.0906 -0.2677 -0.0073
 7781TIP3    H144758   0.011   1.704  16.100  0.2950 -0.3427 -0.2420
 7781TIP3    H244759   0.074   1.777  16.217 -0.2637 -0.3165  0.0444
 7782TIP3   OH244760   6.010   6.039  13.938  0.9158  0.5469 -0.6460
 7782TIP3    H144761   6.011   6.125  13.981  3.6941  0.5067 -0.4453
 7782TIP3    H244762   6.072   5.987  13.989  0.6973 -1.0004 -1.9089
 7783TIP3   OH244763   3.889   1.587   1.786  0.2463 -0.0448  0.2730
 7783TIP3    H144764   3.938   1.527   1.844  1.0922 -1.3226 -1.6632
 7783TIP3    H244765   3.957   1.638   1.742 -0.3515  0.5445  0.0203
 7784TIP3   OH244766   1.281   6.482  15.081 -0.1553  0.2885  0.1146
 7784TIP3    H144767   1.200   6.505  15.126 -2.0170  1.7167 -3.6065
 7784TIP3    H244768   1.257   6.410  15.023  1.3407  0.4417 -0.7539
 7785TIP3   OH244769   5.604   5.842   0.663  0.0817 -0.5422  0.0093
 7785TIP3    H144770   5.514   5.827   0.636 -0.1683 -1.2272  1.1576
 7785TIP3    H244771   5.632   5.920   0.613 -0.0176 -2.2146 -2.9113
 7786TIP3   OH244772   1.148   4.042   4.960 -0.0905  0.4064  0.1917
 7786TIP3    H144773   1.143   4.065   5.052 -1.3005 -0.1147  0.2711
 7786TIP3    H244774   1.108   4.117   4.915  0.3809  0.6020  0.0874
 7787TIP3   OH244775   4.803   5.567  16.533  0.3753  0.1487  0.5557
 7787TIP3    H144776   4.809   5.651  16.488  0.1324  0.1123  0.4561
 7787TIP3    H244777   4.724   5.574  16.587  1.4528  0.7537  2.1332
 7788TIP3   OH244778   0.067   2.136  16.991 -0.1282  0.4787 -0.1045
 7788TIP3    H144779   0.042   2.092  16.909 -1.0790  0.4001  0.2120
 7788TIP3    H244780   0.161   2.148  16.984  0.2223 -1.9087 -0.0503
 7789TIP3   OH244781   2.179   5.232  11.289 -0.4430  0.2850 -0.1109
 7789TIP3    H144782   2.186   5.152  11.236 -0.7607  0.5193 -0.5196
 7789TIP3    H244783   2.228   5.298  11.240  0.4070  0.1734  0.5779
 7790TIP3   OH244784   3.441   2.270  15.684 -0.1492 -0.0045  0.7919
 7790TIP3    H144785   3.444   2.226  15.599 -0.1162 -0.7761  1.1853
 7790TIP3    H244786   3.347   2.280  15.702 -0.1550  0.2524  0.6152
 7791TIP3   OH244787   2.344   6.293  16.112 -0.3887 -0.0138  0.0394
 7791TIP3    H144788   2.315   6.379  16.081 -0.1473  0.3409  0.7773
 7791TIP3    H244789   2.323   6.292  16.205  3.3177  0.9302  1.0802
 7792TIP3   OH244790   4.024   0.442   4.188 -0.0199 -0.1851 -0.2486
 7792TIP3    H144791   4.118   0.429   4.184 -0.0574 -0.4875 -0.2313
 7792TIP3    H244792   4.010   0.530   4.154  0.2158 -0.3728 -0.8600
 7793TIP3   OH244793   2.023   6.276  16.043 -0.2551  0.0476 -0.0115
 7793TIP3    H144794   1.987   6.187  16.047 -1.6323  0.6190  1.6307
 7793TIP3    H244795   1.958   6.330  16.088  0.5605  1.9076 -0.9591
 7794TIP3   OH244796   1.324   6.047  11.136  0.4956 -0.4264  0.1483
 7794TIP3    H144797   1.403   6.089  11.170  0.2763 -0.5793  0.8570
 7794TIP3    H244798   1.357   5.968  11.093  0.8937  0.3646 -1.0673
 7795TIP3   OH244799   2.308   4.576  13.497 -0.3087 -0.1426  0.3912
 7795TIP3    H144800   2.354   4.528  13.566 -1.7205 -2.9262 -0.4517
 7795TIP3    H244801   2.260   4.645  13.543 -0.5964 -1.4255  2.1124
 7796TIP3   OH244802   0.705   1.042   4.290  0.4227  0.5555 -0.2348
 7796TIP3    H144803   0.659   1.019   4.210  2.3952 -0.4223 -1.1551
 7796TIP3    H244804   0.796   1.054   4.263  1.5074 -1.5451  2.0829
 7797TIP3   OH244805   4.856   5.747   3.733 -0.2763 -0.2517  0.0487
 7797TIP3    H144806   4.867   5.657   3.765 -2.3002 -1.1365 -1.4823
 7797TIP3    H244807   4.791   5.786   3.791 -0.2157 -0.1573  0.0537
 7798TIP3   OH244808   3.537   5.392   6.556  0.3005  0.5011 -0.1422
 7798TIP3    H144809   3.609   5.449   6.582 -0.0010  0.6332  0.4307
 7798TIP3    H244810   3.536   5.323   6.622  0.5060 -0.0349 -0.6890
 7799TIP3   OH244811   2.810   0.170   1.185 -0.4015 -0.1984  0.2591
 7799TIP3    H144812   2.855   0.230   1.244 -0.1995 -1.5650  1.5574
 7799TIP3    H244813   2.717   0.184   1.203 -0.3374 -0.6797  0.9930
 7800TIP3   OH244814   6.356   5.457  14.112  0.4093 -0.0178 -0.1070
 7800TIP3    H144815   6.306   5.526  14.068  0.3265 -0.1015 -0.1439
 7800TIP3    H244816   6.344   5.380  14.057  2.0937  0.4006 -1.1490
 7801TIP3   OH244817   6.702   6.562  16.795  0.2541  0.1706 -0.2037
 7801TIP3    H144818   6.661   6.641  16.830 -1.0421 -0.6230  0.1559
 7801TIP3    H244819   6.794   6.585  16.783  0.0774  1.4475  0.7550
 7802TIP3   OH244820   0.782   6.572  12.090  0.0182 -0.5033 -0.2098
 7802TIP3    H144821   0.789   6.497  12.149 -3.7139 -1.0452 -0.2467
 7802TIP3    H244822   0.796   6.536  12.003  0.4755 -0.6634 -0.0782
 7803TIP3   OH244823   4.828   0.772   1.797 -0.5541 -0.5238 -0.7622
 7803TIP3    H144824   4.864   0.860   1.792 -1.4420 -0.1717 -1.1436
 7803TIP3    H244825   4.739   0.780   1.761 -0.3413 -1.7401 -1.6329
 7804TIP3   OH244826   3.316   5.596  15.323 -0.0214 -0.4013  0.3434
 7804TIP3    H144827   3.354   5.622  15.407  1.7091  0.2741 -0.6019
 7804TIP3    H244828   3.367   5.519  15.297  0.2612  0.1053 -0.6365
 7805TIP3   OH244829   4.959   4.287  16.639  0.2298  0.4947  0.3443
 7805TIP3    H144830   5.019   4.360  16.654  0.9848 -0.3863  1.8721
 7805TIP3    H244831   4.920   4.270  16.725 -0.2644 -0.6062 -0.0758
 7806TIP3   OH244832   0.562   1.595  14.965  0.0861 -0.0128 -0.1466
 7806TIP3    H144833   0.644   1.643  14.977  0.2440 -0.3686  0.2103
 7806TIP3    H244834   0.588   1.503  14.961 -0.3807 -0.2188  1.0200
 7807TIP3   OH244835   2.718   5.223  13.443 -0.2218  0.1863 -0.0863
 7807TIP3    H144836   2.771   5.174  13.381  1.2107  1.0913  0.3921
 7807TIP3    H244837   2.767   5.303  13.460 -0.8269  0.2104  1.8040
 7808TIP3   OH244838   5.403   5.097   0.858  0.2121  0.0503 -0.1894
 7808TIP3    H144839   5.449   5.117   0.776 -2.2549  2.4056 -1.1341
 7808TIP3    H244840   5.464   5.124   0.927  0.9505  1.3954 -1.3284
 7809TIP3   OH244841   0.782   4.764  11.916  0.4633 -0.5429 -0.8508
 7809TIP3    H144842   0.694   4.784  11.947  0.3563 -1.5705 -0.4476
 7809TIP3    H244843   0.787   4.668  11.918  1.2890 -0.5329 -1.7052
 7810TIP3   OH244844   1.672   2.368   0.248  0.1552  0.2898 -0.2184
 7810TIP3    H144845   1.597   2.418   0.280 -0.1469 -0.0979 -0.3129
 7810TIP3    H244846   1.707   2.326   0.327 -0.0513  0.0467 -0.2534
 7811TIP3   OH244847   6.733   0.326   5.252  0.6724 -0.1534  0.1484
 7811TIP3    H144848   6.729   0.336   5.347 -0.0925  0.6248  0.0506
 7811TIP3    H244849   6.709   0.412   5.218  2.0302 -0.1018 -0.7526
 7812TIP3   OH244850   3.492   4.737   5.724 -0.5819  0.2048 -0.3739
 7812TIP3    H144851   3.548   4.707   5.795 -1.7941  0.1383  0.5803
 7812TIP3    H244852   3.532   4.818   5.693 -0.1962  0.3841  0.5758
 7813TIP3   OH244853   3.297   3.793  16.560  0.4747 -0.0927  0.5593
 7813TIP3    H144854   3.207   3.775  16.587 -0.1454  2.1692  0.1674
 7813TIP3    H244855   3.323   3.870  16.610  1.5986  0.2621 -0.5212
 7814TIP3   OH244856   5.536   6.654   4.661 -0.4391  0.0249  0.0640
 7814TIP3    H144857   5.583   6.631   4.741 -0.3484  0.0209  0.0092
 7814TIP3    H244858   5.577   6.602   4.593 -0.0710  0.5310 -0.1031
 7815TIP3   OH244859   3.010   3.324   2.009  0.5735  0.0784  0.1141
 7815TIP3    H144860   2.950   3.254   1.983 -1.1876  1.3378  0.5953
 7815TIP3    H244861   3.073   3.329   1.937  1.2910 -2.5119  0.4554
 7816TIP3   OH244862   4.444   0.952  11.816 -0.0687  0.3257 -0.1208
 7816TIP3    H144863   4.352   0.963  11.794  0.0492 -0.2224 -0.9182
 7816TIP3    H244864   4.468   1.032  11.862 -0.6368  0.9672 -0.9260
 7817TIP3   OH244865   2.879   6.072  15.990 -0.0233 -0.1923 -0.1809
 7817TIP3    H144866   2.932   6.150  16.006  0.0142  0.0538 -1.3963
 7817TIP3    H244867   2.789   6.105  15.983  0.0243 -0.2026 -0.9601
 7818TIP3   OH244868   3.724   2.618   6.017  0.4619  0.3659  0.3883
 7818TIP3    H144869   3.756   2.544   5.965 -0.2160  0.0568  0.4032
 7818TIP3    H244870   3.795   2.636   6.079  1.1709  0.5755 -0.4627
 7819TIP3   OH244871   5.885   6.115   4.112 -0.3234 -0.3481  0.4402
 7819TIP3    H144872   5.908   6.121   4.019 -0.1934  2.0348  0.5609
 7819TIP3    H244873   5.901   6.023   4.135 -0.8316 -1.1143 -1.9796
 7820TIP3   OH244874   6.347   5.510  10.941  0.2023  0.2344  0.3322
 7820TIP3    H144875   6.271   5.495  10.884  1.5911  1.8702 -2.1309
 7820TIP3    H244876   6.403   5.434  10.926  0.6656  0.7637 -0.7511
 7821TIP3   OH244877   2.950   2.555   1.366 -0.2082 -0.9791 -0.0056
 7821TIP3    H144878   2.982   2.645   1.356  1.4947 -1.5366  0.1014
 7821TIP3    H244879   3.023   2.501   1.336 -1.8714 -2.3259 -1.9401
 7822TIP3   OH244880   5.309   6.576  14.834  0.3509 -0.0282  0.0213
 7822TIP3    H144881   5.295   6.519  14.758 -0.1042  0.9629 -0.6636
 7822TIP3    H244882   5.257   6.536  14.904  1.3139 -1.3246  0.0119
 7823TIP3   OH244883   5.509   1.177   5.684 -0.6851 -0.2979  0.8462
 7823TIP3    H144884   5.542   1.225   5.760  0.4156 -1.1549  0.9410
 7823TIP3    H244885   5.509   1.241   5.613  0.7947 -0.1241  0.9656
 7824TIP3   OH244886   4.163   4.114  13.191  0.3228 -0.3709 -0.5306
 7824TIP3    H144887   4.242   4.144  13.237 -0.0712  1.0692 -0.7508
 7824TIP3    H244888   4.109   4.075  13.259  1.8465 -2.8542 -0.6058
 7825TIP3   OH244889   3.885   0.850   7.078  0.1256 -0.1223  0.1157
 7825TIP3    H144890   3.803   0.898   7.082 -0.4453 -1.1181  1.2174
 7825TIP3    H244891   3.947   0.910   7.038 -0.4571  1.6547  1.7565
 7826TIP3   OH244892   3.103   6.594  16.818 -0.0584  0.0981 -0.7284
 7826TIP3    H144893   3.138   6.589  16.907  0.1309 -3.5391 -0.8212
 7826TIP3    H244894   3.008   6.587  16.829 -0.0371 -0.3223 -0.7887
 7827TIP3   OH244895   2.853   4.232   3.181  0.1719  0.8333 -0.1612
 7827TIP3    H144896   2.839   4.139   3.201  0.8655  0.7693  0.0475
 7827TIP3    H244897   2.826   4.241   3.090  0.2194  0.3982 -0.2209
 7828TIP3   OH244898   6.151   5.596   3.116  0.7381 -0.1114 -0.5034
 7828TIP3    H144899   6.245   5.607   3.099  0.5656 -0.3329 -1.6992
 7828TIP3    H244900   6.116   5.561   3.034 -0.0948 -1.8023  0.5359
 7829TIP3   OH244901   5.529   1.362   3.323  0.0679 -0.3479 -0.2394
 7829TIP3    H144902   5.503   1.372   3.231  0.8278 -0.2242 -0.4474
 7829TIP3    H244903   5.581   1.282   3.325  1.7848  0.7124 -0.3202
 7830TIP3   OH244904   4.382   2.740   4.692 -0.1193 -0.1525  0.3351
 7830TIP3    H144905   4.418   2.807   4.750  0.6401 -0.2898  0.0362
 7830TIP3    H244906   4.374   2.784   4.607 -0.1481 -0.2764  0.2730
 7831TIP3   OH244907   0.314   2.677  10.736 -0.6871  0.1843  0.0622
 7831TIP3    H144908   0.384   2.725  10.691 -2.1624 -0.0777 -2.7805
 7831TIP3    H244909   0.357   2.599  10.770  0.4627  0.0098 -1.6481
 7832TIP3   OH244910   2.331   2.468   5.376 -0.3233 -0.3578 -0.2055
 7832TIP3    H144911   2.294   2.554   5.395 -0.8103 -0.5331 -0.3278
 7832TIP3    H244912   2.280   2.408   5.432  0.4855 -0.4836  0.4073
 7833TIP3   OH244913   1.820   6.746   6.210 -0.7767  0.2656  0.6201
 7833TIP3    H144914   1.804   6.703   6.294  1.5472  0.4159  1.2262
 7833TIP3    H244915   1.839   6.837   6.233 -2.9284  1.0336 -0.3948
 7834TIP3   OH244916   3.831   2.192   2.114 -0.6676 -0.5228  0.3661
 7834TIP3    H144917   3.900   2.256   2.129 -0.4001 -0.0781 -2.2763
 7834TIP3    H244918   3.779   2.194   2.194  1.1637  0.6428  1.6015
 7835TIP3   OH244919   2.934   2.972   3.036  0.8171 -0.2130 -0.3126
 7835TIP3    H144920   2.990   2.895   3.023 -0.0076 -0.5969 -1.7799
 7835TIP3    H244921   2.848   2.945   3.003  0.1993  0.9465  0.2840
 7836TIP3   OH244922   6.092   3.095   1.834  0.0104  0.0862 -0.1067
 7836TIP3    H144923   6.157   3.025   1.830  2.0723  1.8275  0.9605
 7836TIP3    H244924   6.142   3.175   1.822 -2.4218  1.4294 -2.5990
 7837TIP3   OH244925   1.423   4.487  14.083  0.5426 -0.1011 -0.2089
 7837TIP3    H144926   1.358   4.428  14.045  1.1212  0.4363 -2.1403
 7837TIP3    H244927   1.469   4.523  14.008  1.3051  1.5575  1.0011
 7838TIP3   OH244928   2.192   5.365  16.051  0.2910  0.0003  0.8162
 7838TIP3    H144929   2.221   5.406  16.133  0.8475 -0.1808  0.7200
 7838TIP3    H244930   2.274   5.337  16.009 -0.1013 -2.4722  1.5306
 7839TIP3   OH244931   2.313   4.045   5.952  0.1642  0.3840 -0.1936
 7839TIP3    H144932   2.263   4.068   6.030 -0.3964  1.1233 -0.7539
 7839TIP3    H244933   2.343   3.955   5.968  0.6393  0.7655  1.1466
 7840TIP3   OH244934   6.268   0.049   1.637 -0.1859 -0.3200  0.0255
 7840TIP3    H144935   6.340   0.111   1.649 -1.0631  0.7422 -0.0002
 7840TIP3    H244936   6.299  -0.012   1.570 -0.3348  1.8089 -2.1179
 7841TIP3   OH244937   3.779   2.233  14.498  0.6555 -0.1100 -0.1147
 7841TIP3    H144938   3.692   2.257  14.531  0.3552  0.4540 -1.2415
 7841TIP3    H244939   3.778   2.138  14.493 -0.1115 -0.0826 -0.6408
 7842TIP3   OH244940   0.912   0.137   3.417 -0.2227  0.1363  0.0097
 7842TIP3    H144941   0.822   0.123   3.388  0.0883 -1.0217 -0.4270
 7842TIP3    H244942   0.905   0.206   3.483 -1.0435  2.5056 -2.3532
 7843TIP3   OH244943   1.421   0.185   1.568 -0.5219 -0.0050 -0.2407
 7843TIP3    H144944   1.416   0.100   1.613 -1.0109 -0.0646 -0.4052
 7843TIP3    H244945   1.413   0.164   1.475  0.7354  0.0952 -0.3980
 7844TIP3   OH244946   2.330   2.928  11.901  0.5757 -0.1118  0.7013
 7844TIP3    H144947   2.364   3.017  11.899 -3.1801  1.4928  0.1448
 7844TIP3    H244948   2.404   2.873  11.874  2.8286  2.8614  0.3326
 7845TIP3   OH244949   3.704   2.385  14.959 -0.3243 -0.2746  0.2043
 7845TIP3    H144950   3.682   2.420  14.873  1.3546  1.5181  0.4423
 7845TIP3    H244951   3.694   2.459  15.019  0.6000 -0.9240  1.2047
 7846TIP3   OH244952   3.597   5.604  15.654  0.4186  0.7310  0.0803
 7846TIP3    H144953   3.602   5.566  15.741  0.4831  0.8319  0.1206
 7846TIP3    H244954   3.656   5.679  15.656 -0.8174  1.7404  0.4638
 7847TIP3   OH244955   5.450   4.801  10.975  0.1824  0.6082  0.4200
 7847TIP3    H144956   5.368   4.828  11.016  0.0068  0.5369  0.1229
 7847TIP3    H244957   5.440   4.706  10.961 -0.3054  0.8420 -0.9833
 7848TIP3   OH244958   3.783   4.313   4.970 -0.3918  0.3305  0.1366
 7848TIP3    H144959   3.803   4.379   4.904  3.6528  0.1455  0.9355
 7848TIP3    H244960   3.727   4.358   5.033 -0.0383  2.1284 -0.7735
 7849TIP3   OH244961   6.552   3.870  14.739  0.0834  0.5434 -0.7084
 7849TIP3    H144962   6.560   3.956  14.698  1.8048  0.8225  0.1002
 7849TIP3    H244963   6.530   3.811  14.668 -0.0519  1.4850 -1.4694
 7850TIP3   OH244964   1.183   3.921  16.514  0.1591 -0.2809  0.0856
 7850TIP3    H144965   1.265   3.877  16.538 -0.6713 -2.4764 -0.8602
 7850TIP3    H244966   1.135   3.927  16.596  1.1120  0.7967  0.6056
 7851TIP3   OH244967   3.280   5.441  16.198  0.2194 -0.5345 -0.2931
 7851TIP3    H144968   3.359   5.394  16.173  0.1608 -2.0364  1.9841
 7851TIP3    H244969   3.239   5.385  16.264 -1.8826  0.9867 -0.2002
 7852TIP3   OH244970   5.201   4.401   6.506  0.0920  0.2857 -0.1338
 7852TIP3    H144971   5.130   4.464   6.519 -0.9414 -0.6885 -0.8157
 7852TIP3    H244972   5.235   4.420   6.419 -1.2255 -1.0161 -0.9673
 7853TIP3   OH244973   3.969   3.840   6.084 -0.3743  0.6328 -0.2323
 7853TIP3    H144974   4.048   3.803   6.123 -0.2489  1.0733 -0.0558
 7853TIP3    H244975   3.917   3.764   6.057  0.9267  0.3107 -2.0500
 7854TIP3   OH244976   4.883   4.302   2.252  0.7501  0.3595  0.1558
 7854TIP3    H144977   4.875   4.241   2.178  0.2967 -1.1988  1.4386
 7854TIP3    H244978   4.803   4.354   2.249 -0.1601 -0.9473  0.5837
 7855TIP3   OH244979   5.766   4.693  14.541  0.3379  0.1782  0.2515
 7855TIP3    H144980   5.755   4.749  14.464  2.8840  1.4405  0.6960
 7855TIP3    H244981   5.857   4.707  14.568  0.5063 -2.7368  1.5597
 7856TIP3   OH244982   4.912   5.043   5.893 -0.0632 -0.2115  0.5790
 7856TIP3    H144983   4.892   5.124   5.845  0.1063  0.0158  0.8860
 7856TIP3    H244984   4.832   4.991   5.887 -0.4270  0.2928  1.0084
 7857TIP3   OH244985   4.265   3.667   1.431  0.3951  0.3864 -0.0488
 7857TIP3    H144986   4.172   3.684   1.417  0.0739  0.0494  1.4891
 7857TIP3    H244987   4.307   3.751   1.415 -0.7083  1.8014  3.4474
 7858TIP3   OH244988   0.788   0.271   3.620  0.6989  0.0609 -0.8031
 7858TIP3    H144989   0.715   0.248   3.678  0.5498  0.6771 -0.7380
 7858TIP3    H244990   0.866   0.237   3.664  0.5762  0.4462 -0.2786
 7859TIP3   OH244991   0.513   5.140   0.354  0.1846  0.0140 -0.5200
 7859TIP3    H144992   0.466   5.075   0.302 -1.6303 -0.3688  1.4868
 7859TIP3    H244993   0.502   5.221   0.305 -0.9485 -0.4387 -1.0601
 7860TIP3   OH244994   0.691   0.898  17.353 -0.2538  0.0736  0.6678
 7860TIP3    H144995   0.780   0.907  17.388 -0.0721 -1.2369  0.5960
 7860TIP3    H244996   0.634   0.909  17.429  0.0074  0.1325  0.8572
 7861TIP3   OH244997   0.650   4.973   0.595 -0.0061 -0.0011 -0.2584
 7861TIP3    H144998   0.632   5.063   0.622 -0.9123  0.7489 -3.0068
 7861TIP3    H244999   0.720   4.981   0.531  0.8490 -1.4542  0.4516
 7862TIP3   OH245000   6.165   0.367   0.673  0.5567  0.1147 -0.0237
 7862TIP3    H145001   6.125   0.454   0.669 -2.4787 -1.1997 -1.2696
 7862TIP3    H245002   6.229   0.367   0.602  0.2551  1.1812 -0.3209
 7863TIP3   OH245003   5.051   4.097  16.210  0.3457  0.3953  0.0972
 7863TIP3    H145004   5.006   4.162  16.156 -1.5799 -1.4717 -0.6742
 7863TIP3    H245005   5.129   4.072  16.160 -0.0461  0.5559 -0.5906
 7864TIP3   OH245006   0.298   2.520  14.035  0.2412  0.0248  0.2221
 7864TIP3    H145007   0.379   2.509  13.985 -0.0370  0.4029 -0.3343
 7864TIP3    H245008   0.276   2.431  14.064  0.8670 -0.0777  0.4104
 7865TIP3   OH245009   3.609   4.892   1.020 -0.2146  0.1064 -0.1323
 7865TIP3    H145010   3.610   4.910   1.114  0.1373 -1.3873  0.1808
 7865TIP3    H245011   3.662   4.813   1.010  0.1453  0.4965 -1.6585
 7866TIP3   OH245012   4.644   2.482  15.506  0.0295  0.0599 -0.3178
 7866TIP3    H145013   4.671   2.573  15.521 -1.3789  0.3749  0.5318
 7866TIP3    H245014   4.661   2.467  15.413  0.4823  1.1152 -0.4254
 7867TIP3   OH245015   5.756   3.636  14.256 -0.5782 -0.4154  0.1521
 7867TIP3    H145016   5.774   3.556  14.306 -1.1077  0.5182  1.9494
 7867TIP3    H245017   5.814   3.701  14.293 -2.1511  0.7210  0.7466
 7868TIP3   OH245018   4.448   6.600   0.891 -0.4265 -0.3492 -0.1349
 7868TIP3    H145019   4.479   6.511   0.879  2.2248  0.2019  1.7451
 7868TIP3    H245020   4.521   6.655   0.860 -0.8346  1.0966  1.3166
 7869TIP3   OH245021   0.217   4.964   5.620 -0.0480 -0.2435  0.0642
 7869TIP3    H145022   0.154   4.907   5.664 -1.2371  0.3982 -0.7534
 7869TIP3    H245023   0.190   4.962   5.528  1.2718 -0.1235 -0.3429
 7870TIP3   OH245024   3.978   1.078  15.354 -0.1686 -0.3043 -0.8944
 7870TIP3    H145025   3.917   1.073  15.428 -0.5248 -1.5526 -1.2480
 7870TIP3    H245026   4.044   1.141  15.381 -1.3580  0.7158 -0.3041
 7871TIP3   OH245027   5.677   2.400   3.163 -0.1742  0.3813 -0.1283
 7871TIP3    H145028   5.750   2.366   3.111 -0.5683 -2.1099  0.8341
 7871TIP3    H245029   5.715   2.422   3.248 -0.4143 -0.3336  0.1705
 7872TIP3   OH245030   3.651   6.591   5.575  0.0016  0.1946  0.4759
 7872TIP3    H145031   3.598   6.588   5.654  1.1079  1.3459  1.2926
 7872TIP3    H245032   3.635   6.678   5.538  0.4035  0.1040  0.0747
 7873TIP3   OH245033   4.116   6.462  15.265  0.4694 -0.3096  0.2553
 7873TIP3    H145034   4.098   6.494  15.354 -1.3480  2.1744 -0.8798
 7873TIP3    H245035   4.163   6.534  15.223  0.2247 -0.9341 -1.1456
 7874TIP3   OH245036   2.528   6.330   5.641 -0.0932  0.5269 -0.6276
 7874TIP3    H145037   2.603   6.317   5.583 -0.1124  0.1748 -0.5738
 7874TIP3    H245038   2.451   6.318   5.585 -0.1582 -2.0174 -0.1150
 7875TIP3   OH245039   4.640   0.555   1.036  0.3603  0.1019 -0.5711
 7875TIP3    H145040   4.668   0.532   1.125 -1.7697 -0.4146  0.0411
 7875TIP3    H245041   4.603   0.474   1.001 -3.2233  1.3212 -0.0380
 7876TIP3   OH245042   2.857   6.662   0.379 -0.5647  0.4173 -0.4418
 7876TIP3    H145043   2.881   6.659   0.471 -0.2766  1.5538 -0.4677
 7876TIP3    H245044   2.781   6.603   0.372 -1.0950  0.9371  0.6822
 7877TIP3   OH245045   5.845   0.159  12.698  0.0336 -0.2362  0.2021
 7877TIP3    H145046   5.780   0.120  12.757 -0.8285  1.9717  0.8227
 7877TIP3    H245047   5.928   0.150  12.745  0.0603 -2.0811 -0.1008
 7878TIP3   OH245048   0.633   1.495  13.367 -0.1619  0.0568 -0.4924
 7878TIP3    H145049   0.616   1.587  13.349  1.0685  0.2322 -0.8514
 7878TIP3    H245050   0.720   1.493  13.406 -1.1778 -0.7101  2.0079
 7879TIP3   OH245051   3.183   0.924   1.625 -0.3236  0.0464 -0.3471
 7879TIP3    H145052   3.108   0.981   1.640  0.6034  1.2970 -0.2792
 7879TIP3    H245053   3.198   0.881   1.709 -1.3707 -0.7403 -0.5511
 7880TIP3   OH245054   1.946   2.723  10.869 -0.3548 -0.1151 -0.0309
 7880TIP3    H145055   1.860   2.687  10.847  0.1185 -0.9998 -0.5014
 7880TIP3    H245056   1.927   2.811  10.903 -1.8482 -1.6676  3.8184
 7881TIP3   OH245057   3.357   0.485  15.297 -0.7143  0.6383 -0.2568
 7881TIP3    H145058   3.287   0.421  15.284  0.5140 -0.8291 -0.0145
 7881TIP3    H245059   3.364   0.531  15.213  0.6099 -1.9384 -1.6783
 7882TIP3   OH245060   0.792   5.203  12.981 -0.2700  0.3679  0.4201
 7882TIP3    H145061   0.872   5.245  12.948 -1.0000  0.8978 -0.7262
 7882TIP3    H245062   0.792   5.224  13.075  1.4965 -0.6052  0.6911
 7883TIP3   OH245063   3.534   3.599   3.303  0.2707  0.2569 -0.1924
 7883TIP3    H145064   3.443   3.573   3.292  0.3458  0.3261 -1.0566
 7883TIP3    H245065   3.560   3.561   3.387 -1.2399  2.2611  1.2451
 7884TIP3   OH245066   1.648   6.002  12.747 -0.0660 -0.2026  0.4154
 7884TIP3    H145067   1.687   5.924  12.706 -1.7905 -0.2848 -1.2097
 7884TIP3    H245068   1.557   6.001  12.718 -0.0450  2.6753 -0.0458
 7885TIP3   OH245069   0.542   5.218  17.298 -0.4181  0.3562  0.4380
 7885TIP3    H145070   0.579   5.279  17.361  1.1120 -0.2195  0.1305
 7885TIP3    H245071   0.571   5.131  17.328  0.1886  0.0576 -0.9223
 7886TIP3   OH245072   5.755   5.719   2.928  0.3052 -0.3660  0.0734
 7886TIP3    H145073   5.718   5.635   2.956 -1.6461  0.3653 -0.1477
 7886TIP3    H245074   5.796   5.701   2.844 -0.2182 -1.0832 -0.0380
 7887TIP3   OH245075   0.450   1.657   4.903 -0.2951  0.3281  0.0768
 7887TIP3    H145076   0.364   1.662   4.943 -0.1496  1.6269  0.2609
 7887TIP3    H245077   0.511   1.652   4.977 -0.1276  1.0372 -0.0063
 7888TIP3   OH245078   6.720   0.867  16.497 -0.6431 -0.0897 -0.3624
 7888TIP3    H145079   6.731   0.875  16.592 -1.1448  0.8790 -0.3733
 7888TIP3    H245080   6.709   0.774  16.482  1.5575 -0.5203  0.2864
 7889TIP3   OH245081   5.105   4.603  15.152 -0.5103  0.0283 -0.1776
 7889TIP3    H145082   5.151   4.624  15.070  2.0167 -1.8770  0.6315
 7889TIP3    H245083   5.051   4.527  15.131  0.8380 -1.0301  0.0946
 7890TIP3   OH245084   4.412   2.441  13.713  0.3144  0.7258  0.4109
 7890TIP3    H145085   4.449   2.459  13.627  0.9961 -2.2335 -0.0222
 7890TIP3    H245086   4.319   2.427  13.697  0.4804 -0.0589  0.0804
 7891TIP3   OH245087   4.954   0.817  16.215  0.3734 -0.1485 -0.3691
 7891TIP3    H145088   5.012   0.792  16.287  0.7803 -1.3894 -1.0938
 7891TIP3    H245089   4.878   0.856  16.258  0.5765 -0.9288  0.7440
 7892TIP3   OH245090   4.577   0.810  16.641  0.3752  0.2152  0.0968
 7892TIP3    H145091   4.657   0.836  16.595  1.8497 -1.2843  1.6730
 7892TIP3    H245092   4.587   0.716  16.655 -2.0283 -0.1610 -0.2612
 7893TIP3   OH245093   4.917   0.409   3.215 -0.1626  0.0582  0.5078
 7893TIP3    H145094   4.988   0.369   3.165 -0.5810 -0.4990  0.3356
 7893TIP3    H245095   4.837   0.373   3.175 -0.5308 -2.6852  3.3157
 7894TIP3   OH245096   0.975   3.276  10.576  0.4884  0.0523  0.4613
 7894TIP3    H145097   0.993   3.300  10.668  2.4297 -1.2672  0.4937
 7894TIP3    H245098   1.050   3.313  10.528 -0.7063  1.0684 -0.6932
 7895TIP3   OH245099   0.874   5.040   5.468 -0.1711 -0.2247  0.2412
 7895TIP3    H145100   0.802   5.007   5.522 -0.0292  0.7594  1.0660
 7895TIP3    H245101   0.928   5.091   5.529  1.5122 -1.3404 -0.2328
 7896TIP3   OH245102   4.368   5.392  14.821 -0.4140 -0.1360 -0.0129
 7896TIP3    H145103   4.339   5.483  14.819 -1.7126 -0.5285 -1.8092
 7896TIP3    H245104   4.392   5.373  14.730  0.3368 -1.4401  0.4295
 7897TIP3   OH245105   3.939   4.027   0.434  0.1925 -0.3473  0.3789
 7897TIP3    H145106   3.858   3.977   0.428 -1.5094  2.1483  0.6740
 7897TIP3    H245107   3.946   4.073   0.350  0.3604  0.7257  0.9546
 7898TIP3   OH245108   3.613   4.809   4.079 -0.3022 -0.7017 -0.0377
 7898TIP3    H145109   3.560   4.889   4.086  2.4393  1.2424 -0.0175
 7898TIP3    H245110   3.679   4.818   4.147 -0.6737 -3.7202  0.8506
 7899TIP3   OH245111   0.219   3.336   5.338  0.8230 -0.3265  0.0576
 7899TIP3    H145112   0.210   3.267   5.404  1.3448  0.1664  0.6718
 7899TIP3    H245113   0.138   3.386   5.345  1.2783  0.3087  1.0430
 7900TIP3   OH245114   1.519   0.409  11.453  0.2742  0.1055  0.2037
 7900TIP3    H145115   1.562   0.369  11.529 -0.8338 -1.3506  0.1015
 7900TIP3    H245116   1.557   0.364  11.377  1.1304  1.3220 -0.1262
 7901TIP3   OH245117   0.810   5.818   3.551 -0.4333 -0.3331 -0.1995
 7901TIP3    H145118   0.783   5.875   3.623  1.0106  0.1066  0.0351
 7901TIP3    H245119   0.897   5.787   3.577 -0.3053 -0.9522 -1.3111
 7902TIP3   OH245120   4.361   2.210   4.734  0.0482 -0.1997  0.4867
 7902TIP3    H145121   4.371   2.178   4.645  2.3946  0.5291  0.4136
 7902TIP3    H245122   4.302   2.286   4.726  1.1998  0.6165 -0.6799
 7903TIP3   OH245123   6.270   5.244  13.937  0.0510 -0.3768 -0.5231
 7903TIP3    H145124   6.324   5.294  13.876  0.1589 -0.6094 -0.6191
 7903TIP3    H245125   6.183   5.285  13.931  0.7338  1.4984  1.3439
 7904TIP3   OH245126   1.040   2.092   5.298 -0.4379  0.2678  0.6636
 7904TIP3    H145127   0.992   2.020   5.256 -1.4323  0.7619  0.9380
 7904TIP3    H245128   1.005   2.171   5.258  0.9171  0.6074  0.0968
 7905TIP3   OH245129   2.904   4.840   2.387  0.0537 -0.0076  0.4005
 7905TIP3    H145130   2.902   4.758   2.437 -1.0677  0.0758  0.5173
 7905TIP3    H245131   2.903   4.812   2.295 -2.4493 -0.1651  0.3950
 7906TIP3   OH245132   5.549   0.385  12.901 -0.5272  0.2389  0.6596
 7906TIP3    H145133   5.532   0.440  12.977 -0.7740  1.7693 -0.4516
 7906TIP3    H245134   5.559   0.297  12.936  1.0943  1.1470  2.6502
 7907TIP3   OH245135   5.564   3.825   1.607  0.1622  0.9625 -0.5969
 7907TIP3    H145136   5.520   3.808   1.690  2.2178  2.1601  0.8044
 7907TIP3    H245137   5.495   3.814   1.541 -1.2989 -1.0427  1.1233
 7908TIP3   OH245138   1.183   4.916  11.635  0.0708  0.3061 -0.2898
 7908TIP3    H145139   1.243   4.940  11.564  0.0940  1.1293 -0.0041
 7908TIP3    H245140   1.121   4.989  11.640 -0.2372  0.0172  0.2015
 7909TIP3   OH245141   5.384   0.340  11.720  0.1624 -0.0809 -0.1019
 7909TIP3    H145142   5.328   0.278  11.767  0.5284  0.4486  1.0856
 7909TIP3    H245143   5.461   0.288  11.696 -0.5460 -0.6533 -1.1859
 7910TIP3   OH245144   3.409   6.423  11.710  0.2700 -0.0758  0.2950
 7910TIP3    H145145   3.469   6.497  11.718  0.8527 -0.3511 -1.2159
 7910TIP3    H245146   3.322   6.460  11.725  0.6930  0.5482  1.3427
 7911TIP3   OH245147   3.574   4.058  14.536 -0.2450  0.5811 -0.1182
 7911TIP3    H145148   3.612   3.980  14.494 -0.2701 -0.0234  0.9413
 7911TIP3    H245149   3.500   4.081  14.479 -0.4535 -0.3859 -0.2733
 7912TIP3   OH245150   4.870   1.792   5.378 -0.7742  0.1452  0.0368
 7912TIP3    H145151   4.775   1.783   5.376 -0.6940 -1.0912  0.8638
 7912TIP3    H245152   4.895   1.760   5.464  0.2537  2.0835  0.5170
 7913TIP3   OH245153   6.207   0.635  13.491  0.2473 -0.0200 -0.4969
 7913TIP3    H145154   6.115   0.624  13.517  0.8298 -0.3145  1.6740
 7913TIP3    H245155   6.203   0.691  13.414 -1.8679 -2.0941 -2.0498
 7914TIP3   OH245156   6.608   6.551  16.124  0.4076 -0.0888 -0.6113
 7914TIP3    H145157   6.534   6.506  16.165 -0.7637  1.2223 -1.2161
 7914TIP3    H245158   6.629   6.622  16.185 -1.2353  1.7712 -2.0559
 7915TIP3   OH245159   3.303   4.868  12.704  0.0110 -0.3261  0.5831
 7915TIP3    H145160   3.225   4.921  12.718  1.0141  1.1624  0.8143
 7915TIP3    H245161   3.345   4.907  12.627  0.1685 -1.5501  0.0305
 7916TIP3   OH245162   5.270   6.710  12.794 -0.1689  0.2802  0.2418
 7916TIP3    H145163   5.292   6.759  12.715  0.6789  1.3734  1.1086
 7916TIP3    H245164   5.288   6.771  12.866  1.5325 -1.4611  1.4229
 7917TIP3   OH245165   5.524   6.132  13.624 -0.5396 -0.4938 -0.0815
 7917TIP3    H145166   5.560   6.202  13.570 -0.8683  0.9885  1.5369
 7917TIP3    H245167   5.599   6.098  13.673 -1.0109  2.0381  2.6751
 7918TIP3   OH245168   5.978   0.519  17.287  0.1876 -0.3695 -0.1372
 7918TIP3    H145169   5.956   0.585  17.352  0.7658  0.3665 -0.6827
 7918TIP3    H245170   5.976   0.565  17.204 -0.3635 -1.2616 -0.6317
 7919TIP3   OH245171   0.380   1.629  12.484 -0.7551  0.1674 -0.0553
 7919TIP3    H145172   0.466   1.669  12.475 -0.8338  0.0620 -1.4896
 7919TIP3    H245173   0.374   1.606  12.577  0.1214  1.5853  0.3938
 7920TIP3   OH245174   3.282   3.731   0.724 -0.8043 -0.3889 -0.0358
 7920TIP3    H145175   3.228   3.809   0.711 -3.0485 -1.6118  1.2825
 7920TIP3    H245176   3.290   3.723   0.819  0.3411 -1.1859 -0.1755
 7921TIP3   OH245177   4.606   5.231  12.240 -0.0833  0.1826 -0.4220
 7921TIP3    H145178   4.530   5.283  12.267  0.3173  0.3050  0.4669
 7921TIP3    H245179   4.646   5.283  12.170  0.1265  0.9080  0.2328
 7922TIP3   OH245180   0.690   6.529  14.699  0.4623  0.3499  0.1875
 7922TIP3    H145181   0.781   6.498  14.690  0.3830  0.2274 -0.2246
 7922TIP3    H245182   0.637   6.451  14.683  0.2983  0.0271  2.0960
 7923TIP3   OH245183   0.243   0.488   5.345  0.1120 -0.3329 -0.2518
 7923TIP3    H145184   0.191   0.530   5.414  3.1116  0.3079  1.7957
 7923TIP3    H245185   0.273   0.406   5.385  0.0260 -1.1058 -1.6970
 7924TIP3   OH245186   4.040   4.192  14.158 -0.0674 -0.0221 -0.1402
 7924TIP3    H145187   3.976   4.144  14.106  1.4846 -2.1007 -0.2672
 7924TIP3    H245188   4.015   4.174  14.249 -0.1259 -0.2146 -0.1935
 7925TIP3   OH245189   1.112   4.364  13.495  0.0465 -0.6839  0.0308
 7925TIP3    H145190   1.053   4.387  13.567 -0.0445  1.8468 -0.7478
 7925TIP3    H245191   1.080   4.280  13.463 -1.1176 -0.9176  1.6807
 7926TIP3   OH245192   2.463   5.792   1.879 -0.4371 -0.5598  0.1898
 7926TIP3    H145193   2.513   5.717   1.848  2.0963 -0.4601  3.5027
 7926TIP3    H245194   2.430   5.764   1.965 -1.3208  1.3627  0.5246
 7927TIP3   OH245195   1.072   6.323   2.630 -0.3180 -0.3557 -0.7613
 7927TIP3    H145196   1.023   6.289   2.555  0.4460 -0.3680 -1.2694
 7927TIP3    H245197   1.079   6.249   2.690 -3.1655  0.3051  0.5597
 7928TIP3   OH245198   4.765   6.282  14.069  0.0134  0.1157  0.3464
 7928TIP3    H145199   4.761   6.191  14.100  0.0068  0.0231  0.0794
 7928TIP3    H245200   4.699   6.286  13.999  1.1029 -0.1047 -0.7361
 7929TIP3   OH245201   1.178   0.749  16.467 -0.6498 -0.2668  0.1371
 7929TIP3    H145202   1.094   0.726  16.428  0.2741 -2.2987 -0.8324
 7929TIP3    H245203   1.224   0.665  16.474  1.4628  0.8441  0.2366
 7930TIP3   OH245204   1.616   2.249   3.450  0.0151  0.4346  0.1598
 7930TIP3    H145205   1.616   2.216   3.360 -1.4909  0.0634  0.2744
 7930TIP3    H245206   1.525   2.274   3.466 -0.1604 -1.2728  2.2010
 7931TIP3   OH245207   3.339   0.596  16.664 -0.3306  0.6845 -0.2268
 7931TIP3    H145208   3.324   0.536  16.591  0.3003  0.1293  0.0811
 7931TIP3    H245209   3.391   0.545  16.727  0.6580  1.7032 -0.1776
 7932TIP3   OH245210   4.141   2.933   4.467 -0.1126 -0.9333 -0.0948
 7932TIP3    H145211   4.068   2.948   4.528 -0.3988 -0.1361 -0.6189
 7932TIP3    H245212   4.108   2.962   4.383  0.8328 -0.5192 -0.3355
 7933TIP3   OH245213   3.234   5.961  15.414  0.0268 -0.0018  0.0998
 7933TIP3    H145214   3.318   5.969  15.460 -0.1367  1.3631  0.2093
 7933TIP3    H245215   3.172   6.008  15.470 -0.0565  2.2309 -1.7198
 7934TIP3   OH245216   6.273   1.461  15.035 -0.0357  0.1264 -0.4050
 7934TIP3    H145217   6.317   1.517  15.099 -2.3425  0.6783  0.8106
 7934TIP3    H245218   6.312   1.486  14.951  0.9367  1.5670  0.4279
 7935TIP3   OH245219   1.604   0.533   4.881  0.1781  0.0232  0.5273
 7935TIP3    H145220   1.629   0.527   4.973  0.2122  0.2804  0.5350
 7935TIP3    H245221   1.513   0.561   4.883  0.4406  0.9095  0.4714
 7936TIP3   OH245222   2.222   5.400  16.818 -0.5854  0.3977 -0.1576
 7936TIP3    H145223   2.249   5.314  16.785 -2.4765  0.1506 -1.1575
 7936TIP3    H245224   2.225   5.457  16.741 -1.2353  0.7532  0.0736
 7937TIP3   OH245225   0.369   6.074   4.744  0.0181 -0.4309  0.4377
 7937TIP3    H145226   0.415   6.158   4.746  1.3025 -1.0772 -0.2099
 7937TIP3    H245227   0.322   6.070   4.827 -1.1327  1.4797 -0.0635
 7938TIP3   OH245228   0.747   3.444  11.474  0.0271  0.3372 -0.1566
 7938TIP3    H145229   0.724   3.537  11.464 -2.6117 -0.3259 -1.0862
 7938TIP3    H245230   0.802   3.442  11.552  0.6264  2.7450 -0.4129
 7939TIP3   OH245231   2.255   0.283  14.131  0.8095 -0.1169 -0.1844
 7939TIP3    H145232   2.349   0.300  14.134  0.9365 -0.8351  0.1411
 7939TIP3    H245233   2.247   0.190  14.151  0.0671 -0.1868 -0.7515
 7940TIP3   OH245234   4.473   0.482   4.582 -0.1691 -1.0541 -0.0536
 7940TIP3    H145235   4.426   0.441   4.509 -0.3516  0.6311 -0.9243
 7940TIP3    H245236   4.565   0.469   4.561 -0.2175 -0.4222 -0.6971
 7941TIP3   OH245237   6.375   0.346   1.469  0.2250  0.2105 -0.6037
 7941TIP3    H145238   6.289   0.335   1.429  0.0413 -0.8834  0.0612
 7941TIP3    H245239   6.434   0.299   1.410 -0.1794 -2.2535  0.8089
 7942TIP3   OH245240   0.682   2.825   4.145  0.2113 -0.1838  0.2592
 7942TIP3    H145241   0.691   2.788   4.232 -0.5649  1.0672  0.8969
 7942TIP3    H245242   0.772   2.847   4.119  0.6361 -2.0023  0.0487
 7943TIP3   OH245243   2.490   2.847  13.016 -0.4435  0.3343  0.0954
 7943TIP3    H145244   2.564   2.899  13.048 -0.6580  0.4333  0.4376
 7943TIP3    H245245   2.460   2.798  13.093 -0.3857 -0.1271 -0.1725
 7944TIP3   OH245246   6.473   0.094  15.352  0.0253  0.4471 -0.0823
 7944TIP3    H145247   6.464   0.019  15.412  1.8040  1.7959  2.0312
 7944TIP3    H245248   6.431   0.166  15.399  3.9661  2.2313  1.0645
 7945TIP3   OH245249   5.428   1.978   3.609 -0.2462 -0.1261 -0.0121
 7945TIP3    H145250   5.444   2.060   3.655 -1.1748 -0.4979  1.0384
 7945TIP3    H245251   5.477   1.986   3.527 -1.9776  2.3442 -0.9269
 7946TIP3   OH245252   3.081   0.833   4.707 -0.0191 -0.7466  0.0523
 7946TIP3    H145253   3.145   0.882   4.760 -0.4002  1.6368 -1.5413
 7946TIP3    H245254   3.017   0.899   4.681 -1.7956 -2.5939 -0.4360
 7947TIP3   OH245255   1.641   3.153   2.650  0.5473  0.3099 -0.1232
 7947TIP3    H145256   1.561   3.107   2.626  1.2335 -2.0289  1.6775
 7947TIP3    H245257   1.624   3.184   2.740  1.1299  1.1527 -0.2901
 7948TIP3   OH245258   1.575   0.952   1.030  0.0911  0.1073 -0.4691
 7948TIP3    H145259   1.550   0.927   1.118  0.2725  0.5389 -0.2938
 7948TIP3    H245260   1.512   0.907   0.973 -0.6468  0.6243 -0.0738
 7949TIP3   OH245261   5.385   2.490   0.274  0.7034 -0.5820 -0.0721
 7949TIP3    H145262   5.403   2.467   0.182 -0.6391  0.8098 -0.7201
 7949TIP3    H245263   5.388   2.585   0.276 -1.0682 -0.5001  0.9192
 7950TIP3   OH245264   5.721   6.126  12.775 -0.5857  0.1998  0.2518
 7950TIP3    H145265   5.787   6.069  12.815 -0.0564  0.8969  0.3967
 7950TIP3    H245266   5.637   6.092  12.807 -0.2001  0.4801  1.6391
 7951TIP3   OH245267   3.519   0.373   6.508  0.1092 -0.2880 -0.0679
 7951TIP3    H145268   3.567   0.420   6.441  0.4354  0.8187  0.9061
 7951TIP3    H245269   3.429   0.368   6.474 -0.1721  1.9203  0.1868
 7952TIP3   OH245270   2.343   3.328   2.358  0.8373  0.5953 -0.1104
 7952TIP3    H145271   2.428   3.372   2.358  1.1695  0.4281  4.4937
 7952TIP3    H245272   2.346   3.271   2.434 -2.6971 -1.0426 -1.0194
 7953TIP3   OH245273   5.836   6.325  13.851  0.5132  0.4088 -0.3609
 7953TIP3    H145274   5.842   6.253  13.788 -0.0948  0.2835 -0.2791
 7953TIP3    H245275   5.834   6.404  13.798 -0.1487  0.2974 -0.5142
 7954TIP3   OH245276   0.848   5.084  17.221  0.2614  0.1778 -0.1611
 7954TIP3    H145277   0.897   5.072  17.139 -1.4801 -2.3087 -0.9516
 7954TIP3    H245278   0.909   5.057  17.289  0.2996 -2.2682 -1.0746
 7955TIP3   OH245279   4.516   0.609  10.793  0.1287  0.6529 -0.4569
 7955TIP3    H145280   4.592   0.642  10.841 -0.1756 -0.5426  0.8995
 7955TIP3    H245281   4.552   0.568  10.715  0.6768  2.0269 -0.9666
 7956TIP3   OH245282   1.335   0.121   0.893  0.7303  0.3963  0.3568
 7956TIP3    H145283   1.320   0.183   0.964  1.0306  0.9996 -0.1019
 7956TIP3    H245284   1.419   0.080   0.914  2.1689  2.4727 -0.9792
 7957TIP3   OH245285   2.278   1.663   1.733  0.3641  0.1929 -0.1075
 7957TIP3    H145286   2.311   1.735   1.680 -0.8026 -0.1878 -1.4208
 7957TIP3    H245287   2.184   1.680   1.740 -0.0638 -1.5454 -1.0511
 7958TIP3   OH245288   2.246   0.982  16.821  0.1964  0.1801  0.4067
 7958TIP3    H145289   2.151   0.975  16.818  0.0005  2.5495 -1.8838
 7958TIP3    H245290   2.277   0.918  16.757  0.1941 -0.7010  1.2643
 7959TIP3   OH245291   0.234   5.616  17.155  0.2871  0.1605 -0.2481
 7959TIP3    H145292   0.153   5.641  17.200 -0.0255  1.7196 -1.5596
 7959TIP3    H245293   0.221   5.524  17.131 -0.8325  0.2072  0.1197
 7960TIP3   OH245294   2.105   5.825   2.062  0.2883 -0.1884  0.2523
 7960TIP3    H145295   2.186   5.869   2.036 -0.2297 -0.5622 -2.1653
 7960TIP3    H245296   2.042   5.847   1.994 -1.1731 -1.3099  1.1749
 7961TIP3   OH245297   4.052   4.500   2.736  0.4172 -0.0982  0.0501
 7961TIP3    H145298   3.972   4.509   2.787 -0.1167 -0.7768 -0.6394
 7961TIP3    H245299   4.123   4.506   2.800 -0.1048  1.9479  0.4809
 7962TIP3   OH245300   0.843   2.920  17.027 -0.2121  0.0300 -0.3079
 7962TIP3    H145301   0.813   2.992  16.971 -0.4310  0.4386  0.3229
 7962TIP3    H245302   0.814   2.945  17.114  1.5439  0.1932  0.2569
 7963TIP3   OH245303   1.778   4.342  15.333  0.1150  0.1713  0.2777
 7963TIP3    H145304   1.779   4.254  15.371 -0.0399  0.6182  1.3761
 7963TIP3    H245305   1.870   4.360  15.313  0.3365  0.2404  1.2673
 7964TIP3   OH245306   1.474   2.772  11.337  0.0333 -0.2538 -0.0216
 7964TIP3    H145307   1.380   2.760  11.341 -0.1014  0.6649 -0.2903
 7964TIP3    H245308   1.506   2.740  11.422 -0.6399  0.4855  0.5194
 7965TIP3   OH245309   6.229   3.753   2.537  1.0746 -0.6974  0.2782
 7965TIP3    H145310   6.152   3.809   2.542  1.5939 -0.0631  1.5647
 7965TIP3    H245311   6.296   3.808   2.496  0.9084 -1.2038 -0.7166
 7966TIP3   OH245312   6.591   4.131  14.591  0.4308 -0.8030 -0.7851
 7966TIP3    H145313   6.552   4.217  14.609  0.5826 -1.1598  1.5171
 7966TIP3    H245314   6.595   4.126  14.495  1.5888  2.2792 -1.0146
 7967TIP3   OH245315   4.660   3.218   4.914  0.1207 -0.5559 -0.3493
 7967TIP3    H145316   4.661   3.286   4.847  1.2783  0.5156  0.7214
 7967TIP3    H245317   4.567   3.199   4.927 -0.1755  0.1613 -1.2940
 7968TIP3   OH245318   0.681   2.898   1.223  0.0460  0.1831 -0.1726
 7968TIP3    H145319   0.712   2.871   1.137  1.5838  2.0264 -0.2666
 7968TIP3    H245320   0.595   2.937   1.207  0.0395 -0.0655 -0.7721
 7969TIP3   OH245321   1.123   6.695   1.060 -0.1169  0.0245  0.3626
 7969TIP3    H145322   1.050   6.688   1.121 -1.4867 -1.1073 -1.3008
 7969TIP3    H245323   1.193   6.644   1.100 -0.5622  0.2734  1.5059
 7970TIP3   OH245324   0.016   5.986   5.031 -0.1818 -0.0432  0.4679
 7970TIP3    H145325  -0.043   5.935   4.975 -1.8405  0.6000  1.5611
 7970TIP3    H245326   0.051   5.922   5.092 -0.6874 -0.2385  0.5620
 7971TIP3   OH245327   5.811   6.217  16.249 -0.3925 -0.0330  0.1231
 7971TIP3    H145328   5.771   6.157  16.185 -1.6908 -1.6434  2.2773
 7971TIP3    H245329   5.766   6.300  16.235  0.0742 -0.0386 -1.6716
 7972TIP3   OH245330   3.457   2.629  13.978  0.3820  0.1568 -0.0064
 7972TIP3    H145331   3.491   2.562  13.919 -1.4142  0.0657 -1.0178
 7972TIP3    H245332   3.362   2.619  13.974  0.1553  0.6981  2.2987
 7973TIP3   OH245333   1.417   2.692  10.564  0.1331  0.0170 -0.1332
 7973TIP3    H145334   1.368   2.750  10.623 -0.5246  0.1920 -0.8335
 7973TIP3    H245335   1.353   2.666  10.498  0.6186 -0.9293 -0.2418
 7974TIP3   OH245336   5.676   2.070  14.631  1.2141  0.8219  0.3491
 7974TIP3    H145337   5.640   2.141  14.685 -1.1447  0.1256 -0.2071
 7974TIP3    H245338   5.678   1.994  14.689  1.9286  0.8662  0.3946
 7975TIP3   OH245339   5.308   3.506   4.622 -0.5588 -0.0357 -1.4287
 7975TIP3    H145340   5.310   3.515   4.718 -1.9897  0.5912 -1.4187
 7975TIP3    H245341   5.262   3.424   4.607 -0.7205  0.0817 -1.5771
 7976TIP3   OH245342   6.717   4.007  17.376  0.2403 -0.1097 -0.2829
 7976TIP3    H145343   6.741   4.098  17.364  1.8934 -0.5010 -0.1636
 7976TIP3    H245344   6.762   3.980  17.457 -0.5586 -0.9191 -0.0827
 7977TIP3   OH245345   2.854   4.382  16.456  0.1176 -0.1281 -0.5002
 7977TIP3    H145346   2.803   4.458  16.429  2.3772  1.7784  0.2259
 7977TIP3    H245347   2.942   4.399  16.422  1.2936 -1.1617  1.7488
 7978TIP3   OH245348   5.508   3.730   0.042 -0.2977 -0.0612  0.1114
 7978TIP3    H145349   5.582   3.754   0.098 -1.4097 -1.8897  2.6094
 7978TIP3    H245350   5.542   3.661  -0.015  0.2866  0.1675  0.1767
 7979TIP3   OH245351   6.717   2.293   4.790  0.0051 -0.7177  0.1574
 7979TIP3    H145352   6.759   2.331   4.713 -2.5160  1.1941 -0.4007
 7979TIP3    H245353   6.717   2.364   4.854  0.6277 -1.7827  1.3868
 7980TIP3   OH245354   2.346   0.524  11.151  0.2369 -0.4534  0.3102
 7980TIP3    H145355   2.276   0.519  11.085  1.3866 -0.7844 -0.9426
 7980TIP3    H245356   2.400   0.446  11.133  2.1565  0.9238 -0.2430
 7981TIP3   OH245357   5.767   3.314   3.299  0.1592  0.1435  0.1879
 7981TIP3    H145358   5.827   3.387   3.281  0.7534  0.2913  2.4535
 7981TIP3    H245359   5.681   3.348   3.276  0.2112  2.2367  2.5969
 7982TIP3   OH245360   0.159   1.677   5.996  0.5398 -0.9656 -0.0658
 7982TIP3    H145361   0.125   1.622   6.066  1.0447 -0.5703  0.4995
 7982TIP3    H245362   0.210   1.744   6.041  0.8586 -0.6977 -0.8121
 7983TIP3   OH245363   3.102   2.217  15.290  0.4213  0.9102  0.1811
 7983TIP3    H145364   3.013   2.222  15.253 -0.6799  3.2931  2.7401
 7983TIP3    H245365   3.159   2.203  15.214 -2.1117 -1.0563 -1.5270
 7984TIP3   OH245366   6.233   5.369  15.354  0.5345  0.3320  0.4519
 7984TIP3    H145367   6.157   5.373  15.413  0.8064  1.2731  0.7578
 7984TIP3    H245368   6.309   5.368  15.412  0.7708 -0.0693  0.1371
 7985TIP3   OH245369   4.020   0.755  14.357 -0.0664 -0.0103  0.1956
 7985TIP3    H145370   4.047   0.694  14.288 -1.1545  1.9551 -2.0976
 7985TIP3    H245371   4.101   0.800  14.382  0.6885 -2.0512  1.6824
 7986TIP3   OH245372   5.002   5.041  14.273 -0.0998  0.7758  0.0450
 7986TIP3    H145373   5.064   5.063  14.343 -1.2532  0.9371  1.0359
 7986TIP3    H245374   5.024   4.950  14.250  1.2567  1.1950 -0.4567
 7987TIP3   OH245375   1.393   1.788  16.422 -0.1191  0.1968 -0.0005
 7987TIP3    H145376   1.484   1.768  16.399 -0.1211 -0.3186  0.4220
 7987TIP3    H245377   1.362   1.843  16.350 -0.3691 -2.0073 -1.6818
 7988TIP3   OH245378   5.696   3.781  10.526 -0.0971 -0.5422 -0.3088
 7988TIP3    H145379   5.678   3.864  10.482  0.7954 -0.8135 -1.2316
 7988TIP3    H245380   5.642   3.784  10.605 -1.9045 -0.1135 -1.4820
 7989TIP3   OH245381   5.442   5.016   4.256 -0.0546 -0.3696  0.5793
 7989TIP3    H145382   5.407   4.930   4.281 -2.3228 -0.6567 -2.8749
 7989TIP3    H245383   5.452   5.011   4.161  2.9804  2.1657  0.6160
 7990TIP3   OH245384   3.694   3.951   3.257 -0.1795  0.2827  0.5421
 7990TIP3    H145385   3.785   3.922   3.252  0.1189  1.1828  0.5688
 7990TIP3    H245386   3.643   3.878   3.221  0.5762 -0.0658  0.1663
 7991TIP3   OH245387   6.479   6.000  17.155 -0.1192  0.7518  0.0733
 7991TIP3    H145388   6.541   5.953  17.100 -1.0398  0.3139 -0.6333
 7991TIP3    H245389   6.483   6.090  17.124  0.1666  0.7226  0.0259
 7992TIP3   OH245390   2.311   2.436   6.215  0.0828 -0.8582 -0.2216
 7992TIP3    H145391   2.393   2.393   6.190 -1.4908 -2.7734 -2.4419
 7992TIP3    H245392   2.336   2.528   6.228  2.7126 -1.5369  0.1089
 7993TIP3   OH245393   3.769   0.329   6.232 -0.6208  0.6682 -0.1674
 7993TIP3    H145394   3.690   0.382   6.220 -0.4983  1.7488  2.8202
 7993TIP3    H245395   3.736   0.244   6.260 -0.8396  1.3675  1.9170
 7994TIP3   OH245396   0.676   4.905   1.163  0.2135 -0.1277  0.1745
 7994TIP3    H145397   0.700   4.813   1.150 -0.2492 -0.0372 -1.7884
 7994TIP3    H245398   0.706   4.949   1.083  0.3231  1.4233  1.0230
 7995TIP3   OH245399   1.502   0.313   3.226 -0.7474  0.3384  0.7290
 7995TIP3    H145400   1.484   0.330   3.133  1.1404  1.0275  0.4562
 7995TIP3    H245401   1.500   0.400   3.266 -1.5998  0.0366  1.3707
 7996TIP3   OH245402   2.593   0.579  15.623  0.3669 -0.0557  0.2974
 7996TIP3    H145403   2.554   0.531  15.696  0.2349  0.9967  0.9326
 7996TIP3    H245404   2.625   0.660  15.662  1.3511  0.0046 -0.6048
 7997TIP3   OH245405   1.103   4.633  11.057 -0.1735  0.1355  0.1702
 7997TIP3    H145406   1.014   4.602  11.038 -0.4354 -0.0747  1.6382
 7997TIP3    H245407   1.158   4.590  10.992 -1.1125  0.0743 -0.6021
 7998TIP3   OH245408   5.378   1.649   4.137  0.0996 -0.1130 -0.0395
 7998TIP3    H145409   5.334   1.727   4.171  0.5567  0.8998 -1.6591
 7998TIP3    H245410   5.445   1.683   4.077 -0.0892 -1.7518 -1.2608
 7999TIP3   OH245411   4.093   3.165   1.714 -0.0937 -0.0604  0.1650
 7999TIP3    H145412   4.078   3.231   1.647 -0.1121 -0.2196  0.0139
 7999TIP3    H245413   4.011   3.117   1.720 -0.1638  0.0922  0.4543
 8000TIP3   OH245414   0.027   2.392  11.738 -0.0207  0.0274 -0.1560
 8000TIP3    H145415   0.103   2.448  11.730 -0.1938  0.2832 -0.0189
 8000TIP3    H245416   0.045   2.338  11.815 -0.3116  0.6148  0.3358
 8001TIP3   OH245417   5.762   4.488  12.451 -0.4198  0.0511 -0.7911
 8001TIP3    H145418   5.671   4.518  12.456 -0.1091  1.1547 -1.2878
 8001TIP3    H245419   5.770   4.451  12.363 -0.8608 -1.7814 -0.1009
 8002TIP3   OH245420   1.295   6.408   3.912 -0.1240  0.0088  0.3106
 8002TIP3    H145421   1.310   6.332   3.967  0.5181  0.0866  0.2576
 8002TIP3    H245422   1.382   6.448   3.902 -0.3034  0.2479 -0.3859
 8003TIP3   OH245423   6.484   1.329   4.850 -0.6383 -0.0859 -0.4429
 8003TIP3    H145424   6.418   1.292   4.791  1.0161  0.0672 -2.5094
 8003TIP3    H245425   6.508   1.412   4.810 -1.3242  1.3567  1.9289
 8004TIP3   OH245426   1.513   2.454  14.193 -0.6725 -0.1876 -0.1285
 8004TIP3    H145427   1.590   2.462  14.249 -0.0023 -2.6064 -0.5843
 8004TIP3    H245428   1.548   2.439  14.105 -1.6476 -0.9132 -0.4158
 8005TIP3   OH245429   1.445   0.817  11.290  0.2395  0.0128  0.1885
 8005TIP3    H145430   1.378   0.795  11.226  0.7765  0.9017 -0.7132
 8005TIP3    H245431   1.525   0.774  11.257  1.0573  2.2890 -1.0414
 8006TIP3   OH245432   1.603   6.694   3.124  0.2127  0.3249 -0.5352
 8006TIP3    H145433   1.635   6.616   3.079  0.6547  0.8704 -1.2014
 8006TIP3    H245434   1.640   6.688   3.212 -1.1934 -1.0862  0.0055
 8007TIP3   OH245435   3.299   4.106  17.104  0.3681 -0.7863  0.4140
 8007TIP3    H145436   3.368   4.074  17.045  1.4720  0.3579  1.0335
 8007TIP3    H245437   3.332   4.189  17.137 -0.7672 -0.8093  1.7166
 8008TIP3   OH245438   3.076   2.221   3.433  0.6028 -0.2301 -0.1387
 8008TIP3    H145439   3.083   2.316   3.422  1.8014 -0.3329 -0.4696
 8008TIP3    H245440   3.092   2.206   3.526  0.2193 -0.0978 -0.0495
 8009TIP3   OH245441   1.756   2.391   2.121  0.4211 -0.5564 -0.1778
 8009TIP3    H145442   1.782   2.395   2.029 -0.6018 -0.7563 -0.4860
 8009TIP3    H245443   1.732   2.481   2.143 -0.4042 -0.7131 -0.4307
 8010TIP3   OH245444   4.452   3.420   0.942  0.1209  0.0649 -0.2541
 8010TIP3    H145445   4.383   3.484   0.959 -0.0290 -0.0994 -0.2423
 8010TIP3    H245446   4.521   3.442   1.004  0.5625  0.9488 -1.0190
 8011TIP3   OH245447   5.928   3.568   2.284  0.5913  0.7238 -0.0217
 8011TIP3    H145448   6.009   3.545   2.330  0.1471  1.7203  1.3290
 8011TIP3    H245449   5.858   3.527   2.336  0.2073 -0.1689 -1.2021
 8012TIP3   OH245450   1.130   2.685   1.507 -0.1806 -0.5197  0.1519
 8012TIP3    H145451   1.150   2.630   1.583  0.5061  0.0139  0.3640
 8012TIP3    H245452   1.058   2.741   1.535 -0.6634 -1.0795  0.0427
 8013TIP3   OH245453   5.623   0.894  13.816 -0.0976 -0.3512 -0.2215
 8013TIP3    H145454   5.603   0.974  13.767  1.7980  0.7973  0.7434
 8013TIP3    H245455   5.585   0.824  13.763 -1.7327  1.1448 -1.1658
 8014TIP3   OH245456   2.408   1.003   2.871 -0.3629  0.4728 -0.2052
 8014TIP3    H145457   2.400   0.908   2.865  0.8599  0.2758  0.8666
 8014TIP3    H245458   2.502   1.019   2.863 -0.5775  1.6215 -0.5834
 8015TIP3   OH245459   4.220   3.220  12.134  0.0623  0.2788 -0.2494
 8015TIP3    H145460   4.237   3.265  12.051 -1.3084 -0.8876 -1.2132
 8015TIP3    H245461   4.266   3.137  12.126 -1.2180 -0.4316 -0.4557
 8016TIP3   OH245462   6.654   5.921   4.337  0.3081 -0.1193  0.1361
 8016TIP3    H145463   6.583   5.862   4.361 -1.1374  1.6608  0.4610
 8016TIP3    H245464   6.719   5.912   4.406 -0.1811 -0.8584  0.4989
 8017TIP3   OH245465   0.776   0.917  13.499  0.1051  0.3249  0.2972
 8017TIP3    H145466   0.731   0.899  13.581  0.9983 -0.8396  0.5542
 8017TIP3    H245467   0.706   0.933  13.436 -0.6156  0.0067  1.0076
 8018TIP3   OH245468   1.843   2.274   1.186 -0.4148 -0.2830  0.1480
 8018TIP3    H145469   1.834   2.369   1.175  1.6811 -0.1089 -0.3517
 8018TIP3    H245470   1.780   2.253   1.255 -0.9471  1.4601  0.2643
 8019TIP3   OH245471   0.975   1.391  11.317 -0.2111  0.3881  0.3518
 8019TIP3    H145472   1.008   1.415  11.231 -1.1647  2.2011  0.4437
 8019TIP3    H245473   1.023   1.312  11.340 -0.6507 -0.7393 -2.2637
 8020TIP3   OH245474   3.681   1.768  17.327 -0.6009  0.3053  0.2767
 8020TIP3    H145475   3.662   1.856  17.293 -0.2427  0.5227  0.6191
 8020TIP3    H245476   3.626   1.710  17.276 -1.1339  0.7704  0.3027
 8021TIP3   OH245477   2.732   0.855   5.422  0.0307 -0.1184 -0.4476
 8021TIP3    H145478   2.694   0.772   5.451  0.6924 -0.0319  0.6963
 8021TIP3    H245479   2.825   0.848   5.442 -0.1553  1.5217  1.2169
 8022TIP3   OH245480   5.719   6.676   5.367  0.5676 -0.0984  0.1334
 8022TIP3    H145481   5.783   6.739   5.401  2.5595 -1.1680 -1.3838
 8022TIP3    H245482   5.739   6.595   5.413  0.0365 -0.3515 -0.0733
 8023TIP3   OH245483   5.430   2.724   1.146  0.0093 -0.0496 -0.1200
 8023TIP3    H145484   5.501   2.661   1.135 -1.1196 -1.4279  0.2226
 8023TIP3    H245485   5.424   2.768   1.061 -0.9310 -2.3283 -1.3061
 8024TIP3   OH245486   2.673   6.622   6.004 -0.0336  0.0074 -0.8627
 8024TIP3    H145487   2.687   6.605   6.097  0.7082 -2.5237 -1.3642
 8024TIP3    H245488   2.744   6.680   5.979  1.5920 -1.7226 -0.4481
 8025TIP3   OH245489   3.273   6.632   2.312 -0.8132  0.0573 -0.1046
 8025TIP3    H145490   3.367   6.619   2.300 -1.0188 -1.3947 -0.2907
 8025TIP3    H245491   3.250   6.572   2.384 -1.1419  2.3242  1.8039
 8026TIP3   OH245492   4.625   5.121   0.171 -0.0938 -0.4184  0.5817
 8026TIP3    H145493   4.578   5.042   0.146  1.1526 -0.7924 -0.7566
 8026TIP3    H245494   4.717   5.093   0.177  0.4268  1.0013 -0.3347
 8027TIP3   OH245495   3.381   5.713  16.471  0.0246 -0.3616  0.0683
 8027TIP3    H145496   3.291   5.691  16.448  0.1566 -0.2737 -0.5405
 8027TIP3    H245497   3.380   5.720  16.567 -0.2435 -1.9864  0.2118
 8028TIP3   OH245498   3.779   0.013   1.516  0.3383 -0.0217 -0.3721
 8028TIP3    H145499   3.849   0.077   1.531  1.2955 -0.7294 -1.6358
 8028TIP3    H245500   3.804  -0.062   1.570 -0.2100  0.2512  0.2708
 8029TIP3   OH245501   4.620   3.671   6.243 -0.2352  0.8618 -0.2655
 8029TIP3    H145502   4.691   3.729   6.269 -0.3547  0.2702  1.5579
 8029TIP3    H245503   4.545   3.701   6.294 -0.4857 -0.3828  0.1432
 8030TIP3   OH245504   5.983   6.614  11.682  0.1345 -0.2898 -0.5214
 8030TIP3    H145505   5.931   6.685  11.720 -0.0176 -0.6696 -0.0065
 8030TIP3    H245506   6.047   6.592  11.749 -1.1378 -2.0402  0.2224
 8031TIP3   OH245507   3.172   5.225  12.606  0.3407 -0.4587  0.3127
 8031TIP3    H145508   3.260   5.192  12.586  1.0589  1.0966  0.7555
 8031TIP3    H245509   3.173   5.315  12.575 -1.5093 -0.7579 -0.7277
 8032TIP3   OH245510   3.050   1.829  16.615 -0.2061  0.0343  1.1885
 8032TIP3    H145511   2.996   1.905  16.636 -0.6556  1.0533 -2.8749
 8032TIP3    H245512   2.991   1.754  16.627 -0.7162  0.5867  2.2827
 8033TIP3   OH245513   5.589   4.838  17.273  0.4914 -0.3622  0.4310
 8033TIP3    H145514   5.560   4.802  17.189  1.1608  0.1223 -0.0221
 8033TIP3    H245515   5.596   4.762  17.331  0.3736 -0.7479 -0.0508
 8034TIP3   OH245516   2.283   5.292  13.557  0.1219 -0.1963 -0.8211
 8034TIP3    H145517   2.222   5.358  13.590 -0.6160 -1.2962  0.0932
 8034TIP3    H245518   2.366   5.312  13.601 -0.1486  0.0107 -0.3985
 8035TIP3   OH245519   6.723   5.943  11.878 -0.4246  0.3056 -0.2362
 8035TIP3    H145520   6.647   5.999  11.862 -0.0630  0.7308 -0.5085
 8035TIP3    H245521   6.781   5.960  11.803  0.6644  1.2376  0.7665
 8036TIP3   OH245522   4.259   1.141   2.282  0.0205  0.2249 -0.2513
 8036TIP3    H145523   4.208   1.070   2.322 -0.8073  0.9060 -0.0797
 8036TIP3    H245524   4.252   1.127   2.188 -0.6055  0.3928 -0.2320
 8037TIP3   OH245525   4.826   0.053  16.519 -0.3626 -0.0462 -0.1849
 8037TIP3    H145526   4.840   0.089  16.432  1.9377 -1.0837 -0.3289
 8037TIP3    H245527   4.837   0.128  16.578  1.3025  0.1175 -0.6448
 8038TIP3   OH245528   4.145   0.621   1.782 -0.0481  0.0349  0.0520
 8038TIP3    H145529   4.182   0.709   1.788  0.4749 -0.2687  1.4883
 8038TIP3    H245530   4.194   0.579   1.712 -0.5336  0.9751 -0.8867
 8039TIP3   OH245531   3.501   2.426   4.267 -0.1262 -0.0110 -0.1220
 8039TIP3    H145532   3.513   2.503   4.322  1.1754 -0.7572  0.6983
 8039TIP3    H245533   3.426   2.380   4.304 -0.1413  0.2314  0.1505
 8040TIP3   OH245534   1.721   1.114   2.091 -0.2158  0.0645  0.1063
 8040TIP3    H145535   1.794   1.127   2.151 -1.9866  0.5913  2.3202
 8040TIP3    H245536   1.761   1.099   2.006  2.4235  0.5106  1.1834
 8041TIP3   OH245537   3.644   0.769   0.780 -0.4125  0.4954  0.5990
 8041TIP3    H145538   3.699   0.789   0.704  0.4324  0.5073  1.1943
 8041TIP3    H245539   3.706   0.738   0.846 -1.1602  0.3049  1.2206
 8042TIP3   OH245540   0.817   2.251   1.047  0.0109 -0.5796  0.3941
 8042TIP3    H145541   0.819   2.169   0.998 -0.4893 -0.9484  0.9770
 8042TIP3    H245542   0.906   2.263   1.079 -0.0857 -1.3144  0.9669
 8043TIP3   OH245543   0.416   5.082   1.498 -0.7535 -0.2661  0.6160
 8043TIP3    H145544   0.352   5.015   1.476  0.6817 -1.4305 -0.1925
 8043TIP3    H245545   0.463   5.098   1.416  1.4977 -1.1437  1.6713
 8044TIP3   OH245546   6.302   1.518   0.427 -0.0389 -0.3553 -0.0081
 8044TIP3    H145547   6.314   1.497   0.520 -0.4242 -0.0764  0.1070
 8044TIP3    H245548   6.390   1.541   0.397 -0.2432  1.9461  0.8955
 8045TIP3   OH245549   5.140   0.969   3.661 -0.5479 -0.4596  0.1720
 8045TIP3    H145550   5.057   1.016   3.654  0.8575  2.5587  1.4774
 8045TIP3    H245551   5.138   0.928   3.747 -0.4333  0.2256  0.5077
 8046TIP3   OH245552   1.922   1.468   5.846  0.0467 -0.0045  0.6664
 8046TIP3    H145553   1.981   1.393   5.859  1.1541  0.4980 -1.0752
 8046TIP3    H245554   1.980   1.539   5.817 -1.2602  0.8686  0.1077
 8047TIP3   OH245555   5.975   3.635  12.723 -0.0312 -0.1373  0.1768
 8047TIP3    H145556   5.940   3.657  12.637  0.8877  0.4644 -0.0591
 8047TIP3    H245557   6.068   3.620  12.708 -0.0420 -0.9947  0.9069
 8048TIP3   OH245558   1.650   3.516  15.098  0.0808  0.1850  0.0524
 8048TIP3    H145559   1.635   3.604  15.133  0.1340  0.0110  0.5214
 8048TIP3    H245560   1.579   3.502  15.036 -1.5359 -0.4619  1.9369
 8049TIP3   OH245561   0.049   0.446   1.035 -0.1952  0.9746  0.6760
 8049TIP3    H145562   0.115   0.459   1.103  0.7201  0.1273 -0.0331
 8049TIP3    H245563   0.093   0.394   0.968 -2.2682 -1.7756  1.2695
 8050TIP3   OH245564   3.334   6.366   2.004 -0.1960 -0.2992 -0.2452
 8050TIP3    H145565   3.284   6.351   1.923  0.8451  2.6679 -1.5839
 8050TIP3    H245566   3.360   6.278   2.033 -2.1517 -1.5893 -2.0797
 8051TIP3   OH245567   0.874   0.228  15.922 -0.0843 -0.0093 -0.0016
 8051TIP3    H145568   0.795   0.184  15.892  0.3154 -1.4120  0.9072
 8051TIP3    H245569   0.865   0.318  15.890 -0.9234 -0.7257 -1.9186
 8052TIP3   OH245570   6.083   4.171  14.329 -0.6071 -0.2330 -0.4063
 8052TIP3    H145571   6.041   4.092  14.364  1.8195 -0.6376  1.9603
 8052TIP3    H245572   6.022   4.242  14.350 -1.5435 -1.1347  0.0216
 8053TIP3   OH245573   5.757   0.387   0.425 -0.5192 -0.3650 -0.3151
 8053TIP3    H145574   5.761   0.466   0.371 -1.4478 -0.6468 -0.8107
 8053TIP3    H245575   5.847   0.352   0.422 -0.3221  0.1714 -0.8417
 8054TIP3   OH245576   5.792   4.089  15.933 -0.3461  0.2827 -0.3793
 8054TIP3    H145577   5.787   4.184  15.925 -3.3884  0.1220 -1.5860
 8054TIP3    H245578   5.810   4.058  15.844  2.2172 -0.2823  0.2685
 8055TIP3   OH245579   2.761   5.481  15.621  0.1792 -0.4205  0.1491
 8055TIP3    H145580   2.771   5.559  15.567  1.7919 -0.9744 -0.4062
 8055TIP3    H245581   2.817   5.415  15.579  1.7083 -0.8104  2.6014
 8056TIP3   OH245582   6.425   3.967   3.518 -0.4526 -0.2569 -0.6550
 8056TIP3    H145583   6.504   3.962   3.465 -0.8753 -0.5872 -1.2780
 8056TIP3    H245584   6.430   3.892   3.577  0.4693  0.6307  0.4487
 8057TIP3   OH245585   4.261   6.743  16.637  0.1860  0.5853 -0.4095
 8057TIP3    H145586   4.285   6.775  16.550 -0.0825 -0.4293 -0.8646
 8057TIP3    H245587   4.168   6.723  16.630 -0.8095  3.9359  1.1786
 8058TIP3   OH245588   6.307   6.446   5.241 -0.0133 -0.2849  0.0880
 8058TIP3    H145589   6.319   6.510   5.311  1.2607 -1.8098  1.3485
 8058TIP3    H245590   6.310   6.361   5.286  2.1979 -1.3915 -1.9160
 8059TIP3   OH245591   6.574   1.091  11.261  0.0440 -0.3006 -0.2758
 8059TIP3    H145592   6.570   1.091  11.165 -2.0606  0.7664 -0.2412
 8059TIP3    H245593   6.516   1.020  11.288  0.8110 -0.7500  0.2250
 8060TIP3   OH245594   5.731   0.261  16.254 -0.0172 -0.0668 -0.1132
 8060TIP3    H145595   5.745   0.259  16.159  1.7939  0.8520  0.0927
 8060TIP3    H245596   5.814   0.231  16.291 -1.3847 -2.5486  1.2149
 8061TIP3   OH245597   3.275   4.990  13.513 -0.1995  0.9793  0.6127
 8061TIP3    H145598   3.228   4.999  13.431  2.9925 -1.0499 -1.6778
 8061TIP3    H245599   3.329   5.069  13.519  0.7357  0.4192 -0.1453
 8062TIP3   OH245600   5.139   3.139   5.662 -0.0072 -0.5165 -0.2092
 8062TIP3    H145601   5.208   3.175   5.718  0.1223  1.7080 -1.7011
 8062TIP3    H245602   5.185   3.112   5.582 -0.7715  0.8132 -1.1469
 8063TIP3   OH245603   0.967   2.782  11.676 -0.2791  0.1955 -0.0963
 8063TIP3    H145604   0.996   2.693  11.698  0.7913  0.7882  1.0490
 8063TIP3    H245605   0.880   2.771  11.640 -0.2195 -1.3123  0.1645
 8064TIP3   OH245606   0.229   6.681   5.375  0.5780 -0.1315 -0.1068
 8064TIP3    H145607   0.212   6.630   5.454 -1.4466  0.2372 -0.2663
 8064TIP3    H245608   0.145   6.687   5.331  1.5683  0.0296 -2.1100
 8065TIP3   OH245609   5.247   4.509  16.590  0.1381  0.1488  0.3167
 8065TIP3    H145610   5.249   4.559  16.508 -2.5707  0.9761  0.6530
 8065TIP3    H245611   5.270   4.573  16.657 -1.1480  0.4101  0.5272
 8066TIP3   OH245612   0.899   1.664   5.509 -0.2143  0.0300 -0.1560
 8066TIP3    H145613   0.835   1.593   5.503 -0.5407  0.1874  1.2175
 8066TIP3    H245614   0.861   1.725   5.572  1.1067  0.3092  0.3968
 8067TIP3   OH245615   3.560   2.982  16.144  0.3568  0.6988 -0.0629
 8067TIP3    H145616   3.506   2.974  16.065  2.0481  3.0521 -1.5957
 8067TIP3    H245617   3.514   3.048  16.197  1.2623  2.2143 -1.0700
 8068TIP3   OH245618   1.379   4.582  15.986  0.8065 -0.1211  0.2425
 8068TIP3    H145619   1.405   4.670  16.013 -0.8558  0.9693 -1.4279
 8068TIP3    H245620   1.416   4.573  15.897  0.8700 -1.0880  0.3555
 8069TIP3   OH245621   5.121   1.893  10.884 -0.0128 -0.1034 -0.1237
 8069TIP3    H145622   5.179   1.863  10.813 -0.3614  4.0003 -2.4345
 8069TIP3    H245623   5.049   1.937  10.839 -0.5634  2.2581  2.7592
 8070TIP3   OH245624   0.979   3.174   1.568 -0.6175 -0.2118 -0.9127
 8070TIP3    H145625   0.905   3.119   1.541 -0.6236 -0.5719 -0.2000
 8070TIP3    H245626   0.942   3.230   1.637  0.0330 -1.1779  0.2548
 8071TIP3   OH245627   0.377   1.127   0.119  0.1108 -0.1081 -0.5778
 8071TIP3    H145628   0.420   1.042   0.114  0.0341 -0.2653  1.0042
 8071TIP3    H245629   0.327   1.133   0.037  0.7766 -1.2025 -1.0925
 8072TIP3   OH245630   0.119   2.428  17.168 -0.6192  0.7018  0.0822
 8072TIP3    H145631   0.208   2.392  17.174 -0.4855  1.0041 -0.0938
 8072TIP3    H245632   0.091   2.407  17.079 -1.0125 -0.0622  0.3831
 8073TIP3   OH245633   0.782   5.960  10.780 -0.0091 -0.0701  0.4401
 8073TIP3    H145634   0.825   6.036  10.740 -0.6993 -0.4098 -1.0280
 8073TIP3    H245635   0.844   5.888  10.767 -0.2460 -0.1870 -0.0829
 8074TIP3   OH245636   3.791   4.343  13.241 -0.0669 -0.6363 -0.2153
 8074TIP3    H145637   3.840   4.293  13.306 -0.9540  0.0242  0.9894
 8074TIP3    H245638   3.856   4.364  13.173  0.5790 -2.4452 -0.2239
 8075TIP3   OH245639   2.705   2.547  15.823 -0.2170 -0.2932  0.1064
 8075TIP3    H145640   2.657   2.496  15.759  1.2338 -1.8969  0.2122
 8075TIP3    H245641   2.651   2.624  15.839 -0.5135  0.3406 -3.2239
 8076TIP3   OH245642   0.717   1.097  12.792  0.1128 -0.3379  0.1243
 8076TIP3    H145643   0.669   1.147  12.858  1.1597 -0.0073  0.6597
 8076TIP3    H245644   0.697   1.006  12.812 -0.2996 -0.2051  0.3325
 8077TIP3   OH245645   6.508   6.507  16.981 -0.2024  0.1304 -0.4998
 8077TIP3    H145646   6.443   6.491  16.912 -0.8664 -2.3369  0.6017
 8077TIP3    H245647   6.591   6.512  16.934 -0.8926  1.0208 -1.6971
 8078TIP3   OH245648   6.194   5.138   0.716 -0.1223  0.5415  0.0298
 8078TIP3    H145649   6.200   5.198   0.641 -0.6255  1.6471  0.8419
 8078TIP3    H245650   6.216   5.193   0.791 -2.0528  0.1067  0.9680
 8079TIP3   OH245651   4.319   6.023   0.713  0.0818 -0.2715  0.0455
 8079TIP3    H145652   4.262   5.975   0.773 -0.4326 -1.7090 -1.5244
 8079TIP3    H245653   4.320   5.970   0.634  2.4825  0.4539 -0.4815
 8080TIP3   OH245654   2.275   1.795  11.173 -0.4314 -0.1471 -0.0553
 8080TIP3    H145655   2.359   1.820  11.137 -0.1537 -2.1483 -0.9310
 8080TIP3    H245656   2.296   1.729  11.239 -1.3071 -1.1162 -0.7081
 8081TIP3   OH245657   5.384   5.731   0.525  0.2162 -0.0182  0.6209
 8081TIP3    H145658   5.328   5.734   0.448 -0.1376 -0.6731  0.8438
 8081TIP3    H245659   5.467   5.694   0.494  0.6861  1.3364  0.2047
 8082TIP3   OH245660   3.452   1.513  16.372 -0.0022  0.5310  0.3452
 8082TIP3    H145661   3.403   1.518  16.290  0.6437  0.0905 -0.0815
 8082TIP3    H245662   3.478   1.603  16.390  1.3759  0.4224 -0.8997
 8083TIP3   OH245663   1.670   1.651  11.577  0.4543 -0.1766  0.3438
 8083TIP3    H145664   1.644   1.715  11.511 -1.5435 -0.9788  0.2788
 8083TIP3    H245665   1.596   1.647  11.638  1.3181 -1.0790  1.3796
 8084TIP3   OH245666   4.583   5.101  14.385 -0.1574  0.1957 -0.3530
 8084TIP3    H145667   4.567   5.069  14.296  0.3148  0.0336 -0.3798
 8084TIP3    H245668   4.496   5.126  14.417 -0.2615  0.7413 -1.0420
 8085TIP3   OH245669   6.258   5.237   5.452  0.0936  0.5896 -0.0241
 8085TIP3    H145670   6.269   5.324   5.415  2.9018  0.5360  0.5412
 8085TIP3    H245671   6.293   5.242   5.540  0.2985 -1.1064  0.0399
 8086TIP3   OH245672   4.048   4.746  13.270  0.7022 -0.2341  0.0655
 8086TIP3    H145673   4.098   4.822  13.299  0.6356  0.3344 -1.2499
 8086TIP3    H245674   4.012   4.708  13.351  3.0743 -0.5667  1.0485
 8087TIP3   OH245675   0.410   5.333  13.152  0.6084  0.3609  0.7670
 8087TIP3    H145676   0.452   5.247  13.155  1.0652  0.5446 -0.0762
 8087TIP3    H245677   0.322   5.318  13.187  0.3358 -0.6657 -0.2846
 8088TIP3   OH245678   1.302   6.488  10.642 -0.3166 -0.1916  0.5145
 8088TIP3    H145679   1.280   6.565  10.696  1.0416 -0.8709  2.1557
 8088TIP3    H245680   1.384   6.513  10.599 -0.0181 -0.6149  0.8367
 8089TIP3   OH245681   4.504   3.260   4.246  0.3512 -0.2996 -0.9652
 8089TIP3    H145682   4.542   3.211   4.173 -0.6944 -1.7649 -0.5659
 8089TIP3    H245683   4.547   3.225   4.324 -0.6760 -0.8691 -0.6446
 8090TIP3   OH245684   6.748   5.722   5.478 -0.2666 -0.1172 -0.1134
 8090TIP3    H145685   6.747   5.811   5.444 -0.6004 -0.1592 -0.2151
 8090TIP3    H245686   6.717   5.730   5.568 -1.1387 -0.2390 -0.3946
 8091TIP3   OH245687   4.074   0.338   2.048  0.2627  0.1710  0.1655
 8091TIP3    H145688   4.031   0.264   2.090  1.0196  0.0733  0.7817
 8091TIP3    H245689   4.004   0.382   1.999 -0.3452 -0.4967  0.4288
 8092TIP3   OH245690   3.148   6.479  11.578 -0.3897  0.5223  0.0396
 8092TIP3    H145691   3.121   6.500  11.488  0.0608  1.0086  0.0075
 8092TIP3    H245692   3.125   6.387  11.589 -0.1168  0.3513 -0.7057
 8093TIP3   OH245693   1.648   5.394   0.880 -0.4840  0.0517 -0.4071
 8093TIP3    H145694   1.743   5.392   0.889 -0.6332  0.6902  2.1759
 8093TIP3    H245695   1.619   5.307   0.904 -0.5950 -0.0395 -0.8533
 8094TIP3   OH245696   5.965   5.759  16.832 -0.6778  0.4914  0.4514
 8094TIP3    H145697   6.058   5.768  16.853 -0.4416 -0.1458 -0.2803
 8094TIP3    H245698   5.962   5.694  16.762 -1.7200  0.1133  0.8182
 8095TIP3   OH245699   1.246   6.478   5.394 -0.6341  0.4296 -0.4095
 8095TIP3    H145700   1.202   6.509   5.474  1.3012  0.9719  0.4868
 8095TIP3    H245701   1.323   6.534   5.385 -0.4353 -0.0849 -2.2929
 8096TIP3   OH245702   5.932   0.496   3.181  0.2645  0.1115  0.0796
 8096TIP3    H145703   5.905   0.420   3.234 -1.7282 -0.1893 -1.2458
 8096TIP3    H245704   5.980   0.458   3.108  2.2271  0.4598  1.1134
 8097TIP3   OH245705   1.353   4.184   1.511 -0.4621 -0.2845  0.3000
 8097TIP3    H145706   1.311   4.214   1.431  0.1016 -1.3723 -0.4214
 8097TIP3    H245707   1.359   4.089   1.501 -0.6097 -0.4746  1.7481
 8098TIP3   OH245708   2.025   6.670   4.289 -0.6375 -0.8672 -0.0346
 8098TIP3    H145709   2.017   6.589   4.238 -0.7994  0.7646 -2.7705
 8098TIP3    H245710   2.059   6.734   4.228 -1.6192  1.4707  1.7096
 8099TIP3   OH245711   6.455   4.248   6.876 -0.0707 -0.5003 -0.5907
 8099TIP3    H145712   6.470   4.319   6.813  1.7750 -2.0876 -2.0583
 8099TIP3    H245713   6.515   4.179   6.849 -1.4971 -2.4987  1.0442
 8100TIP3   OH245714   4.198   6.673  12.578  0.0889 -0.0660 -0.2497
 8100TIP3    H145715   4.194   6.580  12.558 -0.8650  0.2921 -1.8623
 8100TIP3    H245716   4.130   6.713  12.524  2.6361  2.0100 -2.1964
 8101TIP3   OH245717   5.891   3.298  11.904  0.4395  0.1007  0.4764
 8101TIP3    H145718   5.921   3.274  11.991  1.2103 -0.8049 -0.0308
 8101TIP3    H245719   5.904   3.393  11.900 -0.9851  0.3979  1.8546
 8102TIP3   OH245720   0.720   3.613   1.057 -0.1298 -0.4725 -0.4770
 8102TIP3    H145721   0.791   3.676   1.071 -1.3604  0.9508 -0.3860
 8102TIP3    H245722   0.718   3.562   1.139 -0.4814  0.8051  0.3424
 8103TIP3   OH245723   5.321   6.739  16.170 -0.3567 -0.0087 -0.2568
 8103TIP3    H145724   5.229   6.728  16.194 -0.3509  0.8013  0.1978
 8103TIP3    H245725   5.364   6.763  16.252  0.3344 -0.7675 -0.3909
 8104TIP3   OH245726   0.503   6.279   6.203  0.1712  0.4191 -0.5014
 8104TIP3    H145727   0.594   6.271   6.231  0.2710 -0.2359 -1.0091
 8104TIP3    H245728   0.504   6.348   6.137  0.1127  1.1973  0.2969
 8105TIP3   OH245729   1.095   2.471   3.285 -0.0739  0.3110  0.1817
 8105TIP3    H145730   1.127   2.558   3.309  1.2496 -0.5129  1.5401
 8105TIP3    H245731   1.047   2.441   3.363 -1.8131  0.3748 -0.8056
 8106TIP3   OH245732   0.303   5.496   0.806 -0.2007 -0.3274  0.0296
 8106TIP3    H145733   0.261   5.571   0.764  0.6437  0.6196  0.8260
 8106TIP3    H245734   0.281   5.422   0.750 -1.4049  0.4424 -0.5480
 8107TIP3   OH245735   0.745   3.756   3.230 -0.3814  0.4936  0.1357
 8107TIP3    H145736   0.724   3.744   3.137 -1.0263 -1.3668  0.4743
 8107TIP3    H245737   0.660   3.761   3.273 -0.0828  1.1597  0.6617
 8108TIP3   OH245738   5.268   2.792  10.504 -0.3299  0.9449 -0.0649
 8108TIP3    H145739   5.305   2.705  10.486 -2.2315 -0.2788  1.5652
 8108TIP3    H245740   5.207   2.778  10.577 -1.0515  3.5729 -0.0659
 8109TIP3   OH245741   4.221   2.390  14.950  0.4540  0.5440  0.3966
 8109TIP3    H145742   4.314   2.373  14.967  0.7252  0.5440 -0.9919
 8109TIP3    H245743   4.175   2.323  15.000  1.2381  0.0068  0.4220
 8110TIP3   OH245744   2.358   1.592  11.350 -0.6636  0.1785 -0.5057
 8110TIP3    H145745   2.279   1.546  11.379 -0.5679 -0.3604 -1.0910
 8110TIP3    H245746   2.419   1.523  11.326  0.5827  0.5400  1.4002
 8111TIP3   OH245747   4.337   6.233   4.500 -0.2212 -0.5648 -0.2956
 8111TIP3    H145748   4.415   6.197   4.458  0.0550 -0.6051  0.2521
 8111TIP3    H245749   4.359   6.238   4.593 -0.7412 -0.2416 -0.1844
 8112TIP3   OH245750   5.170   3.923  12.404  0.2808  0.0812 -0.2868
 8112TIP3    H145751   5.161   3.834  12.437 -1.3687  0.4311  0.2745
 8112TIP3    H245752   5.237   3.963  12.459 -0.4374 -0.2016  0.8098
 8113TIP3   OH245753   2.427   0.243  11.137  0.2824 -0.5471  0.2694
 8113TIP3    H145754   2.449   0.172  11.198 -2.3813 -0.1172  1.8534
 8113TIP3    H245755   2.373   0.200  11.070 -0.1920 -0.2893  0.4820
 8114TIP3   OH245756   0.652   4.651  12.328  0.3606 -0.3760 -0.2750
 8114TIP3    H145757   0.639   4.744  12.310  0.6757 -0.4450 -0.8617
 8114TIP3    H245758   0.681   4.614  12.245 -0.2685 -1.0974 -0.1813
 8115TIP3   OH245759   4.893   2.503  15.343 -0.0208 -0.5035 -0.0487
 8115TIP3    H145760   4.964   2.559  15.313 -0.7983  0.0029 -1.0146
 8115TIP3    H245761   4.872   2.535  15.431  0.0172  0.2703 -0.3129
 8116TIP3   OH245762   5.426   3.737   6.027 -0.2791 -0.5567  0.1255
 8116TIP3    H145763   5.362   3.674   6.060  0.2306 -1.2009 -0.0951
 8116TIP3    H245764   5.383   3.778   5.952 -1.0422  0.1702  0.9365
 8117TIP3   OH245765   6.264   4.746   1.931 -0.4086  0.1372  0.1824
 8117TIP3    H145766   6.195   4.798   1.972 -0.8446 -0.5769  0.3747
 8117TIP3    H245767   6.344   4.772   1.976 -0.4140  1.4991 -0.5252
 8118TIP3   OH245768   3.144   3.725  14.806 -0.3481 -1.0222 -0.2910
 8118TIP3    H145769   3.056   3.761  14.798  0.1675  0.7069  1.3441
 8118TIP3    H245770   3.177   3.757  14.890  2.0673 -1.1478 -1.0977
 8119TIP3   OH245771   0.286   4.525   5.154 -0.7525 -0.3414 -0.0128
 8119TIP3    H145772   0.281   4.464   5.081 -0.5674  0.1663 -0.4598
 8119TIP3    H245773   0.346   4.594   5.124 -1.4374  0.3780  0.2408
 8120TIP3   OH245774   1.886   3.536   2.753 -0.3194  0.0331  0.2924
 8120TIP3    H145775   1.901   3.498   2.666 -0.6382 -0.9402  0.6476
 8120TIP3    H245776   1.936   3.480   2.812  0.5773  1.1848  0.6585
 8121TIP3   OH245777   3.061   1.759  16.190  0.1350 -0.5267  0.3638
 8121TIP3    H145778   3.097   1.700  16.257  0.8419 -0.3540  0.1441
 8121TIP3    H245779   3.059   1.706  16.110  1.0888 -0.1579  0.0882
 8122TIP3   OH245780   4.236   3.831   2.016 -0.1898 -0.7527  0.0859
 8122TIP3    H145781   4.202   3.844   2.104  1.9720 -0.2795  0.9257
 8122TIP3    H245782   4.267   3.918   1.989  0.0648 -1.0827 -0.7296
 8123TIP3   OH245783   2.699   3.971   0.606  0.1981 -0.3642 -0.0935
 8123TIP3    H145784   2.629   3.960   0.541  0.8518  0.5740 -0.9917
 8123TIP3    H245785   2.657   4.016   0.679  0.1057  1.3790 -1.1600
 8124TIP3   OH245786   4.646   0.495   4.213 -0.3348 -0.0783 -0.0384
 8124TIP3    H145787   4.720   0.525   4.266  1.6306 -2.8857 -0.9651
 8124TIP3    H245788   4.634   0.404   4.238  0.1612 -1.3069 -3.6572
 8125TIP3   OH245789   5.170   2.236   1.340 -0.0340 -0.4383  0.4537
 8125TIP3    H145790   5.078   2.219   1.358 -0.6059  0.1972 -1.5407
 8125TIP3    H245791   5.170   2.311   1.281  1.9061  0.8992  2.0322
 8126TIP3   OH245792   2.365   0.096   1.580  0.1091  0.3541  0.0450
 8126TIP3    H145793   2.458   0.112   1.566  1.0285 -3.5357  0.4487
 8126TIP3    H245794   2.344   0.144   1.660  1.0964  3.0937 -1.2294
 8127TIP3   OH245795   3.050   6.253   5.593  0.1029 -0.4898 -0.0566
 8127TIP3    H145796   3.128   6.217   5.636  1.0542  1.6743  0.1765
 8127TIP3    H245797   3.074   6.256   5.501  0.3133  0.1733  0.0152
 8128TIP3   OH245798   5.828   6.521  12.518 -0.2654  0.2318  0.3997
 8128TIP3    H145799   5.806   6.485  12.604 -3.0169  0.9699  0.1230
 8128TIP3    H245800   5.788   6.460  12.456 -1.9098  1.7606 -0.1623
 8129TIP3   OH245801   3.612   0.790  12.972 -0.0580  0.1309 -0.0106
 8129TIP3    H145802   3.671   0.748  12.910 -0.5035 -0.1402 -0.2548
 8129TIP3    H245803   3.655   0.781  13.056  0.7438  0.8460 -0.3259
 8130TIP3   OH245804   0.149   2.802  16.088  0.3424  0.5006 -1.2468
 8130TIP3    H145805   0.226   2.833  16.041  1.1202 -0.6888 -0.8040
 8130TIP3    H245806   0.123   2.877  16.142  0.6486  1.2056 -2.0487
 8131TIP3   OH245807   4.015   2.189   2.723 -0.0635  0.0429  0.1124
 8131TIP3    H145808   3.938   2.212   2.670  0.2582  1.2432  0.1499
 8131TIP3    H245809   3.978   2.154   2.804 -0.5742 -2.4473 -1.0877
 8132TIP3   OH245810   3.747   6.330   2.182 -0.1728 -0.2554  0.0511
 8132TIP3    H145811   3.829   6.283   2.168  0.4883  0.7341  0.4735
 8132TIP3    H245812   3.732   6.376   2.099 -0.2663 -0.3895 -0.0058
 8133TIP3   OH245813   3.382   6.269   3.735 -0.2385 -0.2127  0.2090
 8133TIP3    H145814   3.414   6.196   3.684 -1.1171 -0.3140 -0.2114
 8133TIP3    H245815   3.452   6.287   3.798  0.0030 -1.3757  0.2875
 8134TIP3   OH245816   3.239   2.563   1.594  0.2847 -0.8100 -0.3744
 8134TIP3    H145817   3.278   2.622   1.658  0.7005 -0.1435 -1.2211
 8134TIP3    H245818   3.150   2.549   1.625  0.1885  0.2410 -0.1426
 8135TIP3   OH245819   3.206   4.812   2.640 -0.6284 -0.1873  0.1318
 8135TIP3    H145820   3.196   4.722   2.672  2.5313 -1.3449 -1.6724
 8135TIP3    H245821   3.172   4.810   2.550 -0.2305  0.3458 -0.0344
 8136TIP3   OH245822   5.015   1.332   4.756  0.1646 -0.2771 -0.3156
 8136TIP3    H145823   5.107   1.305   4.751 -0.5279 -3.1864  0.8416
 8136TIP3    H245824   4.967   1.263   4.710 -1.4592  1.5454 -1.5512
 8137TIP3   OH245825   3.353   4.820  15.136  0.4748 -0.0039 -0.3432
 8137TIP3    H145826   3.337   4.908  15.103  0.1837 -0.2644 -0.8956
 8137TIP3    H245827   3.267   4.779  15.141  0.7474 -0.7569 -1.4953
 8138TIP3   OH245828   3.425   1.863   3.969  0.2834  0.5058  0.3344
 8138TIP3    H145829   3.364   1.932   3.944 -1.8456 -1.6278 -0.7980
 8138TIP3    H245830   3.459   1.890   4.055  0.2614  3.3177 -0.4577
 8139TIP3   OH245831   6.623   3.735  15.376  0.1276  0.7190  0.0538
 8139TIP3    H145832   6.576   3.789  15.312 -0.1593 -0.6256 -0.9071
 8139TIP3    H245833   6.559   3.717  15.445 -0.0448  0.8666 -0.0678
 8140TIP3   OH245834   0.948   3.891   0.369 -0.3439 -0.0736 -0.1923
 8140TIP3    H145835   0.946   3.971   0.422  0.4875 -0.2772  0.1721
 8140TIP3    H245836   0.882   3.905   0.302 -1.3863  0.2209  0.8647
 8141TIP3   OH245837   1.594   5.937   0.984  0.0662 -0.0722  0.0113
 8141TIP3    H145838   1.573   5.985   0.904 -0.6338  0.7176  0.6517
 8141TIP3    H245839   1.592   5.845   0.958 -0.0173  0.1836 -0.9110
 8142TIP3   OH245840   1.761   0.308   3.019  0.2410  0.1120  0.7920
 8142TIP3    H145841   1.784   0.332   3.109  1.3012 -1.6365  1.0310
 8142TIP3    H245842   1.667   0.295   3.022 -0.0206  1.7566  1.1947
 8143TIP3   OH245843   6.535   5.351   6.030 -0.5558  0.4151 -0.0131
 8143TIP3    H145844   6.466   5.318   6.088  0.0389  1.5446  1.4186
 8143TIP3    H245845   6.582   5.273   6.002 -0.7778 -0.1764  1.1794
 8144TIP3   OH245846   4.816   3.383   1.533 -0.4013  0.2687  0.2890
 8144TIP3    H145847   4.901   3.360   1.497 -0.6857 -0.0632 -0.1993
 8144TIP3    H245848   4.775   3.437   1.465 -0.7559  0.0371  0.3149
 8145TIP3   OH245849   3.795   2.748  11.557 -0.2618  0.4250 -0.3689
 8145TIP3    H145850   3.701   2.750  11.575 -0.0798 -1.8089  1.2132
 8145TIP3    H245851   3.805   2.796  11.475 -2.3312  3.6146  1.0606
 8146TIP3   OH245852   1.088   0.216   1.460 -0.2083  0.3615  0.4235
 8146TIP3    H145853   1.106   0.206   1.554 -1.2406  0.7488  0.6786
 8146TIP3    H245854   1.121   0.304   1.439  1.2349 -0.2304  0.1006
 8147TIP3   OH245855   1.875   4.178   2.542 -0.0934 -0.4668  0.8422
 8147TIP3    H145856   1.881   4.219   2.456  0.3552 -1.3866  0.4247
 8147TIP3    H245857   1.790   4.205   2.576  0.6374  1.7736  1.0982
 8148TIP3   OH245858   4.874   2.684  17.377  0.8849 -0.0832  0.5912
 8148TIP3    H145859   4.789   2.682  17.422  0.8297  0.2438  0.5093
 8148TIP3    H245860   4.914   2.765  17.408  1.0377 -0.0843  0.3939
 8149TIP3   OH245861   1.491   6.042  15.214  0.1949  0.0537 -0.2003
 8149TIP3    H145862   1.548   6.062  15.289 -1.2361 -0.6322  1.1402
 8149TIP3    H245863   1.448   6.125  15.194  0.3221  0.1671 -0.0113
 8150TIP3   OH245864   2.738   4.579   0.087  0.0700  0.0848  0.0908
 8150TIP3    H145865   2.643   4.592   0.093  0.2107  0.7901  1.0021
 8150TIP3    H245866   2.748   4.503   0.029 -1.0845 -0.5704  0.7029
 8151TIP3   OH245867   6.408   2.513   0.264  0.1441  0.3618 -0.2081
 8151TIP3    H145868   6.331   2.468   0.300  1.3489 -1.4214  0.2789
 8151TIP3    H245869   6.418   2.591   0.317  1.2264 -1.6304  2.7735
 8152TIP3   OH245870   1.505   0.716   3.963  0.8230  0.1626  0.0193
 8152TIP3    H145871   1.438   0.726   4.031  0.4056  1.3747 -0.5487
 8152TIP3    H245872   1.529   0.624   3.968 -1.1698 -0.4244 -0.0001
 8153TIP3   OH245873   4.968   4.333   1.938 -0.5820 -0.2828 -0.5226
 8153TIP3    H145874   5.047   4.278   1.939  0.0787  0.6510 -0.7177
 8153TIP3    H245875   4.897   4.272   1.916  0.1780 -0.9962 -1.0517
 8154TIP3   OH245876   1.361   2.549   3.430 -0.1406 -0.2271  0.1162
 8154TIP3    H145877   1.312   2.607   3.371 -0.0016  2.2330  2.2575
 8154TIP3    H245878   1.371   2.467   3.380 -1.3301  1.1675 -2.6346
 8155TIP3   OH245879   2.774   3.862  14.287  0.0991  0.2596  0.6166
 8155TIP3    H145880   2.710   3.922  14.324  0.8382  0.2803  1.9141
 8155TIP3    H245881   2.727   3.778  14.278 -0.3003  0.4557  0.8685
 8156TIP3   OH245882   5.817   6.630  16.596 -0.6530 -0.1083  0.1733
 8156TIP3    H145883   5.855   6.556  16.549  0.4699  0.7564 -0.3338
 8156TIP3    H245884   5.818   6.604  16.688 -0.4033 -0.7773 -0.0136
 8157TIP3   OH245885   0.342   6.209  13.494  0.3920 -0.6035  0.2288
 8157TIP3    H145886   0.387   6.250  13.420 -2.1039  0.8769 -0.5855
 8157TIP3    H245887   0.406   6.213  13.565  0.6298  4.5603  0.1659
 8158TIP3   OH245888   2.356   6.390  12.315 -0.4575 -0.1667  0.1585
 8158TIP3    H145889   2.368   6.307  12.269 -1.3163 -0.1120 -0.1869
 8158TIP3    H245890   2.385   6.372  12.404  0.5308 -0.4784 -0.2177
 8159TIP3   OH245891   6.656   5.334  11.392  0.4053  0.1925 -0.0435
 8159TIP3    H145892   6.717   5.408  11.392  2.0192 -1.1034 -0.3027
 8159TIP3    H245893   6.583   5.365  11.338  1.9129  0.9399 -1.7699
 8160TIP3   OH245894   4.057   0.682   0.802  0.1820 -0.1896  0.1838
 8160TIP3    H145895   3.993   0.748   0.826  1.9493  1.1584  1.3973
 8160TIP3    H245896   4.046   0.612   0.866 -0.9631 -0.6365 -0.4603
 8161TIP3   OH245897   1.376   2.064   1.081  0.3234  0.3121 -0.4331
 8161TIP3    H145898   1.429   2.005   1.135  0.2663  0.4041 -0.2773
 8161TIP3    H245899   1.433   2.140   1.066 -0.2216  0.9860  0.8098
 8162TIP3   OH245900   4.865   1.513  12.493  0.1685 -0.0292 -0.1173
 8162TIP3    H145901   4.929   1.581  12.512  0.5218 -0.3915  0.0270
 8162TIP3    H245902   4.906   1.433  12.526  0.4988 -0.5822 -1.7394
 8163TIP3   OH245903   1.582   5.591   1.384 -0.1739  0.7670  0.4140
 8163TIP3    H145904   1.539   5.523   1.436 -2.9781  1.4817 -0.8035
 8163TIP3    H245905   1.573   5.562   1.293  0.0649  1.9499 -0.0113
 8164TIP3   OH245906   3.048   2.071  11.452 -0.3363 -0.2023 -0.2330
 8164TIP3    H145907   3.084   1.988  11.421 -0.0954 -0.0184 -0.4450
 8164TIP3    H245908   2.965   2.047  11.492  0.5822 -0.8057  1.3892
 8165TIP3   OH245909   1.449   6.256   4.075 -0.1467 -0.0243 -0.2100
 8165TIP3    H145910   1.396   6.183   4.105 -1.0382  1.2031  1.2651
 8165TIP3    H245911   1.512   6.271   4.145  2.3405 -1.5025 -1.9389
 8166TIP3   OH245912   5.742   3.417   2.382 -1.0328  0.4703  0.0785
 8166TIP3    H145913   5.672   3.406   2.446 -1.5708  0.5422 -0.4921
 8166TIP3    H245914   5.708   3.378   2.301 -1.9542  3.7729 -1.3043
 8167TIP3   OH245915   0.225   3.546   3.778  0.2506  0.0550 -0.0792
 8167TIP3    H145916   0.192   3.458   3.796 -2.4165  0.6583 -1.4824
 8167TIP3    H245917   0.275   3.570   3.856  1.1934 -2.7289  0.2587
 8168TIP3   OH245918   4.109   2.007   3.936 -0.5212 -0.5388 -0.3589
 8168TIP3    H145919   4.179   2.072   3.927 -0.2228 -1.0794 -2.4982
 8168TIP3    H245920   4.088   2.007   4.029  4.0618 -2.1262  0.9511
 8169TIP3   OH245921   5.218   1.339  16.198 -0.2727 -0.0724 -0.2989
 8169TIP3    H145922   5.184   1.251  16.216 -0.0534 -0.3101 -1.0135
 8169TIP3    H245923   5.209   1.385  16.281 -1.4272 -0.4240 -0.2179
 8170TIP3   OH245924   1.603   1.486  16.539  0.5151  0.3548  0.7955
 8170TIP3    H145925   1.622   1.580  16.534  0.7135  0.3695  1.7608
 8170TIP3    H245926   1.632   1.452  16.455  1.9238  0.8890  1.0464
 8171TIP3   OH245927   6.266   0.762   4.961  0.2770 -0.1387 -0.0581
 8171TIP3    H145928   6.210   0.826   5.006  0.0448 -2.4351  3.3075
 8171TIP3    H245929   6.350   0.769   5.006  0.9059 -0.7381 -1.1241
 8172TIP3   OH245930   1.961   2.352   5.629  0.0609  0.2374 -0.1699
 8172TIP3    H145931   1.873   2.330   5.660  0.0046 -1.0792 -1.1721
 8172TIP3    H245932   1.964   2.448   5.630 -1.0808  0.2842  0.6713
 8173TIP3   OH245933   0.806   3.185  16.913  0.1902 -0.0970  0.0461
 8173TIP3    H145934   0.790   3.188  16.819  1.3449  0.5118 -0.1600
 8173TIP3    H245935   0.759   3.261  16.948 -0.6410 -0.6028  0.0351
 8174TIP3   OH245936   4.648   1.588   2.068 -0.1574 -0.8331 -0.2167
 8174TIP3    H145937   4.711   1.527   2.107  1.6261  0.0223 -1.6146
 8174TIP3    H245938   4.615   1.639   2.142 -0.0159 -2.0070  0.6850
 8175TIP3   OH245939   1.615   0.165   3.596 -0.0129  0.1361 -0.1623
 8175TIP3    H145940   1.700   0.189   3.558  0.1102 -1.6064 -1.0927
 8175TIP3    H245941   1.637   0.104   3.666 -0.4280  1.0031  0.7492
 8176TIP3   OH245942   0.983   6.429   6.207 -0.0870  0.6488  0.5562
 8176TIP3    H145943   1.001   6.523   6.209 -0.1678  0.7462 -1.5611
 8176TIP3    H245944   0.890   6.422   6.228 -0.5466  1.2399 -1.1272
 8177TIP3   OH245945   3.944   2.116  12.619 -0.0951  0.4207 -0.0761
 8177TIP3    H145946   3.920   2.059  12.546 -0.8282  0.1326  0.3696
 8177TIP3    H245947   4.031   2.149  12.597  0.0190 -0.2711 -0.7094
 8178TIP3   OH245948   4.947   2.880   0.532  0.5051 -0.6088 -0.3809
 8178TIP3    H145949   4.967   2.831   0.612  1.3090 -0.8282 -0.7070
 8178TIP3    H245950   5.022   2.864   0.475  0.0811 -0.2016 -1.0637
 8179TIP3   OH245951   2.675   6.166  13.460 -0.3526 -0.2459  0.0773
 8179TIP3    H145952   2.705   6.257  13.469 -0.2002 -0.3285  0.4009
 8179TIP3    H245953   2.585   6.173  13.428  0.1952  0.0066 -1.5111
 8180TIP3   OH245954   3.710   4.879   4.341  0.2186 -0.1896 -0.3298
 8180TIP3    H145955   3.760   4.798   4.334  1.2416  0.5482 -2.2774
 8180TIP3    H245956   3.641   4.859   4.405  1.1188 -2.2078  0.0921
 8181TIP3   OH245957   3.294   2.089   5.625 -0.1575 -0.4844  0.1871
 8181TIP3    H145958   3.252   2.134   5.698 -0.0602 -1.4677  0.8711
 8181TIP3    H245959   3.223   2.075   5.562  0.2204  2.5323 -1.0761
 8182TIP3   OH245960   5.221   3.389   3.311  0.1151  0.0421  0.1848
 8182TIP3    H145961   5.199   3.453   3.243  0.0705 -1.7486 -1.5732
 8182TIP3    H245962   5.194   3.431   3.392 -1.1303  1.7201 -1.0127
 8183TIP3   OH245963   4.858   6.387   1.077  0.2989 -0.1444  0.6586
 8183TIP3    H145964   4.862   6.294   1.058 -1.0814 -0.4120  1.5017
 8183TIP3    H245965   4.860   6.430   0.992  2.0437 -0.8544  0.2967
 8184TIP3   OH245966   3.717   0.562  12.333 -0.0114 -0.3997  0.1530
 8184TIP3    H145967   3.772   0.626  12.288  0.5108 -0.4618  0.6881
 8184TIP3    H245968   3.638   0.611  12.357 -0.8229 -0.6633 -1.8436
 8185TIP3   OH245969   2.872   3.919  12.720 -0.3816  0.0374 -0.2834
 8185TIP3    H145970   2.796   3.951  12.767  0.8026 -1.1828  2.7087
 8185TIP3    H245971   2.838   3.847  12.666 -1.4896  0.1273  0.2663
 8186TIP3   OH245972   4.576   2.355  16.367  0.6001  0.6523  0.1913
 8186TIP3    H145973   4.559   2.442  16.330  0.0129  0.4613  0.0131
 8186TIP3    H245974   4.544   2.294  16.300  2.6650  0.2571 -0.5335
 8187TIP3   OH245975   0.729   4.046   1.056 -0.1290  0.2770  0.1964
 8187TIP3    H145976   0.656   4.093   1.096  0.9059  0.1693  2.3510
 8187TIP3    H245977   0.775   4.112   1.004  0.2171  1.2268  1.6649
 8188TIP3   OH245978   4.626   0.922  13.461 -0.1518  0.0076  0.5429
 8188TIP3    H145979   4.677   0.901  13.383  0.1013  0.1945  0.6552
 8188TIP3    H245980   4.571   0.996  13.436 -0.1207  0.0238  0.5234
 8189TIP3   OH245981   2.707   2.910  14.135  0.7322  0.8587 -0.2921
 8189TIP3    H145982   2.772   2.877  14.198  1.5334  0.0507 -1.4913
 8189TIP3    H245983   2.640   2.841  14.132  0.3164  1.2346  0.2065
 8190TIP3   OH245984   3.854   6.263  15.289 -0.1455  0.2742 -0.2925
 8190TIP3    H145985   3.794   6.243  15.217  0.0408  0.3118 -0.4595
 8190TIP3    H245986   3.941   6.260  15.249 -0.1358  1.8839 -0.4266
 8191TIP3   OH245987   6.493   1.025   5.347 -0.2542 -0.2237 -0.3133
 8191TIP3    H145988   6.583   0.995   5.359  0.3702  1.1398 -1.3106
 8191TIP3    H245989   6.495   1.075   5.266 -1.4176  1.6594  0.7369
 8192TIP3   OH245990   0.991   4.958  13.043 -0.1918 -0.1724 -1.1019
 8192TIP3    H145991   0.919   5.018  13.026 -0.8537 -0.5639  0.1556
 8192TIP3    H245992   0.959   4.902  13.114  1.8358  0.5137  0.4525
 8193TIP3   OH245993   2.890   6.025  12.175 -0.1593  0.4071 -0.0531
 8193TIP3    H145994   2.857   5.949  12.222  0.2691  1.2315  1.6560
 8193TIP3    H245995   2.812   6.078  12.156 -0.2902  0.2479  0.0437
 8194TIP3   OH245996   0.019   3.644   2.109  0.2489 -0.2361  0.3259
 8194TIP3    H145997   0.042   3.713   2.047  0.9321  0.5089  1.3571
 8194TIP3    H245998   0.071   3.569   2.082  0.0084 -0.1364 -0.4188
 8195TIP3   OH245999   5.042   5.213   1.966  0.4597 -0.1076 -0.4618
 8195TIP3    H146000   4.996   5.293   1.994 -1.8109 -0.9765 -1.4574
 8195TIP3    H246001   5.105   5.243   1.901  0.2849  0.9778 -0.1547
 8196TIP3   OH246002   6.190   2.904   5.020  0.4420 -0.3906 -0.2943
 8196TIP3    H146003   6.110   2.868   4.981 -0.0570  0.2246  0.1320
 8196TIP3    H246004   6.255   2.835   5.008  0.5027 -0.0039 -2.7739
 8197TIP3   OH246005   6.150   0.831  15.292  0.0118  0.0707  0.1645
 8197TIP3    H146006   6.202   0.899  15.249  0.2927  0.0737  0.4994
 8197TIP3    H246007   6.124   0.772  15.221  1.5297 -0.6205  0.1378
 8198TIP3   OH246008   6.348   3.871  11.195  0.0924 -0.0074  0.0927
 8198TIP3    H146009   6.440   3.848  11.195  0.0585 -0.1409 -0.0802
 8198TIP3    H246010   6.347   3.966  11.182  0.1418 -0.2690 -2.0877
 8199TIP3   OH246011   3.675   6.329   0.100  0.0196 -0.7931 -0.9982
 8199TIP3    H146012   3.647   6.364   0.016 -0.1052  0.5591 -0.4174
 8199TIP3    H246013   3.597   6.331   0.155  0.8464  1.8108  0.2434
 8200TIP3   OH246014   4.933   5.824   5.868 -0.6654  0.1147  0.0650
 8200TIP3    H146015   4.883   5.869   5.937 -1.8181  0.5701 -1.0129
 8200TIP3    H246016   4.937   5.733   5.897  1.7912  0.8129  2.3483
 8201TIP3   OH246017   4.037   6.085   0.986 -0.1034  0.1795  0.2464
 8201TIP3    H146018   4.000   6.151   1.045  1.3787  0.6697  0.6781
 8201TIP3    H246019   4.098   6.036   1.041  0.1009 -0.4198 -0.5057
 8202TIP3   OH246020   5.301   2.173   4.721 -0.1339 -0.1142 -0.1607
 8202TIP3    H146021   5.343   2.095   4.686  0.5744  0.1620  0.0526
 8202TIP3    H246022   5.292   2.156   4.814  0.6166  0.3036  0.0022
 8203TIP3   OH246023   4.129   5.375   2.670 -0.1604 -0.0031  0.3826
 8203TIP3    H146024   4.064   5.442   2.649 -1.7620 -1.0772  1.6569
 8203TIP3    H246025   4.144   5.329   2.588 -2.1731 -0.6793  0.3461
 8204TIP3   OH246026   3.060   0.109   1.525 -0.4032  0.2513  0.4934
 8204TIP3    H146027   3.139   0.157   1.551  0.1254 -0.8087  0.9028
 8204TIP3    H246028   3.082   0.017   1.538 -1.6184 -0.0819  0.3415
 8205TIP3   OH246029   0.963   2.780   0.409 -0.5736  0.0769 -0.7422
 8205TIP3    H146030   0.987   2.692   0.435  0.0044  0.3719 -0.2388
 8205TIP3    H246031   0.871   2.774   0.384  0.2042 -1.3246 -3.6971
 8206TIP3   OH246032   0.206   6.612  16.046  1.0000 -1.1020 -0.2263
 8206TIP3    H146033   0.148   6.569  16.108 -1.5593  1.7889 -0.3836
 8206TIP3    H246034   0.201   6.705  16.068  3.3339 -0.4003 -2.1457
 8207TIP3   OH246035   4.145   3.792  13.443  0.1913  0.4848 -0.1463
 8207TIP3    H146036   4.133   3.852  13.517 -0.8136 -0.5032  0.5200
 8207TIP3    H246037   4.057   3.781  13.407  0.3503 -0.5846 -0.2401
 8208TIP3   OH246038   3.044   5.337   0.664  0.0054  0.0532 -0.4253
 8208TIP3    H146039   3.122   5.389   0.682  0.3754 -1.0846  1.6370
 8208TIP3    H246040   2.973   5.383   0.710 -0.7081  1.2998 -2.6098
 8209TIP3   OH246041   6.617   4.754  12.679 -0.4202 -0.3713  0.0710
 8209TIP3    H146042   6.618   4.739  12.774 -2.3907 -0.3720  0.1192
 8209TIP3    H246043   6.689   4.700  12.646  0.8376  0.2586  1.6312
 8210TIP3   OH246044   3.093   2.219   2.786 -0.3033  0.0322  0.0353
 8210TIP3    H146045   3.146   2.196   2.862 -1.2311 -0.3982  0.5664
 8210TIP3    H246046   3.152   2.208   2.711  0.3487 -0.4413  0.6109
 8211TIP3   OH246047   5.941   2.260   6.557 -0.0204 -0.2085  0.4517
 8211TIP3    H146048   5.914   2.235   6.469 -0.6666 -1.2335  0.9325
 8211TIP3    H246049   6.037   2.264   6.552 -0.0547 -0.2134 -0.3029
 8212TIP3   OH246050   2.631   4.690   5.591  0.0901 -0.2733 -0.2750
 8212TIP3    H146051   2.577   4.689   5.513 -0.6339  0.7550  0.2014
 8212TIP3    H246052   2.721   4.683   5.558  0.1543  3.8092 -1.5546
 8213TIP3   OH246053   3.528   4.913   6.022  0.0356 -0.1098 -0.2418
 8213TIP3    H146054   3.619   4.890   6.043 -0.6925 -1.6604  1.5432
 8213TIP3    H246055   3.491   4.832   5.986 -0.5871  0.5863 -1.1958
 8214TIP3   OH246056   2.595   6.561   3.578 -0.4751  0.1101 -0.0228
 8214TIP3    H146057   2.530   6.492   3.595 -2.9010  1.7644 -1.7865
 8214TIP3    H246058   2.630   6.583   3.665 -0.3239 -2.6254  0.6867
 8215TIP3   OH246059   5.841   1.363  11.594 -0.3864 -0.0865  0.5200
 8215TIP3    H146060   5.936   1.364  11.587 -0.3639  0.7790  0.8144
 8215TIP3    H246061   5.812   1.436  11.539 -1.0108 -1.4512 -1.0456
 8216TIP3   OH246062   0.060   0.934   5.971  0.0372  0.4436  1.0752
 8216TIP3    H146063   0.089   0.872   6.038  1.2367  1.3977  1.4798
 8216TIP3    H246064   0.005   0.997   6.018 -1.3962 -0.4119  0.6176
 8217TIP3   OH246065   0.152   4.315  12.810 -0.4280  0.2202  0.2867
 8217TIP3    H146066   0.069   4.363  12.815  0.5401  1.8801  2.9835
 8217TIP3    H246067   0.219   4.382  12.820  1.5269 -0.7577 -4.0190
 8218TIP3   OH246068   6.708   3.700   0.638 -0.1894  1.0380  0.1985
 8218TIP3    H146069   6.684   3.612   0.611  3.6787 -0.2326  0.2686
 8218TIP3    H246070   6.748   3.739   0.560  1.4541  1.3004  1.1280
 8219TIP3   OH246071   5.915   3.554   4.061  0.0365 -0.4902 -0.6270
 8219TIP3    H146072   5.921   3.633   4.006  1.2645 -0.3245 -0.3007
 8219TIP3    H246073   5.842   3.571   4.119  1.6666  1.4989  1.0340
 8220TIP3   OH246074   6.223   1.814  16.621 -0.2827 -0.1395 -0.0901
 8220TIP3    H146075   6.168   1.803  16.543 -0.7617  1.0836  0.0524
 8220TIP3    H246076   6.161   1.833  16.692  0.1768 -0.8670  0.5354
 8221TIP3   OH246077   4.394   1.596   2.642  0.0181 -0.0453 -0.5686
 8221TIP3    H146078   4.348   1.515   2.621  0.2992 -0.1971 -0.6081
 8221TIP3    H246079   4.332   1.666   2.620 -0.5735 -0.2714  0.3461
 8222TIP3   OH246080   3.043   1.300   0.338  0.2174 -0.3278  0.2717
 8222TIP3    H146081   3.110   1.285   0.405 -0.1096  0.1139  0.7030
 8222TIP3    H246082   2.988   1.222   0.341  0.0250 -0.1843  0.7429
 8223TIP3   OH246083   1.049   5.522  16.832 -0.2612 -0.2210 -0.6905
 8223TIP3    H146084   1.022   5.538  16.922 -1.1581  0.6487 -1.1027
 8223TIP3    H246085   0.982   5.463  16.797  0.5777 -1.3112 -0.5414
 8224TIP3   OH246086   0.440   2.384   4.171  0.7666 -0.0920  0.3095
 8224TIP3    H146087   0.504   2.314   4.168  1.8156  0.8558 -1.7343
 8224TIP3    H246088   0.460   2.432   4.252  0.2690 -1.8428  1.5314
 8225TIP3   OH246089   6.109   5.544   1.185 -0.5580  0.3917  0.1191
 8225TIP3    H146090   6.182   5.602   1.165 -0.5441  0.8645  1.4514
 8225TIP3    H246091   6.149   5.460   1.206 -0.3620  0.6699  0.9211
 8226TIP3   OH246092   1.249   3.543  15.687 -0.0879  0.0255  0.2304
 8226TIP3    H146093   1.269   3.460  15.644 -0.5898  0.1886 -0.3273
 8226TIP3    H246094   1.153   3.549  15.683 -0.0657  0.5415  0.4404
 8227TIP3   OH246095   0.147   5.660   1.331  0.1238  1.0237  0.0433
 8227TIP3    H146096   0.090   5.671   1.255 -0.4309  2.7188  0.6620
 8227TIP3    H246097   0.233   5.690   1.301 -0.2295  2.2721  0.2355
 8228TIP3   OH246098   2.344   2.606  16.152  0.0189 -0.4960  0.4976
 8228TIP3    H146099   2.254   2.578  16.133  0.2196 -1.3653  0.7415
 8228TIP3    H246100   2.398   2.547  16.100  0.4455  0.2326  0.1063
 8229TIP3   OH246101   5.825   2.780  14.915  0.2379  0.3025 -0.3583
 8229TIP3    H146102   5.803   2.711  14.852 -1.8438 -1.2820  1.9306
 8229TIP3    H246103   5.759   2.848  14.899  0.0111  0.1216 -0.1825
 8230TIP3   OH246104   4.456   4.084   1.717  0.3476  0.7377 -0.3291
 8230TIP3    H146105   4.457   4.169   1.675 -0.3552  1.6749  1.4325
 8230TIP3    H246106   4.416   4.025   1.653  1.1173  1.6388 -1.6780
 8231TIP3   OH246107   3.779   0.204  11.105  0.2874 -0.6897 -0.3989
 8231TIP3    H146108   3.849   0.207  11.040  0.5969 -2.2144 -0.1722
 8231TIP3    H246109   3.724   0.279  11.085  2.6987  1.3957  0.2444
 8232TIP3   OH246110   6.171   4.306  15.531 -0.2060  0.2329  0.2453
 8232TIP3    H146111   6.246   4.365  15.519 -0.9819  1.3209  0.6454
 8232TIP3    H246112   6.096   4.355  15.498 -0.7375 -0.9082 -0.2967
 8233TIP3   OH246113   4.634   2.705   0.112  0.1500 -0.4869  0.5199
 8233TIP3    H146114   4.644   2.780   0.171  1.4778 -0.6322  0.5098
 8233TIP3    H246115   4.623   2.630   0.171  0.9205 -0.5544  0.5928
 8234TIP3   OH246116   0.846   0.418   1.304 -0.7197  0.6482 -0.2407
 8234TIP3    H146117   0.838   0.382   1.216 -0.3466  2.3197 -0.9837
 8234TIP3    H246118   0.941   0.428   1.317 -0.6508 -1.1442  1.0365
 8235TIP3   OH246119   4.359   3.875  16.128  0.1633 -0.0712  0.1279
 8235TIP3    H146120   4.418   3.824  16.183  1.0101 -0.1497 -0.8169
 8235TIP3    H246121   4.341   3.954  16.178  1.6454  0.2769  0.1575
 8236TIP3   OH246122   3.240   2.266  14.835 -0.1404  0.0215  0.5451
 8236TIP3    H146123   3.151   2.242  14.812  0.4229 -1.8336  0.1296
 8236TIP3    H246124   3.255   2.224  14.920  0.3234  0.3527  0.6327
 8237TIP3   OH246125   0.084   2.219  14.897 -0.0178 -0.3714  0.3944
 8237TIP3    H146126   0.095   2.306  14.934  0.8013 -0.1473 -0.3460
 8237TIP3    H246127  -0.009   2.215  14.873  0.1529  0.6890 -0.5105
 8238TIP3   OH246128   0.139   6.347   1.787  0.5407 -0.0400  0.2163
 8238TIP3    H146129   0.235   6.348   1.783  0.6129 -1.6450  0.8108
 8238TIP3    H246130   0.118   6.405   1.860  1.2257 -1.4388  1.5997
 8239TIP3   OH246131   3.195   0.558  13.308 -0.1075  0.3825  0.0111
 8239TIP3    H146132   3.271   0.547  13.365 -0.6701 -0.9138  0.5522
 8239TIP3    H246133   3.171   0.650  13.317  1.2554  0.7536  0.0038
 8240TIP3   OH246134   0.329   0.751  16.090 -0.4413 -0.0991  0.1747
 8240TIP3    H146135   0.336   0.715  16.002 -1.4857  0.0820  0.0041
 8240TIP3    H246136   0.357   0.842  16.081  0.6860 -0.4218  0.2949
 8241TIP3   OH246137   1.834   6.456   1.085  0.0533  0.0653 -0.1549
 8241TIP3    H146138   1.903   6.486   1.026 -0.7612 -0.0633 -1.2150
 8241TIP3    H246139   1.811   6.369   1.052  0.2109 -0.4026  0.9308
 8242TIP3   OH246140   2.958   4.230   0.985  0.0287 -0.8626  0.2864
 8242TIP3    H146141   2.927   4.266   1.068  0.4635 -2.0241  0.9837
 8242TIP3    H246142   2.963   4.135   1.000 -2.8230 -1.5230 -2.0320
 8243TIP3   OH246143   5.501   0.362  16.586  0.6622  0.0741  0.7177
 8243TIP3    H146144   5.491   0.275  16.625  2.3805 -0.6451 -0.3358
 8243TIP3    H246145   5.571   0.403  16.636 -1.7276  1.9203  2.8450
 8244TIP3   OH246146   4.221   4.806  16.420 -0.0917  0.1588 -1.1284
 8244TIP3    H146147   4.244   4.730  16.367 -1.9692  0.6324 -2.6921
 8244TIP3    H246148   4.186   4.870  16.358 -2.7267  0.6084  0.6463
 8245TIP3   OH246149   5.903   3.169  11.293 -0.2605  0.0142  0.1932
 8245TIP3    H146150   5.876   3.260  11.279 -0.7037 -0.2112 -0.4641
 8245TIP3    H246151   5.970   3.153  11.227 -1.3929 -0.6383 -0.8499
 8246TIP3   OH246152   3.626   3.065  11.754 -0.2601 -0.4106  0.2831
 8246TIP3    H146153   3.659   2.992  11.806  2.2929 -0.1677 -0.8503
 8246TIP3    H246154   3.680   3.065  11.675 -3.4175 -0.2798 -2.0998
 8247TIP3   OH246155   0.936   2.418   4.199 -0.0153 -0.5719 -0.2031
 8247TIP3    H146156   0.942   2.441   4.107  1.9436  0.2311  0.0569
 8247TIP3    H246157   0.862   2.468   4.232 -0.3635 -0.3973 -1.2137
 8248TIP3   OH246158   2.310   4.750   4.113 -0.1431 -0.9784 -0.2266
 8248TIP3    H146159   2.275   4.835   4.141 -0.2245 -1.4666  1.2647
 8248TIP3    H246160   2.404   4.755   4.134  0.1798 -0.6757 -1.6632
 8249TIP3   OH246161   6.689   5.377   3.637  0.0238 -0.3600  0.0605
 8249TIP3    H146162   6.708   5.283   3.640  0.5600 -0.2793 -0.4958
 8249TIP3    H246163   6.601   5.385   3.674 -0.1003 -1.0995 -0.0560
 8250TIP3   OH246164   5.093   1.095   1.297  0.3717 -0.5462  0.1632
 8250TIP3    H146165   5.081   1.138   1.381  1.8055 -0.6560  0.4546
 8250TIP3    H246166   5.034   1.142   1.237 -0.0300  0.0892  1.0351
 8251TIP3   OH246167   6.330   6.398  14.304 -0.1993  0.1858 -0.3883
 8251TIP3    H146168   6.285   6.454  14.367 -1.8487 -1.0303 -0.3875
 8251TIP3    H246169   6.351   6.319  14.353 -0.0897 -0.1537 -0.9670
 8252TIP3   OH246170   3.558   3.393   4.244 -0.3457 -0.2287 -0.1070
 8252TIP3    H146171   3.553   3.474   4.294 -0.7774  0.3147 -0.9896
 8252TIP3    H246172   3.469   3.382   4.208  0.3631  0.3597 -2.1811
 8253TIP3   OH246173   1.342   2.851  15.432  0.6210 -0.3431  0.4128
 8253TIP3    H146174   1.400   2.925  15.416 -0.2841  0.3787  0.3972
 8253TIP3    H246175   1.256   2.881  15.402  0.2112 -1.3413  0.5583
 8254TIP3   OH246176   3.144   1.610   5.980  0.0643  0.2770  0.2191
 8254TIP3    H146177   3.168   1.645   5.894 -0.6117 -1.4400 -0.7091
 8254TIP3    H246178   3.214   1.547   6.001  0.4561  0.9888  1.1562
 8255TIP3   OH246179   3.951   6.403  15.845 -0.8767 -0.2115  0.5469
 8255TIP3    H146180   4.030   6.418  15.897 -0.6910 -0.0342  0.2173
 8255TIP3    H246181   3.966   6.317  15.804 -1.9677 -1.4017  2.4856
 8256TIP3   OH246182   6.700   1.687  12.567 -0.1084 -0.2412 -0.0394
 8256TIP3    H146183   6.621   1.635  12.548  0.1923 -1.6499  2.1813
 8256TIP3    H246184   6.771   1.622  12.567  0.8489  0.7827 -0.6499
 8257TIP3   OH246185   6.221   0.625   5.802 -0.0115 -0.0397 -0.0496
 8257TIP3    H146186   6.211   0.557   5.868  1.8857 -0.4581 -0.1195
 8257TIP3    H246187   6.248   0.703   5.852 -2.6205  0.8669  0.0867
 8258TIP3   OH246188   5.658   1.843   4.672  0.0604 -0.9344 -0.0586
 8258TIP3    H146189   5.688   1.827   4.762 -2.1985 -3.1156  0.4322
 8258TIP3    H246190   5.646   1.755   4.635 -1.0249 -0.1162 -1.7841
 8259TIP3   OH246191   2.871   0.607   5.142 -0.0376 -0.1435  0.1979
 8259TIP3    H146192   2.783   0.624   5.175  0.8843  1.2903  2.1004
 8259TIP3    H246193   2.874   0.512   5.129 -2.1828 -0.1030 -1.0382
 8260TIP3   OH246194   5.617   1.935  11.386  0.3811 -0.7052 -0.1855
 8260TIP3    H146195   5.697   1.987  11.382  0.9545 -1.3727  1.4784
 8260TIP3    H246196   5.591   1.923  11.295  1.2759  0.8666 -0.6889
 8261TIP3   OH246197   5.573   3.505  15.241 -0.1273 -0.5921  0.1247
 8261TIP3    H146198   5.478   3.500  15.249 -0.0177  0.3580  3.2890
 8261TIP3    H246199   5.590   3.593  15.208 -0.3085 -0.8947 -0.8191
 8262TIP3   OH246200   2.568   4.408  16.535 -0.1593  0.2107  0.2320
 8262TIP3    H146201   2.600   4.472  16.471  0.1579  0.5330  0.7024
 8262TIP3    H246202   2.473   4.416  16.532 -0.1069  1.8466  1.3856
 8263TIP3   OH246203   4.438   5.323   4.680 -0.0776 -0.5590 -0.6840
 8263TIP3    H146204   4.418   5.293   4.769 -2.0632 -0.7424 -1.1550
 8263TIP3    H246205   4.454   5.417   4.690  4.8981 -1.2702  0.5948
 8264TIP3   OH246206   0.376   2.733   4.766  0.7167 -0.3377 -0.3486
 8264TIP3    H146207   0.426   2.668   4.716  0.9336 -0.3941 -0.0653
 8264TIP3    H246208   0.330   2.682   4.832  0.3762 -0.2712 -0.5364
 8265TIP3   OH246209   0.779   2.442  12.583  0.3834 -0.0504  0.6627
 8265TIP3    H146210   0.748   2.353  12.565  0.5688 -0.1395  0.7787
 8265TIP3    H246211   0.821   2.436  12.669 -1.3186  0.5681  1.6024
 8266TIP3   OH246212   6.450   5.972  13.781  0.1347 -0.2241  0.1616
 8266TIP3    H146213   6.494   6.019  13.709  0.7208 -0.5808  0.2829
 8266TIP3    H246214   6.357   5.984  13.763  0.2691 -0.5525 -0.8259
 8267TIP3   OH246215   4.074   1.842   0.760  0.3877 -0.6909 -0.2168
 8267TIP3    H146216   4.032   1.881   0.683 -0.7276  0.0085  0.7028
 8267TIP3    H246217   4.165   1.871   0.755  0.0998  0.1523 -0.7683
 8268TIP3   OH246218   2.272   0.426   0.318  0.0184 -0.0372  0.0779
 8268TIP3    H146219   2.304   0.367   0.250 -0.4691 -0.9239  0.5917
 8268TIP3    H246220   2.178   0.435   0.299  0.0006  0.2062  0.2755
 8269TIP3   OH246221   4.971   4.838  11.794  0.7328 -0.0434  0.1143
 8269TIP3    H146222   4.927   4.754  11.804 -1.5909  1.3095  2.7091
 8269TIP3    H246223   4.939   4.872  11.710  0.6291 -1.1330 -0.3014
 8270TIP3   OH246224   4.116   3.486  12.216 -0.0815  0.1357  0.4617
 8270TIP3    H146225   4.143   3.557  12.157 -0.9067  0.5058  0.5233
 8270TIP3    H246226   4.176   3.414  12.195 -0.0115  0.4416 -0.4432
 8271TIP3   OH246227   0.895   4.808   2.960  0.0884  0.6949 -0.2229
 8271TIP3    H146228   0.982   4.848   2.957  0.3003  0.2643  0.0090
 8271TIP3    H246229   0.882   4.771   2.873  1.0050 -1.0106  0.3203
 8272TIP3   OH246230   2.488   2.329  13.973  0.2926 -0.4629 -0.5268
 8272TIP3    H146231   2.403   2.300  13.941  0.3180 -0.6360 -0.4387
 8272TIP3    H246232   2.552   2.280  13.921  0.3355 -1.5691  0.5083
 8273TIP3   OH246233   3.205   0.895  14.226 -0.1851 -0.1733 -0.4539
 8273TIP3    H146234   3.139   0.945  14.274  1.5141  0.3318  1.5208
 8273TIP3    H246235   3.172   0.805  14.228  0.5264 -0.5175  3.2951
 8274TIP3   OH246236   6.300   2.992  11.849  0.0420 -0.5455 -0.1818
 8274TIP3    H146237   6.212   3.016  11.881  0.0243 -1.7042  0.6999
 8274TIP3    H246238   6.290   2.903  11.816  1.0696 -1.0341  0.7647
 8275TIP3   OH246239   3.569   3.349  11.777  0.5828 -0.4255 -0.0266
 8275TIP3    H146240   3.483   3.379  11.747  0.0093 -0.8776  1.1060
 8275TIP3    H246241   3.576   3.259  11.743  0.9751 -0.1000 -0.8213
 8276TIP3   OH246242   4.362   5.584  13.398 -0.2036  0.1351 -0.1526
 8276TIP3    H146243   4.285   5.533  13.373  1.3488 -1.2098 -2.5373
 8276TIP3    H246244   4.339   5.674  13.378 -0.8706 -0.3471 -1.7340
 8277TIP3   OH246245   4.893   2.516  15.737 -0.4511  0.2289  0.3435
 8277TIP3    H146246   4.934   2.600  15.717 -1.3725  0.3633 -1.1181
 8277TIP3    H246247   4.935   2.453  15.679 -3.2736  0.6540 -2.4370
 8278TIP3   OH246248   3.155   6.367  16.707 -0.4542 -0.0669  0.2536
 8278TIP3    H146249   3.154   6.310  16.784  0.9478  1.4595  1.4905
 8278TIP3    H246250   3.139   6.455  16.742  2.5190  1.0071 -0.7663
 8279TIP3   OH246251   2.100   4.581   5.481  0.1306 -0.2841  0.8012
 8279TIP3    H146252   2.178   4.537   5.446  0.5467  1.2316 -0.2665
 8279TIP3    H246253   2.128   4.617   5.565  0.1923 -0.8236  1.0202
 8280TIP3   OH246254   1.091   6.587   5.597 -0.6278 -0.6852 -0.3272
 8280TIP3    H146255   1.006   6.624   5.623  0.2643  0.8265  0.5898
 8280TIP3    H246256   1.120   6.538   5.674 -0.4102 -0.7321 -0.4387
 8281TIP3   OH246257   2.470   1.780  16.766  0.4806  0.4914  0.4185
 8281TIP3    H146258   2.381   1.747  16.762  0.9230 -0.7326 -2.6963
 8281TIP3    H246259   2.524   1.702  16.781  1.1127  1.1505  1.8153
 8282TIP3   OH246260   3.939   2.962  15.847 -0.0857  0.6366  1.1248
 8282TIP3    H146261   3.893   2.961  15.763 -1.3233 -2.5103  1.7062
 8282TIP3    H246262   4.028   2.934  15.826 -0.4519 -0.3625  0.8409
 8283TIP3   OH246263   0.964   4.408  12.725  0.6003 -0.6425  0.0714
 8283TIP3    H146264   0.886   4.449  12.687 -0.0284 -1.2899  0.6491
 8283TIP3    H246265   0.998   4.352  12.656  2.1499  1.6585 -1.1709
 8284TIP3   OH246266   5.414   5.141  15.446  0.5674 -0.1196  0.2356
 8284TIP3    H146267   5.479   5.177  15.387  0.6487  0.9721  0.9645
 8284TIP3    H246268   5.349   5.100  15.388  0.5666  1.0483 -0.6238
 8285TIP3   OH246269   0.461   5.294   2.812  0.1399 -0.1738  0.4544
 8285TIP3    H146270   0.433   5.211   2.850 -0.7023  0.2411  0.7594
 8285TIP3    H246271   0.455   5.357   2.883  0.5069  0.2075  0.1564
 8286TIP3   OH246272   1.163   6.525  13.346 -0.1656 -0.0907  0.0218
 8286TIP3    H146273   1.219   6.499  13.273  1.3258  0.0344  1.0772
 8286TIP3    H246274   1.209   6.598  13.387 -0.8107 -0.3663  1.2859
 8287TIP3   OH246275   3.542   0.076   3.677 -0.2025  0.2404 -0.3827
 8287TIP3    H146276   3.500   0.014   3.737  0.7359  0.4042  0.4719
 8287TIP3    H246277   3.634   0.049   3.675 -0.5721 -1.1295 -3.5045
 8288TIP3   OH246278   2.263   2.323  15.010 -0.5364  0.7511  0.7114
 8288TIP3    H146279   2.181   2.364  14.983 -0.0073  3.1468  2.3544
 8288TIP3    H246280   2.331   2.380  14.974  0.3504 -0.1058  0.9735
 8289TIP3   OH246281   6.149   1.423  12.111 -0.0117 -0.5788 -0.1144
 8289TIP3    H146282   6.133   1.375  12.030 -1.1558  0.3163 -0.4549
 8289TIP3    H246283   6.068   1.473  12.126  0.7725  0.5085  0.7083
 8290TIP3   OH246284   3.237   3.745  14.541 -0.1078  0.1421  0.0837
 8290TIP3    H146285   3.232   3.745  14.637 -0.2077  1.0143  0.0941
 8290TIP3    H246286   3.187   3.823  14.515 -1.2171 -0.8155 -0.7548
 8291TIP3   OH246287   3.162   3.460   2.992  0.6027 -0.2079 -0.8576
 8291TIP3    H146288   3.073   3.432   3.012  0.8489 -1.4533 -1.4458
 8291TIP3    H246289   3.157   3.556   2.993 -0.3061 -0.2315  0.9617
 8292TIP3   OH246290   3.970   5.221  15.819  0.0136 -0.0651 -0.1950
 8292TIP3    H146291   4.058   5.257  15.813 -0.2631  0.5550 -0.5948
 8292TIP3    H246292   3.913   5.297  15.833 -0.4353 -0.4813  0.3309
 8293TIP3   OH246293   1.377   4.831   2.136 -0.1889  0.2677 -0.4969
 8293TIP3    H146294   1.470   4.825   2.116 -0.1598 -0.1276 -0.2564
 8293TIP3    H246295   1.351   4.741   2.157 -0.4884  0.4729  0.0350
 8294TIP3   OH246296   2.692   0.294  16.548 -0.4609 -0.2951 -0.1363
 8294TIP3    H146297   2.681   0.331  16.460  1.6819  1.1073  0.0929
 8294TIP3    H246298   2.679   0.200  16.537 -1.9535  0.0396 -1.5951
 8295TIP3   OH246299   4.568   2.269  10.953 -0.0533  0.8259 -0.0976
 8295TIP3    H146300   4.615   2.187  10.940  1.5487  1.6299  0.3253
 8295TIP3    H246301   4.498   2.267  10.888  0.6757 -0.3410 -0.8850
 8296TIP3   OH246302   5.387   3.570   2.901 -0.0235  0.7058 -0.0589
 8296TIP3    H146303   5.343   3.546   2.820 -2.9649  0.2710  1.5417
 8296TIP3    H246304   5.432   3.490   2.929 -1.8915 -0.2453  0.4144
 8297TIP3   OH246305   0.414   1.428  14.671 -0.1302  0.1862 -0.1659
 8297TIP3    H146306   0.367   1.450  14.591  0.2127 -0.2667 -0.4991
 8297TIP3    H246307   0.492   1.484  14.670  0.1995 -0.2696 -0.4763
 8298TIP3   OH246308   1.250   0.564  10.739  0.0073  1.1572  0.0865
 8298TIP3    H146309   1.256   0.624  10.665 -0.2029 -1.6188 -2.3977
 8298TIP3    H246310   1.341   0.544  10.761  0.0845  2.6102  1.1938
 8299TIP3   OH246311   5.141   6.332  13.685 -0.1235  0.2360  0.3355
 8299TIP3    H146312   5.203   6.335  13.758  2.0407 -0.3607 -1.3689
 8299TIP3    H246313   5.131   6.423  13.658 -2.2166  0.6830  2.2735
 8300TIP3   OH246314   5.336   2.184  12.777 -0.1191  0.0292 -0.2350
 8300TIP3    H146315   5.359   2.091  12.788 -0.7640 -0.0901  0.1257
 8300TIP3    H246316   5.378   2.227  12.851 -0.3794 -0.0760 -0.0233
 8301TIP3   OH246317   1.843   1.363   4.073  0.4432  0.4857 -0.4943
 8301TIP3    H146318   1.840   1.279   4.028 -2.2562 -0.9650  2.0197
 8301TIP3    H246319   1.908   1.414   4.025  0.0054 -1.9031 -4.0207
 8302TIP3   OH246320   6.685   2.771  12.272  0.3589 -0.0482  0.3388
 8302TIP3    H146321   6.722   2.740  12.190  0.4919 -0.8912  0.7093
 8302TIP3    H246322   6.629   2.845  12.247 -1.2106 -1.5375 -0.7741
 8303TIP3   OH246323   3.123   3.586   4.846 -0.4330 -0.2240 -0.4931
 8303TIP3    H146324   3.203   3.581   4.897 -0.4505  0.3062 -0.4136
 8303TIP3    H246325   3.147   3.632   4.767 -0.9680  1.2190  0.1558
 8304TIP3   OH246326   2.881   5.812  16.158 -0.1975 -0.0291 -0.2066
 8304TIP3    H146327   2.867   5.905  16.142  2.0544  0.3030 -0.5564
 8304TIP3    H246328   2.899   5.806  16.252  0.1485 -0.0298 -0.2695
 8305TIP3   OH246329   5.077   4.925   2.623 -0.1930  0.8989  0.0123
 8305TIP3    H146330   5.003   4.951   2.678 -1.0949 -1.5431  0.0550
 8305TIP3    H246331   5.038   4.908   2.537  0.3519 -0.0948 -0.0507
 8306TIP3   OH246332   1.764   3.479   3.233 -0.0165 -0.2421 -0.8273
 8306TIP3    H146333   1.798   3.426   3.306  0.5686 -0.1932 -1.0544
 8306TIP3    H246334   1.814   3.449   3.157 -0.3670 -0.0369 -1.1372
 8307TIP3   OH246335   3.485   6.093   1.757 -0.1278 -0.2360 -0.1546
 8307TIP3    H146336   3.490   6.120   1.849 -0.2259  0.4867 -0.3572
 8307TIP3    H246337   3.400   6.049   1.750  0.0089 -0.5548  0.1677
 8308TIP3   OH246338   4.979   2.169  12.028  0.0707 -0.7796  0.0838
 8308TIP3    H146339   4.951   2.084  12.062 -2.7771  0.1709  0.3892
 8308TIP3    H246340   4.905   2.199  11.975  0.5409  1.9524  0.8274
 8309TIP3   OH246341   4.707   5.123  13.896 -0.3863 -0.6030 -0.2322
 8309TIP3    H146342   4.708   5.200  13.839  1.4184 -1.0819 -0.9175
 8309TIP3    H246343   4.784   5.134  13.952  0.4997 -2.3889 -1.0372
 8310TIP3   OH246344   0.301   3.661   0.519 -0.3123  0.1064  0.0479
 8310TIP3    H146345   0.262   3.685   0.435  0.9438  0.7254 -0.3985
 8310TIP3    H246346   0.356   3.737   0.541  0.8754 -0.8395  0.4538
 8311TIP3   OH246347   2.776   1.258  13.378 -0.1181 -0.3406 -0.7935
 8311TIP3    H146348   2.746   1.344  13.406  1.9017  0.1120  0.1878
 8311TIP3    H246349   2.793   1.268  13.284 -1.4731 -0.1897 -1.0414
 8312TIP3   OH246350   1.668   4.012   0.331  0.0087  0.2899  0.2357
 8312TIP3    H146351   1.605   3.942   0.314 -0.3886  0.4177  1.1150
 8312TIP3    H246352   1.622   4.092   0.306 -0.3050  0.4103  1.1528
 8313TIP3   OH246353   4.910   2.442   1.957 -0.5778 -0.0783 -0.6000
 8313TIP3    H146354   4.867   2.512   1.908 -2.3386  0.0348  1.0120
 8313TIP3    H246355   4.900   2.467   2.049 -1.9222 -2.7779  0.0672
 8314TIP3   OH246356   5.020   6.456   2.937 -0.0702  0.1257  0.3509
 8314TIP3    H146357   5.038   6.367   2.967  0.6083  0.1157 -0.0520
 8314TIP3    H246358   4.932   6.452   2.901 -0.0475 -0.3877  0.3413
 8315TIP3   OH246359   2.137   1.912  11.729 -0.2823 -0.1629 -0.1809
 8315TIP3    H146360   2.042   1.914  11.722 -0.2548  0.5070 -0.4487
 8315TIP3    H246361   2.155   1.932  11.821 -0.4114 -1.0938  0.0649
 8316TIP3   OH246362   0.308   5.050   1.968 -0.3958  0.3483 -0.0318
 8316TIP3    H146363   0.380   4.989   1.981  0.7532  1.1140 -2.3200
 8316TIP3    H246364   0.349   5.137   1.968 -1.5561  0.9263  0.1568
 8317TIP3   OH246365   4.493   2.264  12.297  0.0857 -0.4339  0.4020
 8317TIP3    H146366   4.499   2.174  12.330 -3.1414 -0.3514  1.4858
 8317TIP3    H246367   4.512   2.256  12.203  2.1803 -1.8157  0.8675
 8318TIP3   OH246368   2.609   1.185   2.584  0.2168 -0.4112  0.4872
 8318TIP3    H146369   2.631   1.242   2.658 -0.9081 -0.3618  0.8113
 8318TIP3    H246370   2.514   1.192   2.577  0.4564  1.3275 -2.4004
 8319TIP3   OH246371   3.651   0.261  14.317  0.3304  0.5647  0.2972
 8319TIP3    H146372   3.618   0.184  14.364 -0.3108 -0.1918 -1.3224
 8319TIP3    H246373   3.732   0.283  14.362  1.5001 -2.1737 -0.2452
 8320TIP3   OH246374   4.072   5.163  11.540  0.3515 -0.6159 -0.2696
 8320TIP3    H146375   3.977   5.178  11.547  0.1299 -1.1088 -1.7972
 8320TIP3    H246376   4.099   5.139  11.628 -0.4210  2.2576  0.8653
 8321TIP3   OH246377   3.369   6.019  16.109  0.0028  0.6199  0.1704
 8321TIP3    H146378   3.297   6.082  16.111 -1.1069 -0.6062  0.2608
 8321TIP3    H246379   3.334   5.943  16.062  1.1744 -0.0754  0.3646
 8322TIP3   OH246380   3.648   4.872  16.591  0.6405  0.2291  0.2543
 8322TIP3    H146381   3.637   4.958  16.631 -0.5416  0.7912 -1.1660
 8322TIP3    H246382   3.593   4.814  16.644 -0.2364  0.7854 -0.0199
 8323TIP3   OH246383   3.038   2.104  15.536 -0.0164  0.1987 -0.3743
 8323TIP3    H146384   3.076   2.132  15.453  0.4992 -0.2851 -0.3041
 8323TIP3    H246385   2.955   2.151  15.541  0.0954  0.4756 -1.0114
 8324TIP3   OH246386   3.627   5.484   4.417  0.3585  0.0649 -0.5470
 8324TIP3    H146387   3.705   5.448   4.460  0.1519  0.7718  0.4596
 8324TIP3    H246388   3.661   5.554   4.361  0.4057  0.8446  0.4250
 8325TIP3   OH246389   6.686   6.111   0.230 -0.7167 -0.3155  0.1177
 8325TIP3    H146390   6.764   6.157   0.199 -0.7747  0.2835  0.8110
 8325TIP3    H246391   6.634   6.095   0.151  1.0128 -2.5677 -0.6715
 8326TIP3   OH246392   2.924   3.619  16.867  0.5522 -0.5651 -0.5317
 8326TIP3    H146393   2.982   3.639  16.940  0.9882 -1.3279 -0.6549
 8326TIP3    H246394   2.948   3.681  16.799  0.7107 -0.3892 -0.3146
 8327TIP3   OH246395   2.648   0.318  12.865  0.4972 -0.0966  0.5900
 8327TIP3    H146396   2.685   0.274  12.942  2.1645 -2.2228 -1.2608
 8327TIP3    H246397   2.599   0.249  12.820 -0.1669  1.0063 -0.4087
 8328TIP3   OH246398   4.193   6.130   3.953  0.1206 -0.2564 -0.5043
 8328TIP3    H146399   4.217   6.057   4.011 -0.0767  0.0020 -0.0987
 8328TIP3    H246400   4.268   6.188   3.955  0.0302 -0.1446 -0.3427
 8329TIP3   OH246401   2.974   6.483  17.358 -0.4312 -0.7456  0.1571
 8329TIP3    H146402   3.000   6.563  17.312 -0.0411 -0.4075  0.9380
 8329TIP3    H246403   3.047   6.422  17.343 -1.3976 -1.5331 -1.7240
 8330TIP3   OH246404   4.258   0.920  14.386 -0.4230 -0.4276 -0.4147
 8330TIP3    H146405   4.327   0.986  14.400 -0.2734 -0.4891 -0.8522
 8330TIP3    H246406   4.292   0.841  14.428 -0.2693 -0.4324 -0.5491
 8331TIP3   OH246407   6.183   6.521  16.240  0.3168 -0.2458  0.1437
 8331TIP3    H146408   6.267   6.509  16.195  0.4180 -1.8634  0.6993
 8331TIP3    H246409   6.193   6.471  16.322 -1.4902 -1.2452 -0.2002
 8332TIP3   OH246410   5.489   0.251   5.647  0.5007 -0.2315 -0.0240
 8332TIP3    H146411   5.447   0.212   5.724 -2.0478  0.3781 -0.9706
 8332TIP3    H246412   5.463   0.193   5.575  2.2078 -0.3722 -0.5530
 8333TIP3   OH246413   4.794   0.406   1.815  1.0595  0.6228 -0.1258
 8333TIP3    H146414   4.715   0.428   1.765  0.7220  3.0569  1.3084
 8333TIP3    H246415   4.762   0.355   1.889  1.3379 -1.4200 -1.3447
 8334TIP3   OH246416   3.294   4.644   6.180 -0.0983 -0.0906 -0.3756
 8334TIP3    H146417   3.245   4.664   6.259 -0.1652 -1.4735 -0.0409
 8334TIP3    H246418   3.232   4.657   6.108 -0.5822 -0.5991 -0.0526
 8335TIP3   OH246419   0.697   4.415  14.219  0.0491  0.4890 -0.1133
 8335TIP3    H146420   0.639   4.339  14.222  0.6946  0.0227  1.8738
 8335TIP3    H246421   0.645   4.486  14.256 -0.5344  1.0734 -1.9183
 8336TIP3   OH246422   0.552   1.835   5.988  0.7582  0.0407  0.0219
 8336TIP3    H146423   0.514   1.766   6.042 -0.7666  0.4434 -0.4944
 8336TIP3    H246424   0.510   1.915   6.018  1.2768  0.5208 -0.5108
 8337TIP3   OH246425   2.154   3.109  16.052 -0.6348  0.1771 -0.6675
 8337TIP3    H146426   2.068   3.119  16.011 -0.6998  0.5148 -0.4483
 8337TIP3    H246427   2.200   3.047  15.995 -1.7126 -1.5786  0.2910
 8338TIP3   OH246428   2.906   6.131   2.251 -0.2550  0.4798 -0.2531
 8338TIP3    H146429   2.954   6.196   2.302 -0.3915 -0.0787  0.6066
 8338TIP3    H246430   2.920   6.048   2.297 -0.6982  0.0251 -0.9069
 8339TIP3   OH246431   3.825   5.352   4.552 -0.6264 -1.1171 -0.4787
 8339TIP3    H146432   3.895   5.288   4.558 -0.3478 -0.7825 -0.1643
 8339TIP3    H246433   3.861   5.432   4.591 -1.4188 -1.1406  0.3430
 8340TIP3   OH246434   3.739   5.442  15.855  0.6531  0.3400 -0.5069
 8340TIP3    H146435   3.658   5.459  15.903 -0.4824  0.7956 -2.4291
 8340TIP3    H246436   3.807   5.489  15.903 -0.2175  0.0009  1.1207
 8341TIP3   OH246437   4.382   0.513  11.125  0.2981  0.2207 -0.3284
 8341TIP3    H146438   4.353   0.562  11.048  0.2397 -0.4367 -0.7383
 8341TIP3    H246439   4.358   0.422  11.106 -1.4239  0.2728  1.2634
 8342TIP3   OH246440   2.711   6.239   2.417  0.4355  0.0660 -0.4878
 8342TIP3    H146441   2.767   6.260   2.342  2.1037 -0.6379  0.4970
 8342TIP3    H246442   2.748   6.289   2.490 -0.5763  0.0195  0.0737
 8343TIP3   OH246443   4.098   3.486   1.219 -0.1889 -0.0498  0.1931
 8343TIP3    H146444   4.049   3.454   1.144 -2.4503 -0.0930  1.5977
 8343TIP3    H246445   4.157   3.414   1.242  0.4697 -0.0640 -1.4467
 8344TIP3   OH246446   2.411   4.777   3.412  0.1977 -0.1661  0.3928
 8344TIP3    H146447   2.457   4.719   3.352 -0.1950  0.2717 -0.3370
 8344TIP3    H246448   2.476   4.843   3.436  0.1482  0.0748 -0.1233
 8345TIP3   OH246449   0.978   4.249   4.197 -0.4660 -0.3375 -0.2571
 8345TIP3    H146450   0.981   4.171   4.252  1.4516 -1.1563 -1.3972
 8345TIP3    H246451   1.037   4.311   4.240 -2.1680  0.6382  0.7767
 8346TIP3   OH246452   5.683   6.296  14.620  0.1871 -0.1414 -0.1925
 8346TIP3    H146453   5.756   6.307  14.560 -0.2007  1.9057 -0.3718
 8346TIP3    H246454   5.634   6.378  14.614 -1.7806 -1.1958  0.3837
 8347TIP3   OH246455   4.615   2.584  12.217 -0.9310 -0.3906 -0.5239
 8347TIP3    H146456   4.572   2.568  12.133 -0.3566  1.1473 -1.1309
 8347TIP3    H246457   4.705   2.609  12.194 -1.2150  1.6943  0.4029
 8348TIP3   OH246458   4.416   6.707  11.598 -0.6420  0.1686 -0.1362
 8348TIP3    H146459   4.448   6.795  11.618 -0.4034  0.1623 -0.4813
 8348TIP3    H246460   4.367   6.681  11.676  1.2062 -0.2999  0.9310
 8349TIP3   OH246461   6.607   6.669  15.556  0.0958  0.1596  0.1077
 8349TIP3    H146462   6.657   6.633  15.629  1.5725  2.4787  0.3702
 8349TIP3    H246463   6.517   6.642  15.572  0.5421 -0.2657  2.2396
 8350TIP3   OH246464   1.502   5.627  16.335 -0.1080  0.1222  0.1178
 8350TIP3    H146465   1.445   5.556  16.364  0.2883 -1.5763 -2.8661
 8350TIP3    H246466   1.591   5.590  16.339  0.1772  0.6704 -0.8204
 8351TIP3   OH246467   2.664   3.899   0.022  0.1398  0.4597 -0.1286
 8351TIP3    H146468   2.625   3.811   0.026 -1.1037  1.0243  1.0219
 8351TIP3    H246469   2.751   3.887   0.059  0.0869 -0.3412 -0.2313
 8352TIP3   OH246470   1.835   6.330  17.236  0.1585  0.2085  0.4496
 8352TIP3    H146471   1.759   6.285  17.274  0.7913 -1.5982 -0.3087
 8352TIP3    H246472   1.906   6.266  17.240  0.8225  0.7156 -1.6847
 8353TIP3   OH246473   1.380   1.247  16.063 -0.3008  0.7255 -0.1147
 8353TIP3    H146474   1.418   1.309  16.002  3.7508 -0.6563  0.7239
 8353TIP3    H246475   1.444   1.176  16.069 -4.2403 -3.3473 -0.4893
 8354TIP3   OH246476   3.003   4.350   3.919  0.5317 -0.1492  0.0051
 8354TIP3    H146477   2.968   4.438   3.901 -0.9882 -0.7344 -0.0854
 8354TIP3    H246478   3.044   4.358   4.005  0.3001  0.6220  0.0553
 8355TIP3   OH246479   5.208   5.002  16.375 -0.0869  0.2300 -0.0651
 8355TIP3    H146480   5.144   4.964  16.315 -0.3333  0.7438 -0.1375
 8355TIP3    H246481   5.226   5.089  16.338  0.3445  0.2472  0.1809
 8356TIP3   OH246482   2.230   6.317  17.074  0.2129 -0.0716  0.7644
 8356TIP3    H146483   2.231   6.345  17.165 -0.0954  2.3932  0.0808
 8356TIP3    H246484   2.301   6.365  17.033 -1.1446  0.7439 -0.7545
 8357TIP3   OH246485   0.795   1.098   2.602  0.2814 -0.9662  0.2546
 8357TIP3    H146486   0.878   1.111   2.646 -0.0455  3.0028  0.0655
 8357TIP3    H246487   0.812   1.122   2.511 -0.6723 -1.9477 -0.2126
 8358TIP3   OH246488   3.590   4.579  13.179  0.3327 -0.5760  0.2321
 8358TIP3    H146489   3.637   4.644  13.126 -0.4382 -1.2747 -1.3794
 8358TIP3    H246490   3.659   4.534  13.228  1.4601 -1.7866 -2.2984
 8359TIP3   OH246491   5.280   3.126   1.441 -0.0847  0.4123 -0.4775
 8359TIP3    H146492   5.326   3.060   1.389  0.4337  0.4402 -0.0548
 8359TIP3    H246493   5.303   3.106   1.532  1.3636  2.1371 -0.4171
 8360TIP3   OH246494   2.906   5.783   0.738  0.3309 -0.1597  0.0808
 8360TIP3    H146495   2.908   5.874   0.709  0.6935 -0.3418 -0.4738
 8360TIP3    H246496   2.885   5.733   0.660  0.7391 -0.6062  0.2538
 8361TIP3   OH246497   4.760   5.111   2.538 -0.2772 -0.9914  0.1563
 8361TIP3    H146498   4.676   5.146   2.568  0.8309  0.8420  1.2775
 8361TIP3    H246499   4.768   5.144   2.448 -0.8188 -1.3434 -0.0308
 8362TIP3   OH246500   0.398   3.985  17.124 -0.2238 -0.2652 -0.6819
 8362TIP3    H146501   0.490   4.011  17.137 -0.1045 -0.9270 -0.0959
 8362TIP3    H246502   0.352   4.024  17.198 -0.3502 -0.2565 -0.7655
 8363TIP3   OH246503   2.410   4.963   4.993  0.1278 -0.1064  0.0334
 8363TIP3    H146504   2.418   5.045   5.042  1.1757 -0.3831  0.3471
 8363TIP3    H246505   2.497   4.924   4.997 -0.5253 -1.5948  0.5199
 8364TIP3   OH246506   2.340   5.835   1.613  0.0627  0.3722  0.0848
 8364TIP3    H146507   2.390   5.909   1.581  0.6253  0.8455  1.9631
 8364TIP3    H246508   2.374   5.818   1.701 -0.9048 -1.3241  0.1880
 8365TIP3   OH246509   6.691   2.652   1.600 -0.1356  0.1375  0.5499
 8365TIP3    H146510   6.625   2.703   1.553 -0.5760 -0.4873  0.4866
 8365TIP3    H246511   6.719   2.586   1.538  0.6846  0.5003  0.5187
 8366TIP3   OH246512   1.963   1.971  16.754 -0.1351  0.1862 -0.4210
 8366TIP3    H146513   1.928   2.055  16.784  1.3553  0.6070  0.2062
 8366TIP3    H246514   1.925   1.907  16.815 -1.0778  0.4103 -0.7474
 8367TIP3   OH246515   1.537   6.195  17.214  0.5545  0.4904  0.0324
 8367TIP3    H146516   1.606   6.130  17.219  0.0974 -0.1119 -1.0840
 8367TIP3    H246517   1.531   6.216  17.121  0.6281  2.0687  0.3492
 8368TIP3   OH246518   1.740   0.948  13.772  0.5077 -0.2973 -0.0525
 8368TIP3    H146519   1.690   0.965  13.692  0.1549 -1.2852 -0.0550
 8368TIP3    H246520   1.825   0.987  13.755 -0.0840  0.9768 -0.2459
 8369TIP3   OH246521   2.406   0.271  11.648 -0.9666  0.1902 -1.0179
 8369TIP3    H146522   2.426   0.310  11.564 -1.1255  1.0739 -0.6512
 8369TIP3    H246523   2.324   0.311  11.675 -0.9306 -0.1032 -0.4490
 8370TIP3   OH246524   2.383   0.854  15.931  0.4238 -0.3037  0.4437
 8370TIP3    H146525   2.313   0.796  15.901  0.3772  0.5326 -1.2038
 8370TIP3    H246526   2.368   0.936  15.883  2.1426  0.1099  0.5468
 8371TIP3   OH246527   5.454   0.995  14.748 -0.0126 -0.1543  0.6173
 8371TIP3    H146528   5.454   0.962  14.838  0.3085  2.0190  1.4678
 8371TIP3    H246529   5.544   0.983  14.718 -0.5640 -2.8505 -0.2685
 8372TIP3   OH246530   5.564   3.997  13.740  0.0872 -0.4896  0.2367
 8372TIP3    H146531   5.607   3.996  13.826  1.4302 -0.8175 -0.4154
 8372TIP3    H246532   5.595   3.918  13.696 -0.9565 -0.5759 -0.3909
 8373TIP3   OH246533   1.167   3.958   4.646  0.1283 -0.2327 -0.3528
 8373TIP3    H146534   1.102   3.961   4.717  0.9812 -2.1451  0.5929
 8373TIP3    H246535   1.232   4.023   4.671 -0.9645  1.1178 -0.8856
 8374TIP3   OH246536   3.187   1.598  14.708  0.1387  0.8465 -0.1509
 8374TIP3    H146537   3.159   1.509  14.730  0.3107  0.3885 -1.6902
 8374TIP3    H246538   3.141   1.654  14.770 -0.9806 -0.2121  0.0013
 8375TIP3   OH246539   0.031   2.314   0.728 -0.7160 -0.2808 -0.0323
 8375TIP3    H146540  -0.056   2.277   0.745  0.4065 -2.6828  0.9163
 8375TIP3    H246541   0.068   2.258   0.659  0.6717 -0.3610  0.7331
 8376TIP3   OH246542   5.550   5.690  13.358 -0.6545 -0.0059  0.1872
 8376TIP3    H146543   5.482   5.627  13.333 -1.1596  0.0703  1.3102
 8376TIP3    H246544   5.503   5.772  13.374 -0.2286  0.2063  0.3891
 8377TIP3   OH246545   5.086   4.605   5.111  0.1408  0.8008 -0.0301
 8377TIP3    H146546   5.036   4.567   5.039  1.4322 -0.4011 -0.3296
 8377TIP3    H246547   5.055   4.558   5.188  0.4146  0.4528 -0.1330
 8378TIP3   OH246548   0.419   6.310   2.078  0.2828 -0.6409 -0.1306
 8378TIP3    H146549   0.405   6.328   1.985 -1.1405  0.2441  0.2215
 8378TIP3    H246550   0.431   6.215   2.083  1.3847 -0.5946 -1.3050
 8379TIP3   OH246551   1.687   0.434  12.925 -0.5536  0.4178 -0.4924
 8379TIP3    H146552   1.763   0.423  12.983 -0.2917  3.2739 -0.1747
 8379TIP3    H246553   1.725   0.455  12.840 -0.8119  4.2624  0.1724
 8380TIP3   OH246554   1.595   3.990  17.006  0.1037  1.3502 -0.1700
 8380TIP3    H146555   1.629   3.917  16.955 -1.0497 -0.0659  1.0148
 8380TIP3    H246556   1.673   4.036  17.037  0.9227 -0.3743  0.4484
 8381TIP3   OH246557   4.404   1.769  11.937  0.4985 -0.2755 -0.1754
 8381TIP3    H146558   4.357   1.850  11.956  1.0796  0.3001 -1.1149
 8381TIP3    H246559   4.339   1.700  11.950 -0.0412  0.3435  0.5086
 8382TIP3   OH246560   4.648   2.181   3.661 -0.1701 -0.3308  0.2357
 8382TIP3    H146561   4.616   2.100   3.702  0.6270 -1.0106 -0.4571
 8382TIP3    H246562   4.733   2.197   3.702 -0.7121  0.6648  1.0154
 8383TIP3   OH246563   4.393   1.285   5.569  0.5849 -0.7611 -0.1664
 8383TIP3    H146564   4.455   1.219   5.597 -0.1207 -0.3655  2.6650
 8383TIP3    H246565   4.314   1.236   5.546  0.4982 -1.0067  0.6283
 8384TIP3   OH246566   0.418   4.375   3.103  0.3130  0.7803  0.8939
 8384TIP3    H146567   0.489   4.323   3.066  0.6905  0.3766  2.1743
 8384TIP3    H246568   0.431   4.463   3.066  0.7991  0.4423  0.2484
 8385TIP3   OH246569   5.242   3.796   2.531 -0.4360  0.2199  0.1535
 8385TIP3    H146570   5.300   3.729   2.566  1.2324  1.2478 -0.5629
 8385TIP3    H246571   5.290   3.835   2.459 -1.8263  1.4450 -0.1583
 8386TIP3   OH246572   1.101   1.133  11.373  0.0328  0.5786  0.5836
 8386TIP3    H146573   1.134   1.100  11.290  1.8448  0.1189  1.4535
 8386TIP3    H246574   1.065   1.055  11.417 -0.6465  0.7671  0.3751
 8387TIP3   OH246575   5.430   4.362   4.430 -0.3561 -0.0512 -0.1355
 8387TIP3    H146576   5.489   4.415   4.483 -0.6264 -0.7646  0.9140
 8387TIP3    H246577   5.457   4.378   4.339 -0.6111  2.0672  0.1242
 8388TIP3   OH246578   4.033   4.226   0.933 -0.3265 -0.6146  0.0542
 8388TIP3    H146579   4.027   4.321   0.933 -2.2371 -0.7049  0.5278
 8388TIP3    H246580   4.041   4.202   1.026  1.3100 -0.9010 -0.1199
 8389TIP3   OH246581   2.542   6.656   1.686 -0.0695  0.0242 -0.4846
 8389TIP3    H146582   2.576   6.620   1.603 -2.0533 -2.8138 -0.1980
 8389TIP3    H246583   2.485   6.727   1.659  0.1759 -0.1416 -1.4955
 8390TIP3   OH246584   1.231   0.372  14.734  0.1690 -0.1542 -0.1209
 8390TIP3    H146585   1.139   0.373  14.712  0.3814 -1.8800 -1.2876
 8390TIP3    H246586   1.265   0.455  14.703 -0.2881 -0.9928 -3.1295
 8391TIP3   OH246587   0.386   3.713   2.017  0.2972 -0.3330  0.4855
 8391TIP3    H146588   0.374   3.794   2.067  1.0312 -0.4325  0.8392
 8391TIP3    H246589   0.469   3.725   1.972  1.2290 -1.5234  1.8108
 8392TIP3   OH246590   6.453   6.736   2.156  0.1969  0.2851  0.3887
 8392TIP3    H146591   6.467   6.737   2.250  0.7260 -1.3590  0.3566
 8392TIP3    H246592   6.509   6.807   2.123  2.0825 -0.7827  1.0923
 8393TIP3   OH246593   2.538   5.572   3.058 -0.1797 -0.3207 -0.1425
 8393TIP3    H146594   2.498   5.511   3.120  1.3243 -1.4501 -0.2047
 8393TIP3    H246595   2.466   5.600   3.002 -1.1745 -0.9466  0.7809
 8394TIP3   OH246596   1.991   2.672   5.118 -0.1144  0.2804  0.1198
 8394TIP3    H146597   2.073   2.719   5.103 -0.3423  1.1662  1.4312
 8394TIP3    H246598   1.960   2.705   5.203 -0.6766 -1.7018  0.7324
 8395TIP3   OH246599   2.350   3.698  11.593  0.2158  0.0339  0.2122
 8395TIP3    H146600   2.295   3.743  11.528  0.8468 -1.2582 -1.3027
 8395TIP3    H246601   2.312   3.610  11.598 -0.1262  0.2567  2.0233
 8396TIP3   OH246602   3.301   4.906  16.525 -0.0785  0.2863  0.5157
 8396TIP3    H146603   3.351   4.841  16.574  0.9112  0.7887  0.2061
 8396TIP3    H246604   3.325   4.890  16.433 -0.8120  0.2626  0.3262
 8397TIP3   OH246605   3.886   6.687   5.262 -0.0813 -0.3033  0.5095
 8397TIP3    H146606   3.802   6.714   5.301  0.4491 -0.1269  1.5742
 8397TIP3    H246607   3.879   6.713   5.170 -0.3174  1.8405  1.0721
 8398TIP3   OH246608   6.718   1.791   5.484  0.1075  0.0750 -0.5875
 8398TIP3    H146609   6.764   1.853   5.428 -0.5276  1.1553  0.0484
 8398TIP3    H246610   6.673   1.846   5.549  2.3322 -1.1269  2.2050
 8399TIP3   OH246611   0.353   1.406  11.982 -0.0064 -0.0226  0.3180
 8399TIP3    H146612   0.434   1.356  11.970 -0.3635 -0.7494  0.8288
 8399TIP3    H246613   0.376   1.472  12.047 -0.0235 -0.7540  1.0977
 8400TIP3   OH246614   0.966   3.785   0.905 -0.3524 -0.0981  0.5445
 8400TIP3    H146615   0.919   3.771   0.822  0.4111 -0.3932  0.1562
 8400TIP3    H246616   1.027   3.856   0.885  0.5100 -0.8294  0.5763
 8401TIP3   OH246617   1.849   5.420  16.539  0.3687  0.2232  0.2792
 8401TIP3    H146618   1.792   5.402  16.464 -0.4082  0.7419  0.7340
 8401TIP3    H246619   1.799   5.389  16.615  1.3920 -0.8444  0.5533
 8402TIP3   OH246620   3.148   0.461  13.877  0.2337 -0.0019  0.0922
 8402TIP3    H146621   3.197   0.516  13.816 -0.1720 -0.0594 -0.2938
 8402TIP3    H246622   3.057   0.490  13.867  0.2376  0.4222  1.1356
 8403TIP3   OH246623   3.796   6.484   1.043  0.1030 -0.7633  0.3642
 8403TIP3    H146624   3.724   6.422   1.056 -0.4684 -0.6392 -1.8713
 8403TIP3    H246625   3.765   6.544   0.976  1.6471  0.3847  0.6042
 8404TIP3   OH246626   5.737   1.507   5.939 -0.1455 -0.5763 -0.5762
 8404TIP3    H146627   5.770   1.580   5.992 -1.6607  0.2652 -0.7622
 8404TIP3    H246628   5.722   1.545   5.852  0.8493 -1.5804 -1.2113
 8405TIP3   OH246629   1.609   6.713   2.015  0.2286  0.4226  0.1952
 8405TIP3    H146630   1.520   6.707   1.981 -0.6027 -0.6086  2.4150
 8405TIP3    H246631   1.659   6.651   1.961 -0.2035  1.4216 -1.4399
 8406TIP3   OH246632   0.438   2.833   2.097  0.4166  0.3206  0.0314
 8406TIP3    H146633   0.500   2.810   2.027 -0.5819  0.3628 -0.8768
 8406TIP3    H246634   0.466   2.778   2.171  1.6557  0.4775 -0.2949
 8407TIP3   OH246635   5.824   3.323   5.083 -0.7301 -0.2297  0.0769
 8407TIP3    H146636   5.842   3.417   5.082 -1.0119 -0.1571  1.0383
 8407TIP3    H246637   5.748   3.313   5.141  0.8233 -1.2937  2.0626
 8408TIP3   OH246638   6.486   2.687  14.270 -0.0382  0.0472 -0.0160
 8408TIP3    H146639   6.461   2.710  14.359  1.2061  2.2258 -0.1589
 8408TIP3    H246640   6.405   2.697  14.219  0.1316  3.4282  0.1387
 8409TIP3   OH246641   2.428   6.022   2.877  0.1055  0.2540 -0.5575
 8409TIP3    H146642   2.416   6.034   2.783  0.4035 -1.4790 -0.8500
 8409TIP3    H246643   2.365   6.082   2.917 -2.1575 -1.0914 -1.9093
 8410TIP3   OH246644   3.517   5.297  11.720 -0.1390 -0.4251 -0.2281
 8410TIP3    H146645   3.425   5.322  11.710 -0.1754 -1.4015 -3.0190
 8410TIP3    H246646   3.521   5.206  11.691  1.4137 -1.1165  1.8553
 8411TIP3   OH246647   4.017   1.065   2.690  0.1474  0.3038 -0.4030
 8411TIP3    H146648   4.053   1.092   2.606 -1.1522  0.5920 -0.8854
 8411TIP3    H246649   4.035   0.971   2.695 -0.9347  0.0071 -1.6189
 8412TIP3   OH246650   3.585   6.534  13.244  0.7169  0.1964  1.2031
 8412TIP3    H146651   3.655   6.513  13.182 -0.1651  0.4122  0.1014
 8412TIP3    H246652   3.569   6.627  13.231  0.0334  0.0859  1.2261
 8413TIP3   OH246653   2.192   0.928  12.338  0.0103  0.0642 -0.0590
 8413TIP3    H146654   2.168   0.932  12.246 -0.0325 -1.5480 -0.1538
 8413TIP3    H246655   2.228   0.840  12.350 -1.9459 -0.5837  1.9030
 8414TIP3   OH246656   1.712   4.697   5.732  0.2612 -0.0987 -0.5362
 8414TIP3    H146657   1.800   4.723   5.760  0.0389  0.5588 -0.4300
 8414TIP3    H246658   1.669   4.780   5.710 -0.4231 -0.3947 -0.3164
 8415TIP3   OH246659   5.013   6.450   2.631 -0.3996 -0.2137 -0.0278
 8415TIP3    H146660   4.925   6.450   2.669  0.3755  0.8437  1.9009
 8415TIP3    H246661   5.043   6.359   2.640 -0.7449 -0.2645  0.6808
 8416TIP3   OH246662   1.992   3.683   3.691  0.6667 -0.2917 -0.7274
 8416TIP3    H146663   2.008   3.776   3.704  0.2469 -0.4042  0.7906
 8416TIP3    H246664   1.930   3.679   3.619  0.5814  0.6162 -0.7147
 8417TIP3   OH246665   3.236   0.819   5.400  0.0052 -0.6107  0.0551
 8417TIP3    H146666   3.266   0.823   5.492 -0.4355 -0.4983  0.1945
 8417TIP3    H246667   3.290   0.884   5.355 -0.9407  0.5589  0.5699
 8418TIP3   OH246668   6.539   1.968   3.734  0.0274  0.0970  0.1027
 8418TIP3    H146669   6.607   1.914   3.692  1.0457  1.1434  0.3384
 8418TIP3    H246670   6.498   2.016   3.662  0.4953  0.4914  0.0917
 8419TIP3   OH246671   0.172   1.298   6.201  0.0771  0.1056 -0.3191
 8419TIP3    H146672   0.166   1.207   6.229  0.0970  0.5121  1.0804
 8419TIP3    H246673   0.204   1.294   6.111  1.8384 -1.1903  0.3320
 8420TIP3   OH246674   3.399   2.109   2.857  0.4946 -0.3225 -0.0330
 8420TIP3    H146675   3.396   2.084   2.765  0.2001 -1.5296  0.2844
 8420TIP3    H246676   3.333   2.053   2.899  0.7417  0.0888  0.9356
 8421TIP3   OH246677   4.143   0.653  12.071 -0.6441  0.6270  0.2537
 8421TIP3    H146678   4.114   0.646  11.980 -1.9256  2.0796  0.5150
 8421TIP3    H246679   4.216   0.715  12.068 -1.4537  1.6160  0.3312
 8422TIP3   OH246680   4.696   3.046   3.670  0.0479  0.5953  0.3195
 8422TIP3    H146681   4.722   2.983   3.603  1.7420 -1.0200  2.3398
 8422TIP3    H246682   4.735   3.129   3.643 -0.0054  0.1900 -1.0732
 8423TIP3   OH246683   1.096   1.670   0.507  0.8324  0.4461 -0.6310
 8423TIP3    H146684   1.099   1.658   0.413 -0.3317  0.4320 -0.6829
 8423TIP3    H246685   1.151   1.747   0.524  2.2359 -0.4087 -1.1314
 8424TIP3   OH246686   5.795   6.119  12.507  0.7201 -0.4882  0.0008
 8424TIP3    H146687   5.774   6.139  12.599  0.8100 -1.4018  0.2356
 8424TIP3    H246688   5.710   6.100  12.467  0.5542  0.9416 -0.3963
 8425TIP3   OH246689   6.315   5.994   5.159 -0.5357  0.2534  0.0658
 8425TIP3    H146690   6.357   6.066   5.111 -0.7995  0.6599  0.4364
 8425TIP3    H246691   6.384   5.928   5.168 -0.0987  0.7324  0.2874
 8426TIP3   OH246692   1.170   4.588   1.210 -0.6867 -1.0956 -0.3632
 8426TIP3    H146693   1.182   4.649   1.283 -1.2487 -1.1407 -0.2249
 8426TIP3    H246694   1.175   4.501   1.249 -0.1940 -1.1348 -0.5100
 8427TIP3   OH246695   4.884   0.902  14.776  0.2143  0.2117  0.2701
 8427TIP3    H146696   4.847   0.836  14.835 -2.0562  0.5909 -0.6286
 8427TIP3    H246697   4.946   0.854  14.721 -0.6314 -0.9788  0.3236
 8428TIP3   OH246698   1.653   0.934   2.521 -0.6757 -0.9841  0.6319
 8428TIP3    H146699   1.576   0.952   2.468  0.2320 -1.7175 -0.9945
 8428TIP3    H246700   1.618   0.921   2.610 -2.4992 -1.9767 -0.1683
 8429TIP3   OH246701   1.410   2.163   4.812  0.4743 -0.6025  0.4555
 8429TIP3    H146702   1.418   2.091   4.750  1.4094 -1.8667  1.9738
 8429TIP3    H246703   1.500   2.193   4.826  0.3511 -0.7332  1.6214
 8430TIP3   OH246704   0.452   3.092   0.867  0.6897 -0.0080 -0.3861
 8430TIP3    H146705   0.510   3.061   0.797  1.3035 -0.0429  0.1205
 8430TIP3    H246706   0.366   3.099   0.826  0.7438 -1.3713 -0.7826
 8431TIP3   OH246707   5.081   5.920  14.772  0.3792  0.0348 -0.0401
 8431TIP3    H146708   5.117   5.929  14.861 -1.7189 -1.4031  1.0395
 8431TIP3    H246709   5.157   5.896  14.718  1.7582  1.2501  1.2790
 8432TIP3   OH246710   6.148   5.113  14.243  0.4782  0.3954 -0.3967
 8432TIP3    H146711   6.142   5.134  14.150  0.6321 -1.0643 -0.7522
 8432TIP3    H246712   6.188   5.191  14.282  0.7940  0.8703 -1.6121
 8433TIP3   OH246713   5.595   0.954   0.792  0.4900  0.1530  0.3485
 8433TIP3    H146714   5.532   1.004   0.843 -1.2540  1.2923 -2.6419
 8433TIP3    H246715   5.567   0.863   0.799  0.2270  0.2985  1.2792
 8434TIP3   OH246716   1.392   6.169  13.617  0.0681 -0.0054 -0.1425
 8434TIP3    H146717   1.342   6.177  13.698  0.0266  1.9264 -0.3222
 8434TIP3    H246718   1.330   6.133  13.553  0.1033 -1.5349  0.6428
 8435TIP3   OH246719   5.434   0.244   0.818  0.4578  0.1187 -0.1769
 8435TIP3    H146720   5.443   0.150   0.802 -0.1631  0.0705 -0.2551
 8435TIP3    H246721   5.523   0.278   0.814  0.7449 -0.5466  0.3483
 8436TIP3   OH246722   2.075   2.631   2.556  0.7435 -0.2341 -0.2834
 8436TIP3    H146723   2.123   2.568   2.610 -0.2848 -0.2838  0.5915
 8436TIP3    H246724   2.035   2.578   2.487  2.2773 -0.1373 -1.3087
 8437TIP3   OH246725   5.686   5.120  11.811  0.0950 -0.1210 -0.3800
 8437TIP3    H146726   5.609   5.086  11.857 -1.6086  1.5808 -1.8236
 8437TIP3    H246727   5.715   5.194  11.864  1.0654 -1.0191  0.3937
 8438TIP3   OH246728   3.143   3.536  15.035 -0.1078 -0.2688 -0.2314
 8438TIP3    H146729   3.222   3.539  14.981 -0.5151 -1.4385 -0.9356
 8438TIP3    H246730   3.145   3.618  15.084  0.1813  0.9639 -2.1680
 8439TIP3   OH246731   2.477   0.008  11.765 -0.2524 -0.1803 -0.2942
 8439TIP3    H146732   2.558   0.050  11.794 -1.4852  1.8325  0.4514
 8439TIP3    H246733   2.442   0.067  11.698 -1.9875  0.0061  0.6967
 8440TIP3   OH246734   6.322   1.134  17.187  0.0051 -0.1673  0.3253
 8440TIP3    H146735   6.337   1.124  17.281  0.1128 -0.1088  0.3157
 8440TIP3    H246736   6.229   1.114  17.175 -0.2678  0.8965  0.6034
 8441TIP3   OH246737   4.829   4.257   4.391 -0.1295  0.1065 -0.1349
 8441TIP3    H146738   4.859   4.175   4.350  1.2753 -0.5967  2.1037
 8441TIP3    H246739   4.785   4.304   4.321  0.7892 -1.6776 -2.0254
 8442TIP3   OH246740   6.686   2.596   2.724  0.1861  0.3771  0.0310
 8442TIP3    H146741   6.718   2.543   2.651  0.6991 -0.7504  1.0439
 8442TIP3    H246742   6.593   2.574   2.731  0.1995  0.2763 -0.1099
 8443TIP3   OH246743   4.899   5.506  13.597  0.0685 -0.6781  0.0594
 8443TIP3    H146744   4.878   5.596  13.620  1.5849 -0.0160 -0.9495
 8443TIP3    H246745   4.990   5.510  13.566  0.5028 -2.7283  0.9123
 8444TIP3   OH246746   6.114   0.088   0.200 -0.1621 -0.5469 -0.0978
 8444TIP3    H146747   6.114   0.142   0.121 -2.8398 -1.8930 -1.1197
 8444TIP3    H246748   6.179   0.020   0.182 -0.8541 -0.9266 -1.2328
 8445TIP3   OH246749   4.032   0.806  13.522  0.0731 -0.2419  0.2997
 8445TIP3    H146750   4.085   0.882  13.544 -1.3635  0.4864  1.4611
 8445TIP3    H246751   4.041   0.797  13.427  0.5720  1.1641  0.1923
 8446TIP3   OH246752   1.036   5.743  11.101 -0.3736  0.0052 -0.4492
 8446TIP3    H146753   1.113   5.797  11.120  0.4191 -1.2566  0.0181
 8446TIP3    H246754   1.019   5.696  11.182  0.4099 -2.2004 -1.4745
 8447TIP3   OH246755   2.841   6.676  13.356 -0.4361  0.3183 -0.2232
 8447TIP3    H146756   2.864   6.680  13.263 -0.1313 -1.6299 -0.2809
 8447TIP3    H246757   2.746   6.687  13.358 -0.3132  1.6867 -0.6075
 8448TIP3   OH246758   1.045   5.004  11.329  0.4266 -0.2731  0.7738
 8448TIP3    H146759   1.119   5.008  11.390  1.7714  2.9737 -0.7975
 8448TIP3    H246760   1.084   4.987  11.244 -0.6152  1.2164 -0.0568
 8449TIP3   OH246761   0.326   0.158  12.225  0.0189 -0.6725 -0.1060
 8449TIP3    H146762   0.248   0.213  12.214  0.1842 -0.7309 -1.8004
 8449TIP3    H246763   0.303   0.074  12.185  0.1704 -1.4985  1.4534
 8450TIP3   OH246764   4.064   2.687  14.604 -0.7849  0.3441  0.4998
 8450TIP3    H146765   3.977   2.721  14.624 -0.4535  1.1709  0.5760
 8450TIP3    H246766   4.056   2.650  14.517 -1.6509 -1.1873  1.1911
 8451TIP3   OH246767   0.967   1.170  11.828  0.1430  0.7684 -0.1081
 8451TIP3    H146768   0.935   1.230  11.761 -1.4025 -1.3957 -1.4143
 8451TIP3    H246769   1.041   1.125  11.786 -0.2148  0.0988 -0.0419
 8452TIP3   OH246770   2.888   1.364  11.665 -0.1246  0.2039  0.4285
 8452TIP3    H146771   2.934   1.294  11.619 -0.4588 -0.9873  1.8051
 8452TIP3    H246772   2.801   1.367  11.625 -0.3635 -0.7205  0.8461
 8453TIP3   OH246773   4.013   4.693  12.111 -0.0978  0.1882 -0.0893
 8453TIP3    H146774   3.925   4.723  12.088  1.3127  2.6867 -2.8694
 8453TIP3    H246775   4.014   4.600  12.090 -2.4125 -0.2427  1.3659
 8454TIP3   OH246776   3.199   1.919   1.947 -0.1943  0.1335 -0.0297
 8454TIP3    H146777   3.231   1.906   1.857  0.9894 -0.5906  0.4833
 8454TIP3    H246778   3.148   2.000   1.942 -0.0774  0.1568 -1.3362
 8455TIP3   OH246779   1.808   5.321   5.704  0.8178  0.3090  0.1910
 8455TIP3    H146780   1.793   5.273   5.785 -1.3851  3.2004  1.6989
 8455TIP3    H246781   1.904   5.324   5.695  1.0598 -1.8364  1.4883
 8456TIP3   OH246782   3.353   5.827   2.089 -0.3036 -0.0401 -0.2247
 8456TIP3    H146783   3.401   5.759   2.042  0.7119  1.6079 -1.7246
 8456TIP3    H246784   3.275   5.783   2.122  0.5571 -2.0250 -0.6841
 8457TIP3   OH246785   4.018   5.294  11.940  0.4028  0.5880 -0.0703
 8457TIP3    H146786   4.022   5.293  12.036  2.4053 -1.0176 -0.0998
 8457TIP3    H246787   4.103   5.329  11.913  0.4413 -0.3620 -1.2559
 8458TIP3   OH246788   2.962   4.257  15.779  0.3131 -0.1656 -0.4131
 8458TIP3    H146789   2.933   4.306  15.702  2.2334  2.0251  0.1555
 8458TIP3    H246790   3.053   4.283  15.790  0.4934 -1.5535  1.7792
 8459TIP3   OH246791   6.596   5.897  12.930 -0.2517 -0.2344 -0.3250
 8459TIP3    H146792   6.621   5.988  12.914 -1.5473  0.0617 -0.8536
 8459TIP3    H246793   6.620   5.881  13.022  2.5141 -0.2804 -0.9794
 8460TIP3   OH246794   4.582   2.716  13.670  0.4508  0.1309 -0.2138
 8460TIP3    H146795   4.492   2.734  13.644  0.5265  0.3047 -0.3503
 8460TIP3    H246796   4.599   2.776  13.743  0.7884  0.8050 -0.8346
 8461TIP3   OH246797   2.306   0.118  15.814 -0.3590 -0.2574  0.1485
 8461TIP3    H146798   2.224   0.081  15.845 -0.8776  0.9527  0.2454
 8461TIP3    H246799   2.280   0.189  15.755  0.6118  0.2089  0.2644
 8462TIP3   OH246800   1.406   3.917   1.518 -0.6257  0.0237  0.8548
 8462TIP3    H146801   1.318   3.896   1.550 -1.3011 -0.3357 -1.1151
 8462TIP3    H246802   1.418   3.859   1.443  1.1925  0.2753  0.9289
 8463TIP3   OH246803   3.900   3.616   2.564 -0.2583 -0.2215  1.1114
 8463TIP3    H146804   3.942   3.701   2.580 -2.0953  1.6375 -2.5501
 8463TIP3    H246805   3.968   3.563   2.523 -0.2236  1.2507 -0.8789
 8464TIP3   OH246806   5.938   3.131  10.439  0.0007 -0.5964 -0.3704
 8464TIP3    H146807   5.986   3.060  10.480  0.5045 -0.6194 -0.9830
 8464TIP3    H246808   5.847   3.102  10.439  0.1219 -0.9833 -0.0929
 8465TIP3   OH246809   0.920   3.078   6.477 -0.2975  0.3296 -0.0395
 8465TIP3    H146810   0.851   3.027   6.433 -0.5668 -0.0751  0.8394
 8465TIP3    H246811   0.876   3.117   6.552  0.3730  0.2890  0.3728
 8466TIP3   OH246812   6.610   1.040   3.140 -0.6272 -1.0519 -0.5355
 8466TIP3    H146813   6.642   0.951   3.124 -1.1286 -1.2427 -0.4892
 8466TIP3    H246814   6.522   1.028   3.175 -0.8821 -0.5249 -0.9707
 8467TIP3   OH246815   1.773   3.854  11.608 -0.5369 -0.1316 -0.3164
 8467TIP3    H146816   1.777   3.885  11.518 -0.0894  1.6037  0.2426
 8467TIP3    H246817   1.843   3.902  11.653 -0.2535 -1.5230  0.7986
 8468TIP3   OH246818   4.708   2.177  15.959  0.0726  0.5356 -0.2707
 8468TIP3    H146819   4.665   2.134  16.033  0.4008 -0.4983 -0.6667
 8468TIP3    H246820   4.716   2.109  15.893 -0.5574  1.5379 -1.4193
 8469TIP3   OH246821   1.595   1.623   0.680  0.1014  0.2215  0.3728
 8469TIP3    H146822   1.542   1.648   0.756 -1.6265 -0.1449 -0.6776
 8469TIP3    H246823   1.551   1.547   0.644 -1.4707  2.5810 -3.2592
 8470TIP3   OH246824   2.201   2.194   3.686 -0.1091  0.0834 -0.0307
 8470TIP3    H146825   2.287   2.231   3.707 -0.3389  1.5161 -1.3958
 8470TIP3    H246826   2.218   2.101   3.671  1.0729  0.2139  0.3862
 8471TIP3   OH246827   1.160   6.085  14.946 -0.5283 -0.1615 -0.1549
 8471TIP3    H146828   1.106   6.149  14.992 -0.5625 -0.6468  0.4836
 8471TIP3    H246829   1.097   6.025  14.905 -0.4899 -0.8150  0.7127
 8472TIP3   OH246830   5.878   0.152  17.007  0.2159 -0.1544  0.3141
 8472TIP3    H146831   5.884   0.095  16.931  0.4620 -1.3587  1.2039
 8472TIP3    H246832   5.960   0.202  17.006 -0.4534  1.0073 -1.0597
 8473TIP3   OH246833   3.178   4.002   5.669 -0.1641 -0.3867 -0.0765
 8473TIP3    H146834   3.226   3.934   5.621  0.8971  0.3040 -0.0437
 8473TIP3    H246835   3.120   4.041   5.603  0.0838 -0.5363 -0.3868
 8474TIP3   OH246836   1.843   2.765  17.209 -0.3117 -0.5702  0.4506
 8474TIP3    H146837   1.879   2.765  17.298 -0.1695 -1.0797  0.3928
 8474TIP3    H246838   1.890   2.836  17.164  0.3226 -0.9631  0.4897
 8475TIP3   OH246839   1.896   2.992   2.202 -0.1679 -0.1479 -0.1095
 8475TIP3    H146840   1.846   3.026   2.276  0.0901 -0.4248  0.1952
 8475TIP3    H246841   1.981   2.968   2.239  0.4316  0.9281 -0.7477
 8476TIP3   OH246842   0.791   1.950  17.136  0.3564 -0.1058 -0.1562
 8476TIP3    H146843   0.845   1.886  17.090  0.1304 -0.7859  0.5036
 8476TIP3    H246844   0.707   1.949  17.089  0.5067  0.0510 -0.4308
 8477TIP3   OH246845   0.522   0.063  17.122  0.0643  0.2593  0.0575
 8477TIP3    H146846   0.575   0.092  17.048 -1.8363 -1.6398 -2.2100
 8477TIP3    H246847   0.511   0.142  17.176  1.1730  1.8514 -1.8886
 8478TIP3   OH246848   1.273   5.966   1.643  0.3124  0.2025  0.4627
 8478TIP3    H146849   1.336   6.038   1.650  0.2320  0.2488  0.7028
 8478TIP3    H246850   1.243   5.970   1.552  1.6854 -0.6778 -0.0702
 8479TIP3   OH246851   4.034   5.161   4.584 -0.1533 -0.1099  0.0577
 8479TIP3    H146852   3.965   5.096   4.595 -1.2942  1.3890  2.2772
 8479TIP3    H246853   4.089   5.151   4.662 -0.6707  1.9014  0.7292
 8480TIP3   OH246854   3.550   4.142  12.023  0.8278 -0.5698  0.5847
 8480TIP3    H146855   3.601   4.168  12.100  1.3388  1.1577 -0.2673
 8480TIP3    H246856   3.616   4.120  11.957  0.5453  1.4892 -0.4672
 8481TIP3   OH246857   2.956   6.669   4.954 -0.7432  0.1711  0.0473
 8481TIP3    H146858   3.009   6.593   4.932  1.7199  1.3412  1.5632
 8481TIP3    H246859   2.961   6.725   4.877  0.4827  0.3727  0.2560
 8482TIP3   OH246860   3.712   4.709   5.032  0.1140 -0.2491  0.3207
 8482TIP3    H146861   3.711   4.635   5.093 -0.6671 -1.3196 -0.9392
 8482TIP3    H246862   3.781   4.688   4.969 -0.9053 -0.5200 -0.7383
 8483TIP3   OH246863   3.074   0.299  15.597  0.0678 -0.7072 -0.6950
 8483TIP3    H146864   3.017   0.338  15.531 -1.4849 -1.6368  0.0368
 8483TIP3    H246865   3.142   0.254  15.547  0.2121  0.4652 -1.5891
 8484TIP3   OH246866   1.173   0.311   2.435  0.3405  0.5334  0.2616
 8484TIP3    H146867   1.214   0.303   2.521 -0.6222 -1.8479  0.5797
 8484TIP3    H246868   1.105   0.378   2.446 -1.6611 -1.6414  2.2504
 8485TIP3   OH246869   2.825   3.532   0.029 -0.4353  0.3710 -0.5975
 8485TIP3    H146870   2.854   3.613   0.071  1.9263  0.0405 -1.4247
 8485TIP3    H246871   2.776   3.560  -0.048 -2.3481  0.9610  0.7641
 8486TIP3   OH246872   0.117   5.844  13.763  0.3136 -0.0303  0.5945
 8486TIP3    H146873   0.094   5.784  13.833  0.2622  2.4751  2.8776
 8486TIP3    H246874   0.048   5.831  13.697 -1.3082 -0.4974  2.3001
 8487TIP3   OH246875   5.551   3.849  12.820 -0.1348 -0.2366 -0.0330
 8487TIP3    H146876   5.474   3.793  12.814  0.7210 -1.4896  0.2752
 8487TIP3    H246877   5.524   3.921  12.877 -1.4377  0.0053 -0.9189
 8488TIP3   OH246878   6.586   3.080  12.667  0.1073 -0.7224  0.2961
 8488TIP3    H146879   6.498   3.046  12.647 -0.7993 -0.1114  2.7872
 8488TIP3    H246880   6.637   3.001  12.686  0.3114 -1.1244 -1.7064
 8489TIP3   OH246881   1.971   5.614   5.590 -0.2830 -0.5366 -0.2640
 8489TIP3    H146882   2.043   5.662   5.549  0.6735  1.7176  3.5199
 8489TIP3    H246883   2.007   5.527   5.607  1.0164  0.0369  0.0741
 8490TIP3   OH246884   5.113   0.862  12.379  0.4985 -0.4542 -0.3357
 8490TIP3    H146885   5.137   0.828  12.293  0.0545  0.6705 -0.9321
 8490TIP3    H246886   5.166   0.942  12.389 -0.4419  0.1707 -0.1821
 8491TIP3   OH246887   2.194   3.009   2.303  0.4872  0.4182 -0.4999
 8491TIP3    H146888   2.245   3.025   2.383  1.4635 -3.4884 -0.1502
 8491TIP3    H246889   2.261   2.994   2.235 -0.3088  0.6748 -1.3615
 8492TIP3   OH246890   2.407   4.155  15.730 -0.1614  0.0623 -0.7440
 8492TIP3    H146891   2.332   4.132  15.675 -0.5923  0.3495 -0.2860
 8492TIP3    H246892   2.368   4.197  15.806  0.4285 -0.3486 -0.2092
 8493TIP3   OH246893   4.698   1.385   3.761  0.4628 -0.2634 -0.2856
 8493TIP3    H146894   4.707   1.439   3.840  0.8271  0.7630 -1.0055
 8493TIP3    H246895   4.783   1.389   3.719 -0.7424  2.6822 -2.8550
 8494TIP3   OH246896   5.759   3.959  16.180  0.0416 -0.2956  0.9569
 8494TIP3    H146897   5.789   4.015  16.108 -1.4730 -0.9076 -0.2142
 8494TIP3    H246898   5.822   3.887  16.182 -0.9432 -1.3075 -1.1289
 8495TIP3   OH246899   2.433   6.281  12.551 -0.1804 -0.1857 -0.1881
 8495TIP3    H146900   2.492   6.221  12.505 -1.0133 -1.6472  0.5874
 8495TIP3    H246901   2.465   6.283  12.641  0.8065  1.8437 -0.5181
 8496TIP3   OH246902   5.568   1.753   0.529  0.7235 -0.2534 -0.3069
 8496TIP3    H146903   5.653   1.743   0.571  0.3402  0.1779  0.6053
 8496TIP3    H246904   5.544   1.663   0.504  1.0065 -0.5229  0.3395
 8497TIP3   OH246905   3.355   2.476  12.230 -0.0282  0.3478 -0.6718
 8497TIP3    H146906   3.379   2.567  12.247 -0.2946 -0.0374  2.2884
 8497TIP3    H246907   3.259   2.475  12.235  0.0259 -0.2931  0.9459
 8498TIP3   OH246908   2.527   2.669  11.277 -0.1455  0.3685  0.2719
 8498TIP3    H146909   2.534   2.592  11.334  0.0854  0.0122 -0.2229
 8498TIP3    H246910   2.442   2.658  11.234 -0.1434  0.4245  0.2540
 8499TIP3   OH246911   6.471   2.459   4.511 -0.1769 -0.0998  0.5886
 8499TIP3    H146912   6.510   2.504   4.586 -2.4231  2.1377  0.5482
 8499TIP3    H246913   6.545   2.441   4.453  1.3546 -0.2002  2.4674
 8500TIP3   OH246914   3.749   0.172   0.106  0.5212 -0.5469 -0.3243
 8500TIP3    H146915   3.803   0.127   0.041  0.8582 -0.0644 -0.3820
 8500TIP3    H246916   3.761   0.265   0.087 -0.6052 -0.4341 -0.5617
 8501TIP3   OH246917   0.701   5.052  10.890 -0.1094 -0.1101 -0.4117
 8501TIP3    H146918   0.691   4.990  10.817 -0.3316  0.2512 -0.6932
 8501TIP3    H246919   0.692   4.998  10.968  0.9424 -0.6374 -0.6382
 8502TIP3   OH246920   6.049   0.524  13.819 -0.2656  0.1306  0.6799
 8502TIP3    H146921   6.082   0.545  13.906 -0.7595 -0.1171  0.9289
 8502TIP3    H246922   6.123   0.480  13.776 -0.5652 -1.3379  1.5788
 8503TIP3   OH246923   6.523   1.067   1.022  0.1062 -0.1711  0.2404
 8503TIP3    H146924   6.443   1.050   0.973 -0.0826 -1.2157  0.8846
 8503TIP3    H246925   6.591   1.018   0.975 -0.1451 -1.5043  1.1833
 8504TIP3   OH246926   2.804   2.554   2.747  0.0165  0.2427  0.0948
 8504TIP3    H146927   2.826   2.481   2.690  0.0276  1.0995 -1.0411
 8504TIP3    H246928   2.718   2.532   2.782  0.2262 -0.5263  0.1316
 8505TIP3   OH246929   2.034   6.377   4.248  0.0147 -0.9445 -0.2347
 8505TIP3    H146930   2.129   6.379   4.264  0.6098  1.6825 -3.0602
 8505TIP3    H246931   2.024   6.322   4.171 -0.5008  0.0171 -0.8797
 8506TIP3   OH246932   3.717   1.828   0.773 -0.2953  0.0673 -0.0747
 8506TIP3    H146933   3.658   1.753   0.781  0.0131 -0.0651  1.3397
 8506TIP3    H246934   3.763   1.830   0.857  2.0299 -0.0835 -1.2676
 8507TIP3   OH246935   0.648   1.571  11.154  0.2859 -0.4077  0.6051
 8507TIP3    H146936   0.590   1.643  11.129  0.4803 -0.1581  0.8529
 8507TIP3    H246937   0.636   1.505  11.086  0.6081  0.1436  0.0001
 8508TIP3   OH246938   0.750   3.760  14.760  0.1938  0.3411 -0.6122
 8508TIP3    H146939   0.813   3.768  14.689  2.4325 -0.9797  1.0834
 8508TIP3    H246940   0.734   3.850  14.787  0.6465  0.7566 -1.6629
 8509TIP3   OH246941   0.990   6.413   1.865  0.2292 -0.3743  0.6212
 8509TIP3    H146942   1.017   6.480   1.803  0.4153 -1.0930 -0.0925
 8509TIP3    H246943   0.970   6.461   1.945  0.6227  0.4976  0.2103
 8510TIP3   OH246944   6.590   3.324   0.158  0.2639  0.4805  0.1646
 8510TIP3    H146945   6.510   3.311   0.209 -0.1420 -0.6135 -0.6978
 8510TIP3    H246946   6.660   3.287   0.212  0.2536  1.7235  1.0602
 8511TIP3   OH246947   2.020   5.285  16.970 -0.3111 -0.2322 -0.7456
 8511TIP3    H146948   2.058   5.334  16.897  0.1417 -0.6224 -0.7832
 8511TIP3    H246949   2.081   5.212  16.984 -1.4462 -1.3310 -1.3160
 8512TIP3   OH246950   1.548   2.626   1.411  0.2274  0.4847 -0.2479
 8512TIP3    H146951   1.581   2.656   1.496 -1.0180 -1.8785  1.1930
 8512TIP3    H246952   1.609   2.556   1.386 -1.4152 -1.3557  0.6124
 8513TIP3   OH246953   6.198   0.376   1.713 -0.4629 -0.2486  0.5615
 8513TIP3    H146954   6.257   0.373   1.638 -0.9803 -1.9619  0.1632
 8513TIP3    H246955   6.113   0.398   1.676 -0.2978  1.2106  0.9939
 8514TIP3   OH246956   5.957   5.675   2.152 -0.0099  0.1459  0.3723
 8514TIP3    H146957   6.026   5.729   2.188  0.1725 -0.0949  0.3832
 8514TIP3    H246958   5.919   5.729   2.082 -1.2797  1.1853  1.7938
 8515TIP3   OH246959   3.678   3.951   0.424 -0.3314  0.1965  0.2672
 8515TIP3    H146960   3.614   4.023   0.431 -1.0672 -0.1941 -1.7605
 8515TIP3    H246961   3.636   3.888   0.367 -0.6743 -3.0155  3.6764
 8516TIP3   OH246962   4.583   6.432   4.968  0.1788  0.1141 -0.2742
 8516TIP3    H146963   4.533   6.369   5.020 -1.0379  0.8819 -0.4617
 8516TIP3    H246964   4.648   6.468   5.028 -0.5184  0.2182  0.4233
 8517TIP3   OH246965   0.892   1.634  16.442 -0.0125 -0.1105  0.9173
 8517TIP3    H146966   0.905   1.727  16.460  0.7232 -0.0131 -0.0758
 8517TIP3    H246967   0.850   1.631  16.357 -0.9335 -0.6698  1.3760
 8518TIP3   OH246968   4.710   2.515  16.733  0.4723 -0.2338  0.4044
 8518TIP3    H146969   4.616   2.513  16.714  0.1164  2.8729  1.3506
 8518TIP3    H246970   4.715   2.526  16.828  1.7753  0.6666  0.2554
 8519TIP3   OH246971   6.625   5.522  13.078  0.0062  0.4081 -0.3828
 8519TIP3    H146972   6.716   5.521  13.049  0.0018 -0.9374 -0.4007
 8519TIP3    H246973   6.625   5.474  13.161 -0.7494  0.0080 -0.6020
 8520TIP3   OH246974   3.182   4.472  13.782 -0.2560  0.2128  0.0031
 8520TIP3    H146975   3.268   4.511  13.768 -0.0799  0.9490  2.5701
 8520TIP3    H246976   3.186   4.388  13.735  1.2319  0.9637 -1.3070
 8521TIP3   OH246977   3.901   1.405   3.175  0.1342  0.4499 -0.3546
 8521TIP3    H146978   3.987   1.416   3.133 -0.3320 -0.6209 -1.6218
 8521TIP3    H246979   3.846   1.471   3.133 -0.5263 -1.0999 -2.0582
 8522TIP3   OH246980   4.490   4.197  16.960  0.1238 -0.0385  0.3340
 8522TIP3    H146981   4.538   4.169  16.882 -0.4351 -0.3684  0.1002
 8522TIP3    H246982   4.474   4.290  16.945  1.2959  0.2531  0.7448
 8523TIP3   OH246983   3.206   3.921  13.783 -0.0138  0.0062 -0.7324
 8523TIP3    H146984   3.263   3.859  13.738  1.1583 -0.1783  0.8878
 8523TIP3    H246985   3.267   3.977  13.833 -1.1670  0.9639 -0.3470
 8524TIP3   OH246986   1.455   1.905   3.853  0.5518 -0.7258  0.0489
 8524TIP3    H146987   1.493   1.973   3.908 -2.5688  1.7357 -0.5553
 8524TIP3    H246988   1.442   1.831   3.911  0.5369  0.5568  1.7494
 8525TIP3   OH246989   1.035   5.411  15.122 -0.1455 -0.0241 -0.6984
 8525TIP3    H146990   0.985   5.388  15.201 -0.0094 -0.2118 -0.6669
 8525TIP3    H246991   1.056   5.504  15.134 -0.9994  0.2226 -0.9907
 8526TIP3   OH246992   4.618   0.000  17.235 -0.2071 -0.3048 -0.8596
 8526TIP3    H146993   4.628  -0.080  17.286  0.9025 -0.2777 -1.0303
 8526TIP3    H246994   4.699   0.008  17.185 -1.2116 -0.2549 -2.5466
 8527TIP3   OH246995   6.416   6.483  11.694  0.1033  0.2492  0.2154
 8527TIP3    H146996   6.498   6.453  11.655  0.2884  1.0968 -0.0709
 8527TIP3    H246997   6.360   6.406  11.693  0.9257 -0.3695  0.5097
 8528TIP3   OH246998   1.947   0.709   1.176  0.1279 -0.3659  0.1171
 8528TIP3    H146999   1.901   0.635   1.135  1.5163 -3.1069  3.0859
 8528TIP3    H247000   1.901   0.723   1.259 -0.4293  2.6300 -0.5828
 8529TIP3   OH247001   1.776   3.047   5.352 -0.4350 -0.5214 -0.5448
 8529TIP3    H147002   1.722   3.089   5.419  1.0356  1.1517 -0.3583
 8529TIP3    H247003   1.717   3.037   5.277 -1.3170  0.2098  0.0335
 8530TIP3   OH247004   5.985   4.827   4.263  0.3230 -0.7270 -0.0379
 8530TIP3    H147005   6.061   4.884   4.272  0.9295 -1.8055  2.6737
 8530TIP3    H247006   5.910   4.883   4.284  0.5366 -0.1391 -0.7898
 8531TIP3   OH247007   0.774   0.167  13.898 -0.7774  0.3545  0.8639
 8531TIP3    H147008   0.862   0.145  13.930  0.2231 -0.2051 -1.9986
 8531TIP3    H247009   0.716   0.107  13.944  0.3719  0.4340  2.5036
 8532TIP3   OH247010   0.056   5.283   2.256 -0.0199 -0.8439 -0.0411
 8532TIP3    H147011   0.013   5.328   2.329  1.0109 -1.1268  0.7705
 8532TIP3    H247012   0.142   5.260   2.290  0.4941 -0.9704 -1.3657
 8533TIP3   OH247013   2.229   3.514  13.124 -0.1397 -0.1669  0.0516
 8533TIP3    H147014   2.317   3.514  13.086 -0.0703  2.1020  0.0423
 8533TIP3    H247015   2.240   3.559  13.209 -1.4340  1.2642 -0.4883
 8534TIP3   OH247016   2.279   2.854   6.373  0.2559  0.2409  0.1530
 8534TIP3    H147017   2.286   2.897   6.458  2.0429  0.4870 -0.0770
 8534TIP3    H247018   2.340   2.902   6.317  0.2426 -0.8852 -0.8579
 8535TIP3   OH247019   1.309   5.024  11.422 -0.7520  0.2493  0.7461
 8535TIP3    H147020   1.396   4.991  11.403 -0.6550  0.0957  1.4327
 8535TIP3    H247021   1.294   5.092  11.356  0.2554  0.9069  1.1598
 8536TIP3   OH247022   5.460   5.854   2.497 -0.1435 -0.4100 -0.2213
 8536TIP3    H147023   5.392   5.904   2.542 -0.8871 -2.4587  1.0614
 8536TIP3    H247024   5.413   5.800   2.434  0.3542 -1.2498  0.1068
 8537TIP3   OH247025   0.666   3.106   4.357  0.1535  0.0170 -0.3104
 8537TIP3    H147026   0.760   3.088   4.358  0.3019  0.3219 -2.6644
 8537TIP3    H247027   0.647   3.139   4.445  1.8894 -1.5969  0.7413
 8538TIP3   OH247028   1.290   3.744  12.756  0.1885 -0.4542  0.3470
 8538TIP3    H147029   1.284   3.838  12.738  2.5336 -0.6906 -2.5586
 8538TIP3    H247030   1.206   3.709  12.727 -0.5106  0.6466  0.9409
 8539TIP3   OH247031   5.234   0.660  17.034  0.5294  0.1369 -0.0627
 8539TIP3    H147032   5.303   0.708  16.988  1.6716 -0.5907  0.8261
 8539TIP3    H247033   5.155   0.675  16.982  1.3894  0.8418 -1.2144
 8540TIP3   OH247034   6.410   2.527  12.707  0.0991 -0.6244  0.4585
 8540TIP3    H147035   6.325   2.568  12.687 -0.1032 -1.3400 -0.1983
 8540TIP3    H247036   6.397   2.489  12.794 -0.1821 -0.5252  0.4640
 8541TIP3   OH247037   0.315   0.275   1.244 -0.4949  0.6318  0.5231
 8541TIP3    H147038   0.282   0.220   1.315  1.5063 -0.0863  0.9785
 8541TIP3    H247039   0.262   0.252   1.169 -0.3839 -1.2287  0.9606
 8542TIP3   OH247040   5.181   2.919  14.284 -0.4214 -0.0880 -0.5580
 8542TIP3    H147041   5.275   2.912  14.271 -0.2274 -2.1308  1.4144
 8542TIP3    H247042   5.168   3.006  14.322  0.5488  0.4900 -1.4996
 8543TIP3   OH247043   5.088   0.944   3.942 -0.2390 -0.2059 -0.3048
 8543TIP3    H147044   5.176   0.910   3.957 -0.5827 -1.0165 -0.0809
 8543TIP3    H247045   5.082   1.021   3.998  0.8646  0.7889 -1.4808
 8544TIP3   OH247046   6.258   0.005   2.876  0.0752  0.0503  0.0584
 8544TIP3    H147047   6.263  -0.085   2.844 -1.7694 -0.5800  1.3610
 8544TIP3    H247048   6.191   0.047   2.821 -1.0843 -0.2304  1.1958
 8545TIP3   OH247049   1.554   5.631   0.956  0.0044 -0.2176 -0.2533
 8545TIP3    H147050   1.569   5.565   1.024 -1.2686 -0.7524 -0.4595
 8545TIP3    H247051   1.557   5.582   0.874 -0.5550  0.0330 -0.4335
 8546TIP3   OH247052   4.830   1.550   4.764  0.4063  0.1339 -0.5265
 8546TIP3    H147053   4.894   1.483   4.787 -0.6631 -0.4682  0.8358
 8546TIP3    H247054   4.861   1.628   4.810  0.4421 -0.0184 -0.2910
 8547TIP3   OH247055   1.718   3.864  11.340  0.5509 -0.0683 -0.1175
 8547TIP3    H147056   1.639   3.897  11.298  0.2839 -1.6786 -0.9467
 8547TIP3    H247057   1.781   3.853  11.268  0.8234 -0.7846  0.2181
 8548TIP3   OH247058   1.058   3.323  17.247  0.0958  0.1191  0.3325
 8548TIP3    H147059   1.016   3.390  17.193 -0.4034 -0.1437  0.3878
 8548TIP3    H247060   1.115   3.276  17.186  1.1854  1.1938  0.4899
 8549TIP3   OH247061   0.149   6.607   4.521  0.2097  0.1520  0.1343
 8549TIP3    H147062   0.087   6.578   4.454  2.9746 -0.2690 -2.4832
 8549TIP3    H247063   0.195   6.527   4.547  1.7850  0.8186 -0.4399
 8550TIP3   OH247064   3.870   3.353  16.085  0.0151  0.7244  0.1004
 8550TIP3    H147065   3.834   3.310  16.008 -0.6261  0.6680  0.4179
 8550TIP3    H247066   3.956   3.384  16.059 -0.6325  1.6948 -0.9837
 8551TIP3   OH247067   2.609   5.843   1.309  0.5154 -0.0171 -0.4373
 8551TIP3    H147068   2.517   5.849   1.333 -0.1342  0.6142 -2.7957
 8551TIP3    H247069   2.655   5.891   1.378 -0.9175 -0.2031  0.6971
 8552TIP3   OH247070   0.346   0.166   0.259 -0.1851  0.3601 -0.1784
 8552TIP3    H147071   0.424   0.126   0.221  0.0505  0.4641  0.1919
 8552TIP3    H247072   0.374   0.196   0.345  0.0652  2.6319 -0.9845
 8553TIP3   OH247073   1.191   5.347  16.024 -0.2891 -0.2219 -0.0542
 8553TIP3    H147074   1.259   5.291  15.987  1.6247  0.2272  2.5494
 8553TIP3    H247075   1.176   5.313  16.112 -2.0061  0.9262  0.1480
 8554TIP3   OH247076   3.084   5.056   6.420  0.3155  0.3019  0.4160
 8554TIP3    H147077   3.008   5.089   6.467 -0.3222 -1.4974  0.7163
 8554TIP3    H247078   3.087   4.963   6.441  1.8003  0.0574 -0.7047
 8555TIP3   OH247079   2.248   5.108   0.942  0.5243  0.3351 -0.0776
 8555TIP3    H147080   2.315   5.104   0.874  1.2425  1.8850  0.4934
 8555TIP3    H247081   2.188   5.177   0.914 -1.1710 -1.3527 -0.8186
 8556TIP3   OH247082   4.501   5.594   0.901 -0.3804 -0.6566  0.0966
 8556TIP3    H147083   4.514   5.598   0.995  2.0211  0.8139 -0.2146
 8556TIP3    H247084   4.502   5.686   0.873 -0.6893 -1.0858 -1.4142
 8557TIP3   OH247085   2.614   4.930   2.407 -0.1311  0.2372  0.9057
 8557TIP3    H147086   2.549   4.904   2.472 -1.6335 -1.1892 -1.0436
 8557TIP3    H247087   2.691   4.879   2.429 -0.7628 -0.5636  1.3189
 8558TIP3   OH247088   6.179   4.953   2.199 -0.2969  0.5391  0.1723
 8558TIP3    H147089   6.104   4.910   2.158  0.9604 -1.5453 -0.0990
 8558TIP3    H247090   6.141   5.022   2.253 -2.4451 -0.7656  0.4387
 8559TIP3   OH247091   2.710   2.254  13.356  0.4866 -0.5545 -0.0170
 8559TIP3    H147092   2.720   2.161  13.332  2.1404 -0.3799 -0.1685
 8559TIP3    H247093   2.733   2.301  13.276  2.4225 -0.0023  0.8094
 8560TIP3   OH247094   3.696   2.911  12.751  0.4580 -0.0218 -0.3590
 8560TIP3    H147095   3.736   2.886  12.834 -1.2226  0.4631  0.6496
 8560TIP3    H247096   3.742   2.991  12.726 -0.7267  1.3067  1.4831
 8561TIP3   OH247097   5.868   6.288  15.100  1.1121 -0.1088  0.4800
 8561TIP3    H147098   5.824   6.303  15.016  1.1345  2.1405  0.8165
 8561TIP3    H247099   5.812   6.225  15.145  0.8828 -1.0521 -1.0470
 8562TIP3   OH247100   6.759   5.120  11.079  0.1359  0.2318  0.2966
 8562TIP3    H147101   6.751   5.072  10.996  0.2078 -1.0172  0.9982
 8562TIP3    H247102   6.725   5.060  11.145 -0.9621  1.6291  1.0555
 8563TIP3   OH247103   4.039   4.131   1.197  0.5490 -0.0502  0.1250
 8563TIP3    H147104   4.027   4.187   1.273 -2.5687  0.0060 -0.2546
 8563TIP3    H247105   3.974   4.061   1.208 -0.5086  0.3212 -2.7343
 8564TIP3   OH247106   0.260   1.859   1.253  1.2230 -0.9653  0.0788
 8564TIP3    H147107   0.303   1.815   1.326 -1.4216 -0.5186  2.0548
 8564TIP3    H247108   0.178   1.812   1.241 -0.5355  1.7343  0.5708
 8565TIP3   OH247109   5.464   1.056  10.604 -0.4901 -0.1037 -0.0824
 8565TIP3    H147110   5.525   1.071  10.532  0.5623  2.5814  1.2307
 8565TIP3    H247111   5.390   1.113  10.585 -0.5299  0.0721  0.5664
 8566TIP3   OH247112   5.799   3.301   4.676 -0.0991  0.1293 -0.2361
 8566TIP3    H147113   5.754   3.376   4.715 -0.8488 -1.0072  1.1746
 8566TIP3    H247114   5.892   3.320   4.688 -0.2579  1.0935 -0.4451
 8567TIP3   OH247115   1.441   1.996   5.269  0.3255 -0.1520  0.2959
 8567TIP3    H147116   1.519   2.053   5.275 -0.1314  0.4566  0.5929
 8567TIP3    H247117   1.402   2.018   5.185  0.0814  0.0642  0.4648
 8568TIP3   OH247118   6.598   4.528  17.327 -0.6107 -0.2835  0.5879
 8568TIP3    H147119   6.548   4.609  17.325  0.2176  0.3868  3.1974
 8568TIP3    H247120   6.688   4.554  17.312 -0.5151 -0.9340 -0.0162
 8569TIP3   OH247121   6.404   4.356   1.187 -0.3696 -0.0213 -0.7507
 8569TIP3    H147122   6.360   4.273   1.171  1.5806 -1.6705  1.5570
 8569TIP3    H247123   6.361   4.391   1.265  1.1398 -0.7953  0.4898
 8570TIP3   OH247124   4.188   1.578  11.193 -0.1821 -0.4202  0.5797
 8570TIP3    H147125   4.146   1.639  11.133 -0.6543 -0.8678  0.4434
 8570TIP3    H247126   4.281   1.581  11.170  0.2263  2.0370  2.1684
 8571TIP3   OH247127   6.417   0.532  16.079 -0.1767  0.1856 -0.0769
 8571TIP3    H147128   6.381   0.511  16.166 -1.4735 -0.0023 -0.6345
 8571TIP3    H247129   6.350   0.586  16.038 -0.1277 -0.7353 -1.4165
 8572TIP3   OH247130   3.270   1.198  17.223  0.3889  0.3949  0.2161
 8572TIP3    H147131   3.300   1.110  17.198  0.9634  0.7488 -0.3672
 8572TIP3    H247132   3.212   1.183  17.297 -1.2267 -0.6896 -1.1985
 8573TIP3   OH247133   5.954   3.555   4.808  0.7088 -0.1733 -0.1850
 8573TIP3    H147134   5.932   3.586   4.720  1.8135 -0.4900 -0.5862
 8573TIP3    H247135   5.994   3.469   4.794  2.4557  0.5010  0.4638
 8574TIP3   OH247136   3.161   0.591   0.399 -0.2829 -0.5623 -0.0121
 8574TIP3    H147137   3.151   0.497   0.382  2.4441 -0.4533 -3.3080
 8574TIP3    H247138   3.239   0.597   0.454  1.1979 -0.2574 -2.0157
 8575TIP3   OH247139   3.416   2.299   0.572 -0.6177  0.0592  0.4600
 8575TIP3    H147140   3.350   2.231   0.564 -0.4258 -0.1544  0.6984
 8575TIP3    H247141   3.463   2.278   0.652 -1.7588  1.5063  1.5846
 8576TIP3   OH247142   4.077   4.014  14.392  0.0019  0.4213  0.2641
 8576TIP3    H147143   3.987   3.991  14.365  0.1923 -0.8175  0.6242
 8576TIP3    H247144   4.133   3.957  14.340  0.5267  0.3173  0.9295
 8577TIP3   OH247145   1.611   5.186  11.549  0.1705 -0.3809 -0.1418
 8577TIP3    H147146   1.631   5.093  11.537  0.0995 -0.8569  2.6806
 8577TIP3    H247147   1.689   5.222  11.593 -0.2613  0.6166 -0.1677
 8578TIP3   OH247148   1.140   5.078   5.310 -0.5902  0.3035  0.1830
 8578TIP3    H147149   1.104   5.117   5.231  0.7260 -0.4319 -0.8300
 8578TIP3    H247150   1.092   4.996   5.321 -2.2064  1.3557  1.3689
 8579TIP3   OH247151   2.188   0.102   0.358  0.0536 -0.4501 -0.2467
 8579TIP3    H147152   2.158   0.152   0.434 -0.8107  1.3558 -1.6875
 8579TIP3    H247153   2.234   0.166   0.304  1.0336 -1.7926 -1.0592
 8580TIP3   OH247154   3.162   6.289  13.687  0.1217  0.0538 -0.1249
 8580TIP3    H147155   3.155   6.236  13.767  1.3918 -0.9089 -0.6292
 8580TIP3    H247156   3.253   6.317  13.685 -0.3767  1.7397 -0.2262
 8581TIP3   OH247157   5.972   2.121  11.662 -0.0050  0.3729  0.6953
 8581TIP3    H147158   5.932   2.089  11.743  1.7916 -1.0158  1.1021
 8581TIP3    H247159   5.906   2.105  11.595 -0.9719  0.1923  1.6624
 8582TIP3   OH247160   0.947   0.291  10.946  0.1986 -0.4647 -0.0970
 8582TIP3    H147161   0.952   0.316  10.854  0.5620 -1.5996 -0.4032
 8582TIP3    H247162   1.028   0.243  10.962  0.7346  0.7814  1.1630
 8583TIP3   OH247163   0.027   4.355  15.367 -0.2692  0.3641 -0.3766
 8583TIP3    H147164  -0.030   4.303  15.423  0.8839  0.2738  0.7373
 8583TIP3    H247165   0.107   4.303  15.359  0.0558  0.9557 -1.0856
 8584TIP3   OH247166   2.672   0.575   5.460  0.0521 -0.1063  0.7951
 8584TIP3    H147167   2.646   0.538   5.544 -0.0663 -1.3212  0.2456
 8584TIP3    H247168   2.590   0.604   5.420  0.2059  1.4443  1.5014
 8585TIP3   OH247169   5.467   3.478  12.870  0.5305  0.5297  0.1085
 8585TIP3    H147170   5.444   3.455  12.960 -0.5557 -1.9502 -0.7034
 8585TIP3    H247171   5.557   3.510  12.875  0.7091 -0.1317  1.9888
 8586TIP3   OH247172   4.551   6.520   2.431 -0.3913  0.0967 -0.3336
 8586TIP3    H147173   4.514   6.492   2.515 -0.0000 -1.4617 -0.6539
 8586TIP3    H247174   4.549   6.616   2.435 -2.2869  0.0666  0.6090
 8587TIP3   OH247175   2.711   6.065  14.402  0.7852  0.0718  0.1521
 8587TIP3    H147176   2.751   5.981  14.424  1.9893  0.0246 -2.0003
 8587TIP3    H247177   2.639   6.043  14.343 -2.8383  0.1408  4.0644
 8588TIP3   OH247178   5.536   4.621   5.613 -0.2832  0.2408 -0.0300
 8588TIP3    H147179   5.521   4.532   5.645 -0.9659  0.6815  0.9514
 8588TIP3    H247180   5.458   4.641   5.561 -0.1596  0.2916 -0.1978
 8589TIP3   OH247181   3.797   4.293   3.772 -0.0280 -0.2946 -0.9263
 8589TIP3    H147182   3.873   4.347   3.753 -0.4687  0.9924  0.7510
 8589TIP3    H247183   3.722   4.352   3.765 -0.5129 -0.6023  1.0709
 8590TIP3   OH247184   4.696   1.967  14.660  0.5775 -0.1148  0.1642
 8590TIP3    H147185   4.667   2.023  14.588  0.7473 -1.0038 -0.6154
 8590TIP3    H247186   4.622   1.909  14.676 -0.1582  1.2267  1.9488
 8591TIP3   OH247187   3.236   6.646   1.495 -0.2666  0.6386 -0.8417
 8591TIP3    H147188   3.186   6.588   1.438 -0.6315  1.6825 -1.6073
 8591TIP3    H247189   3.322   6.605   1.502 -0.6117 -0.1453 -1.1280
 8592TIP3   OH247190   3.575   5.255   3.463  0.9308 -0.3239 -0.7034
 8592TIP3    H147191   3.608   5.332   3.417  1.1337  0.8283  1.2538
 8592TIP3    H247192   3.650   5.224   3.514  1.1718 -2.5173 -2.2564
 8593TIP3   OH247193   3.378   5.205  14.470 -0.1622 -0.3790 -0.0073
 8593TIP3    H147194   3.315   5.275  14.488 -0.1285 -0.2627 -0.3324
 8593TIP3    H247195   3.463   5.245  14.486 -0.1340 -0.2854 -0.3885
 8594TIP3   OH247196   0.913   1.292   1.049  0.2366 -0.1013 -0.0138
 8594TIP3    H147197   0.993   1.275   1.099 -0.0762  1.5320  1.1286
 8594TIP3    H247198   0.941   1.351   0.979 -0.1509  1.6786  1.2531
 8595TIP3   OH247199   6.621   1.093  10.971 -0.6104 -0.4015 -0.5030
 8595TIP3    H147200   6.598   1.082  10.879 -0.5072  0.7539 -0.6874
 8595TIP3    H247201   6.714   1.116  10.970 -0.8099  0.4716 -0.1927
 8596TIP3   OH247202   4.592   1.806  12.146  0.1613  0.0638 -0.2730
 8596TIP3    H147203   4.562   1.832  12.233 -0.0250  0.2977 -0.4043
 8596TIP3    H247204   4.511   1.789  12.098  0.2812 -0.7018 -0.2058
 8597TIP3   OH247205   1.189   0.877  10.917  0.4369  0.3950  0.1196
 8597TIP3    H147206   1.178   0.964  10.878  1.1835 -0.2866 -1.7294
 8597TIP3    H247207   1.266   0.840  10.874  1.2032 -0.5475  2.1444
 8598TIP3   OH247208   5.142   2.594   5.730 -0.0328 -0.5390 -0.2130
 8598TIP3    H147209   5.221   2.556   5.768  0.9999  0.7439 -0.9986
 8598TIP3    H247210   5.143   2.685   5.760 -1.0037 -0.4050 -0.5649
 8599TIP3   OH247211   5.801   5.758   3.487 -0.0181 -0.3826  0.3455
 8599TIP3    H147212   5.731   5.803   3.533 -1.6661 -2.7724  0.3603
 8599TIP3    H247213   5.881   5.806   3.511 -1.1103  0.0380  3.5771
 8600TIP3   OH247214   4.447   4.366  16.599  0.1464 -0.6421  0.2835
 8600TIP3    H147215   4.522   4.306  16.604  1.5885  0.9324 -1.1496
 8600TIP3    H247216   4.464   4.432  16.665  0.2805 -0.0336 -0.3455
 8601TIP3   OH247217   3.184   1.991   3.690  0.5544  0.0457 -0.0848
 8601TIP3    H147218   3.126   1.949   3.754  2.5031  1.0225  2.5149
 8601TIP3    H247219   3.148   2.079   3.679  0.5216  0.0620  0.1437
 8602TIP3   OH247220   2.356   2.253  15.932  0.0529  0.1975  0.0574
 8602TIP3    H147221   2.269   2.245  15.892 -1.0459  1.5991  2.0310
 8602TIP3    H247222   2.346   2.218  16.020  0.9179  2.2054  1.0193
 8603TIP3   OH247223   6.204   5.549  11.787 -0.2609 -0.3556  0.8001
 8603TIP3    H147224   6.225   5.492  11.713  1.4570 -0.5102  1.3453
 8603TIP3    H247225   6.289   5.566  11.828 -1.2272 -0.9503  3.2194
 8604TIP3   OH247226   4.298   3.638   0.996  0.2547 -0.8254 -0.1552
 8604TIP3    H147227   4.230   3.670   1.055  2.4725 -0.1199  2.2096
 8604TIP3    H247228   4.282   3.684   0.913 -0.7735  1.0653  1.0315
 8605TIP3   OH247229   5.241   3.695  15.607 -0.3587  0.0799  0.3289
 8605TIP3    H147230   5.309   3.704  15.674 -0.2058 -2.1327  0.5258
 8605TIP3    H247231   5.159   3.713  15.653 -0.1053  0.5074  0.6217
 8606TIP3   OH247232   1.545   3.512   1.655 -1.0077  0.3357  0.0074
 8606TIP3    H147233   1.503   3.551   1.578  0.6374  1.8902 -0.1598
 8606TIP3    H247234   1.615   3.458   1.619 -0.6409  0.5518  0.3937
 8607TIP3   OH247235   4.859   0.619   6.503  0.0281 -0.7676  0.0159
 8607TIP3    H147236   4.909   0.651   6.428 -0.8387 -0.5127 -0.4640
 8607TIP3    H247237   4.904   0.656   6.579 -0.2952  0.6945 -0.4717
 8608TIP3   OH247238   4.850   5.813  13.663 -0.4456  0.5922  0.4206
 8608TIP3    H147239   4.866   5.842  13.752  1.6766  1.2042 -0.1085
 8608TIP3    H247240   4.783   5.873  13.630 -1.4309  0.2051  1.6307
 8609TIP3   OH247241   5.841   6.036   3.322  0.4853 -0.7404 -0.0141
 8609TIP3    H147242   5.907   5.971   3.346  1.0499  0.1018  0.7819
 8609TIP3    H247243   5.884   6.091   3.256 -0.6331 -2.2739 -2.1603
 8610TIP3   OH247244   3.487   2.243   5.547  0.0932 -0.5058  0.2309
 8610TIP3    H147245   3.554   2.185   5.510  0.6014  0.0825  0.2105
 8610TIP3    H247246   3.413   2.185   5.565  0.1949 -0.9808 -0.7947
 8611TIP3   OH247247   5.922   2.613   4.124  0.7656  0.4096 -0.3629
 8611TIP3    H147248   5.834   2.650   4.132  0.7099  0.1871  0.0898
 8611TIP3    H247249   5.950   2.597   4.214  1.4456  0.8789 -0.4813
 8612TIP3   OH247250   2.408   0.698   2.862 -0.6737 -0.3571 -0.2423
 8612TIP3    H147251   2.369   0.613   2.842  0.5123 -0.6991 -1.1825
 8612TIP3    H247252   2.488   0.677   2.909 -2.0359  0.3694  2.6258
 8613TIP3   OH247253   0.753   5.681   2.421 -0.3214 -0.0075 -0.1135
 8613TIP3    H147254   0.727   5.591   2.402 -0.8018  0.0629  0.1814
 8613TIP3    H247255   0.848   5.681   2.414 -0.1913 -0.8873  1.3716
 8614TIP3   OH247256   5.011   1.225  11.936 -0.4434 -0.2322  0.3874
 8614TIP3    H147257   4.977   1.292  11.996  1.6039  1.3087 -0.0579
 8614TIP3    H247258   5.028   1.273  11.855 -0.9177 -1.7746 -0.6583
 8615TIP3   OH247259   3.206   1.525   5.202  0.1763 -0.3255 -0.3414
 8615TIP3    H147260   3.234   1.447   5.251  0.1525 -0.6424 -0.8215
 8615TIP3    H247261   3.127   1.497   5.155 -0.4605  0.3151  0.3316
 8616TIP3   OH247262   0.020   1.812  13.092  0.3331 -0.4482 -0.4445
 8616TIP3    H147263   0.027   1.850  13.005 -0.5047 -0.7862 -0.6686
 8616TIP3    H247264   0.051   1.881  13.151  0.2001  0.0532 -0.9520
 8617TIP3   OH247265   5.233   4.012  14.558 -0.3240  0.2337 -0.1962
 8617TIP3    H147266   5.140   3.999  14.540 -0.5405  0.0354  1.0187
 8617TIP3    H247267   5.238   4.096  14.603  0.0858  0.2387 -0.2437
 8618TIP3   OH247268   2.074   4.067   0.802 -0.1494  0.1321  0.2529
 8618TIP3    H147269   2.154   4.078   0.751  0.1467  0.2599  0.7365
 8618TIP3    H247270   2.033   3.988   0.766  0.5865 -0.3818  0.5075
 8619TIP3   OH247271   2.437   1.156   0.961  0.0264  0.1284  0.1801
 8619TIP3    H147272   2.351   1.159   1.002  0.3725 -0.7806  1.0090
 8619TIP3    H247273   2.450   1.064   0.938  0.0907  0.5091 -1.4896
 8620TIP3   OH247274   5.902   3.213  15.896 -0.4532 -0.0135  0.4604
 8620TIP3    H147275   5.958   3.283  15.866 -1.2180  1.2320  1.7946
 8620TIP3    H247276   5.911   3.144  15.830  1.0649  0.9343 -0.3687
 8621TIP3   OH247277   0.820   3.069  11.607 -0.2501  0.4921  0.0552
 8621TIP3    H147278   0.758   2.998  11.625 -1.4168  1.2169 -0.9781
 8621TIP3    H247279   0.881   3.067  11.681 -1.1693 -0.6037  0.8117
 8622TIP3   OH247280   2.636   1.576  16.790 -0.5094 -0.1652 -0.8585
 8622TIP3    H147281   2.709   1.582  16.729  0.2302  0.2246  0.0492
 8622TIP3    H247282   2.636   1.485  16.820 -1.2472 -0.5148 -1.8702
 8623TIP3   OH247283   5.871   2.620  13.165  0.3548  0.2311  0.3101
 8623TIP3    H147284   5.856   2.663  13.249  2.0495  1.6067 -0.0252
 8623TIP3    H247285   5.883   2.692  13.103  1.4584 -0.7373 -0.6507
 8624TIP3   OH247286   4.498   5.232   2.614  0.1344 -0.4570 -0.0919
 8624TIP3    H147287   4.479   5.309   2.560  0.6053 -0.9059 -0.9264
 8624TIP3    H247288   4.450   5.161   2.572 -0.2614 -0.6338  0.6479
 8625TIP3   OH247289   0.434   4.941   3.540  0.2259 -0.0639  0.1627
 8625TIP3    H147290   0.526   4.969   3.533 -0.4035  2.1224  0.2022
 8625TIP3    H247291   0.397   4.960   3.454 -0.3966 -0.1843  0.4029
 8626TIP3   OH247292   4.468   3.299   0.411 -0.0786 -0.5743 -0.1493
 8626TIP3    H147293   4.462   3.328   0.503 -2.1188 -0.1212 -0.3734
 8626TIP3    H247294   4.398   3.346   0.367 -0.3123 -2.1677 -1.5724
 8627TIP3   OH247295   4.457   0.231  11.622 -0.7223  0.2893 -0.1429
 8627TIP3    H147296   4.424   0.292  11.688 -1.7147  0.1961 -0.5356
 8627TIP3    H247297   4.519   0.283  11.570  1.1567  0.0024  1.6786
 8628TIP3   OH247298   0.400   2.146   4.987 -0.2949  0.0920 -0.0639
 8628TIP3    H147299   0.487   2.149   5.027  0.1697 -0.6672 -0.9752
 8628TIP3    H247300   0.394   2.058   4.949 -1.3513  0.2352 -0.2644
 8629TIP3   OH247301   0.811   2.197   4.566  0.1258  0.4716  0.1327
 8629TIP3    H147302   0.870   2.272   4.563  2.5465 -1.3441 -0.6695
 8629TIP3    H247303   0.868   2.122   4.583 -1.5148 -1.8074 -3.2886
 8630TIP3   OH247304   6.236   4.104  14.068  0.2144  0.0023  0.8167
 8630TIP3    H147305   6.210   4.194  14.052 -0.1788 -0.3293 -0.5484
 8630TIP3    H247306   6.184   4.076  14.143  0.2170  0.8453  1.1402
 8631TIP3   OH247307   5.179   2.166   4.279  0.2905  0.0289 -0.4679
 8631TIP3    H147308   5.153   2.184   4.189  1.8790  0.1053 -0.9256
 8631TIP3    H247309   5.233   2.240   4.305 -0.2704  0.0827  0.6117
 8632TIP3   OH247310   2.231   0.164  12.561  0.6784 -0.3429  0.6597
 8632TIP3    H147311   2.151   0.216  12.557 -0.1687 -1.3467  2.7736
 8632TIP3    H247312   2.212   0.086  12.508  0.0094 -0.8238  1.5702
 8633TIP3   OH247313   2.817   0.041   4.103 -0.3690  0.4844  0.1063
 8633TIP3    H147314   2.771   0.109   4.054 -0.9058  1.2860  1.6710
 8633TIP3    H247315   2.856   0.087   4.177 -0.6366 -0.8837  1.1390
 8634TIP3   OH247316   6.199   6.090  16.759  0.1821  0.1079 -0.1194
 8634TIP3    H147317   6.252   6.065  16.683  1.4945  0.5410  0.6095
 8634TIP3    H247318   6.114   6.114  16.723  0.6018 -0.2609 -1.3838
 8635TIP3   OH247319   6.014   4.990   1.481 -0.0441 -0.3930  0.1498
 8635TIP3    H147320   6.092   4.954   1.523  0.2160 -0.3352 -0.2792
 8635TIP3    H247321   6.010   4.946   1.396  0.1103  0.3640 -0.2569
 8636TIP3   OH247322   4.116   1.843   3.325 -0.5278 -0.0310  0.4789
 8636TIP3    H147323   4.207   1.850   3.296  0.1692 -0.0397  2.5128
 8636TIP3    H247324   4.107   1.909   3.394 -2.1913  0.2228  0.0715
 8637TIP3   OH247325   4.028   0.795   2.670  0.2789  0.1728  0.1832
 8637TIP3    H147326   4.096   0.741   2.711 -1.0500 -1.6935  0.0286
 8637TIP3    H247327   3.965   0.732   2.636 -1.4924  1.8571  0.2094
 8638TIP3   OH247328   4.670   6.120  13.771 -0.0649  0.1200  0.3372
 8638TIP3    H147329   4.661   6.206  13.813 -0.2000  0.2601  0.0220
 8638TIP3    H247330   4.760   6.119  13.738  0.2742 -0.2688  1.2391
 8639TIP3   OH247331   5.226   5.806  15.998  0.5769 -0.0534 -0.6697
 8639TIP3    H147332   5.243   5.741  15.929 -0.2964 -0.6270 -0.3585
 8639TIP3    H247333   5.164   5.763  16.057  0.6700  0.7441  0.0275
 8640TIP3   OH247334   0.024   1.730   1.199  0.0556  0.3135  0.4472
 8640TIP3    H147335   0.056   1.640   1.199  0.6406  0.4926 -1.0717
 8640TIP3    H247336  -0.044   1.731   1.267 -0.0767 -1.2970  0.3882
 8641TIP3   OH247337   3.916   4.891   2.437 -0.2931 -0.2254 -0.0082
 8641TIP3    H147338   3.833   4.853   2.410 -0.1348 -1.8916  1.6930
 8641TIP3    H247339   3.905   4.985   2.424 -2.4059 -0.4198  0.1151
 8642TIP3   OH247340   1.084   3.810  13.041 -0.0228 -0.5921 -0.2362
 8642TIP3    H147341   1.112   3.860  12.964 -1.3563 -0.9212 -0.9626
 8642TIP3    H247342   1.165   3.771  13.074  0.8349  0.9387 -0.4435
 8643TIP3   OH247343   4.817   1.476   2.915  0.2422 -0.2410  0.7277
 8643TIP3    H147344   4.768   1.522   2.846  0.2902 -1.9005 -0.4634
 8643TIP3    H247345   4.788   1.518   2.996 -1.1680  0.5847 -0.1479
 8644TIP3   OH247346   2.129   5.165   3.086 -0.2259  0.2177 -0.0618
 8644TIP3    H147347   2.162   5.185   3.174 -2.3807  1.8835  0.4458
 8644TIP3    H247348   2.184   5.216   3.027  0.4654  0.0352  0.4082
 8645TIP3   OH247349   0.392   4.143   2.072  0.5882  0.2371  0.5151
 8645TIP3    H147350   0.451   4.086   2.024  0.8431  0.6478  0.3395
 8645TIP3    H247351   0.339   4.084   2.126  1.3564 -0.1174  0.8939
 8646TIP3   OH247352   2.217   3.519  16.588 -0.2328  0.3985 -0.2134
 8646TIP3    H147353   2.126   3.517  16.557 -0.4851 -1.0226  0.5084
 8646TIP3    H247354   2.245   3.610  16.576 -2.7082  1.6409  2.1936
 8647TIP3   OH247355   2.916   5.208   2.966 -0.1935 -0.2224 -0.5761
 8647TIP3    H147356   2.954   5.230   2.882  0.2234  0.0932 -0.3087
 8647TIP3    H247357   2.850   5.276   2.982  0.6580  0.4918 -0.0387
 8648TIP3   OH247358   2.492   1.218   3.559 -0.5617 -0.1477 -0.1911
 8648TIP3    H147359   2.405   1.180   3.567 -0.9119  0.3412 -1.4335
 8648TIP3    H247360   2.486   1.303   3.602 -1.1018  0.4612 -1.4143
 8649TIP3   OH247361   5.559   2.185   0.376  0.0039  0.4483 -0.3917
 8649TIP3    H147362   5.596   2.267   0.409  0.5008 -0.9881  2.9864
 8649TIP3    H247363   5.466   2.189   0.398  0.2818 -0.3862  1.1101
 8650TIP3   OH247364   5.082   6.178   2.610  0.4215 -0.4495  0.3748
 8650TIP3    H147365   5.096   6.118   2.537  0.0510 -0.5968  0.4201
 8650TIP3    H247366   5.027   6.129   2.671 -0.9803  0.3578 -0.1692
 8651TIP3   OH247367   1.437   0.828  13.810 -0.5211  0.0945 -0.0001
 8651TIP3    H147368   1.416   0.919  13.827 -0.9298  0.0355 -0.1642
 8651TIP3    H247369   1.532   0.826  13.801 -0.3260  0.2045  1.7311
 8652TIP3   OH247370   6.678   0.530  15.036  0.0099 -0.2783 -0.3940
 8652TIP3    H147371   6.746   0.487  14.983 -0.2784 -0.3977 -0.6713
 8652TIP3    H247372   6.690   0.495  15.124 -0.6102 -1.3990 -0.7428
 8653TIP3   OH247373   4.255   0.383   0.598 -0.1871 -0.1302  0.3848
 8653TIP3    H147374   4.199   0.459   0.584 -0.4996 -0.1993  1.1618
 8653TIP3    H247375   4.295   0.365   0.513 -2.0380 -0.6233 -0.4238
 8654TIP3   OH247376   1.506   4.838  14.166 -0.0791 -0.1101  0.4781
 8654TIP3    H147377   1.562   4.809  14.237  0.4844 -0.2208 -0.0032
 8654TIP3    H247378   1.564   4.842  14.090 -0.5627  0.4777  0.1338
 8655TIP3   OH247379   4.779   4.333   5.349  0.2109  0.5154  0.1816
 8655TIP3    H147380   4.804   4.331   5.257  2.8113  0.8027  0.8058
 8655TIP3    H247381   4.768   4.241   5.372 -2.3013  0.4867 -0.7789
 8656TIP3   OH247382   0.226   3.266  14.930 -0.1780 -0.3138 -0.1899
 8656TIP3    H147383   0.305   3.213  14.922 -0.0135  0.0871 -1.7005
 8656TIP3    H247384   0.154   3.203  14.928  0.0641 -0.5881 -0.2773
 8657TIP3   OH247385   6.634   1.290  16.141 -0.3312 -0.0624 -0.2316
 8657TIP3    H147386   6.660   1.222  16.202  0.1137 -0.3564 -0.7374
 8657TIP3    H247387   6.540   1.302  16.155 -0.1480  0.1901  0.8122
 8658TIP3   OH247388   0.870   3.239   0.081  0.0382 -0.4703  0.5237
 8658TIP3    H147389   0.904   3.211  -0.004  0.0249 -1.2617  0.7744
 8658TIP3    H247390   0.844   3.330   0.067  1.0324 -0.2553 -0.0337
 8659TIP3   OH247391   6.399   1.665  16.364 -0.0962  0.0660 -0.4993
 8659TIP3    H147392   6.482   1.622  16.383 -1.5218 -1.8617  2.0190
 8659TIP3    H247393   6.405   1.750  16.406  0.1944 -0.5788  0.8195
 8660TIP3   OH247394   4.263   3.103   1.916  0.1851  0.1365 -0.5161
 8660TIP3    H147395   4.226   3.115   1.828  0.4163  1.1342 -0.4974
 8660TIP3    H247396   4.187   3.107   1.974  0.0717 -0.1483 -0.6441
 8661TIP3   OH247397   1.242   1.355   5.119  0.5522 -0.1272 -0.8381
 8661TIP3    H147398   1.329   1.319   5.135  0.6418  0.2334 -0.5124
 8661TIP3    H247399   1.194   1.341   5.200  0.2890 -0.3678 -1.0321
 8662TIP3   OH247400   6.267   5.285   2.302 -0.0054  0.3944  0.4470
 8662TIP3    H147401   6.314   5.313   2.223  1.7979  0.3785  1.4752
 8662TIP3    H247402   6.306   5.200   2.324 -0.1228  0.6481  1.6578
 8663TIP3   OH247403   0.416   0.347   2.753  0.4602  0.0344  0.0527
 8663TIP3    H147404   0.488   0.317   2.698  1.1313  0.1790  0.8274
 8663TIP3    H247405   0.458   0.402   2.819 -0.5347  1.2470 -0.2989
 8664TIP3   OH247406   0.591   3.154  13.284 -0.3284  0.0054  0.3697
 8664TIP3    H147407   0.673   3.113  13.258 -0.7449 -1.6693  1.5642
 8664TIP3    H247408   0.596   3.159  13.380 -1.0605  1.1313  0.3749
 8665TIP3   OH247409   4.034   5.527   2.916 -0.2530 -0.3313  0.0290
 8665TIP3    H147410   4.072   5.467   2.853 -1.6207 -0.9865 -0.2111
 8665TIP3    H247411   4.088   5.517   2.995  1.2234  0.2055 -0.8847
 8666TIP3   OH247412   0.612   6.163  12.241 -0.7161  0.4828  0.3916
 8666TIP3    H147413   0.520   6.139  12.234 -0.3416 -0.7028 -1.0551
 8666TIP3    H247414   0.644   6.112  12.317 -0.8929 -0.3949 -0.1074
 8667TIP3   OH247415   3.854   5.114  13.694 -0.3922  0.3214  0.3154
 8667TIP3    H147416   3.799   5.077  13.625  0.7383  0.2446 -0.5532
 8667TIP3    H247417   3.827   5.206  13.699  0.3086  0.6265 -1.0505
 8668TIP3   OH247418   4.605   0.880   6.560 -0.7147 -0.0444 -0.0220
 8668TIP3    H147419   4.635   0.970   6.577 -1.5480  0.2649 -0.1531
 8668TIP3    H247420   4.517   0.891   6.523 -0.9204 -0.9296  0.1961
 8669TIP3   OH247421   5.114   1.800   6.049 -0.5238 -0.2871  0.4804
 8669TIP3    H147422   5.144   1.885   6.017  1.5454 -1.1359 -0.0095
 8669TIP3    H247423   5.077   1.819   6.135 -0.5860  1.1776  0.1559
 8670TIP3   OH247424   1.088   3.522   0.961  0.9593 -0.3462 -0.3160
 8670TIP3    H147425   1.047   3.457   0.903  1.4065  0.0955 -1.1326
 8670TIP3    H247426   1.031   3.599   0.954  2.5465  0.7235 -2.4467
 8671TIP3   OH247427   3.443   5.029   4.032  0.2811  0.5669 -0.3732
 8671TIP3    H147428   3.496   5.108   4.042  1.4705 -0.1611 -0.7182
 8671TIP3    H247429   3.362   5.060   3.991 -1.0522  2.2310  3.1064
 8672TIP3   OH247430   0.228   1.893   2.130  0.9399 -0.2712  0.6382
 8672TIP3    H147431   0.310   1.844   2.123  0.6914 -0.5879 -0.2116
 8672TIP3    H247432   0.234   1.960   2.062  0.4549 -0.3805  0.4764
 8673TIP3   OH247433   5.492   4.023  11.128 -0.1341  0.0407  0.0748
 8673TIP3    H147434   5.527   3.955  11.071 -1.9182  0.6093 -1.8534
 8673TIP3    H247435   5.566   4.051  11.181  1.7616 -0.3475 -2.1755
 8674TIP3   OH247436   5.445   1.532  13.953 -0.4588 -0.6115 -0.4525
 8674TIP3    H147437   5.515   1.472  13.927 -0.4813 -0.6531 -0.4181
 8674TIP3    H247438   5.459   1.610  13.900  0.0437 -0.3431  0.0523
 8675TIP3   OH247439   1.318   1.407   3.141 -0.1191  0.5547  0.4741
 8675TIP3    H147440   1.235   1.385   3.098 -0.4287  0.7757  0.9474
 8675TIP3    H247441   1.305   1.496   3.174 -0.5190 -0.2034  2.5148
 8676TIP3   OH247442   5.676   1.883   1.643  0.2590  0.5931 -0.4142
 8676TIP3    H147443   5.656   1.870   1.736 -1.2784  3.2454 -0.2757
 8676TIP3    H247444   5.768   1.908   1.642  0.3167  0.4430  0.3887
 8677TIP3   OH247445   3.111   4.369   0.048 -0.4314 -0.2233 -0.0457
 8677TIP3    H147446   3.096   4.303   0.116 -2.7538  1.5192  1.2824
 8677TIP3    H247447   3.024   4.399   0.023  0.4993  2.0966 -0.8331
 8678TIP3   OH247448   0.155   1.032   2.317 -0.3266  0.3249 -0.2795
 8678TIP3    H147449   0.076   0.987   2.346  0.0029 -0.0940 -0.0319
 8678TIP3    H247450   0.168   1.004   2.227 -0.1870  0.0078 -0.1626
 8679TIP3   OH247451   6.249   1.398  10.690 -0.3586 -0.8793 -0.1401
 8679TIP3    H147452   6.330   1.440  10.664 -0.6538 -0.3830 -0.2770
 8679TIP3    H247453   6.261   1.306  10.667 -0.0219 -0.7222 -0.6004
 8680TIP3   OH247454   1.695   6.471   5.305  0.5593 -0.6741 -0.1219
 8680TIP3    H147455   1.686   6.376   5.305 -2.5296 -0.4995  0.9314
 8680TIP3    H247456   1.640   6.501   5.233  0.2551  0.3456  0.5118
 8681TIP3   OH247457   6.184   2.928   0.337 -0.4975  0.0263  0.2080
 8681TIP3    H147458   6.106   2.956   0.288 -0.7203 -1.5263 -0.3844
 8681TIP3    H247459   6.169   2.835   0.354  2.8517 -1.3857 -3.1913
 8682TIP3   OH247460   1.238   2.849  12.354  0.0871  0.3640 -0.7270
 8682TIP3    H147461   1.160   2.904  12.346 -1.8122 -2.2708 -1.5174
 8682TIP3    H247462   1.225   2.799  12.434  1.0471 -0.0459 -0.8061
 8683TIP3   OH247463   4.200   2.665   3.041 -0.3293  0.0436  0.5777
 8683TIP3    H147464   4.177   2.598   2.977 -0.7848 -0.1991  0.9895
 8683TIP3    H247465   4.115   2.700   3.070 -0.1889 -0.6972  1.9539
 8684TIP3   OH247466   0.485   5.879   3.089  0.1031  0.0415  0.1318
 8684TIP3    H147467   0.573   5.850   3.066  1.1620  1.2124  2.3710
 8684TIP3    H247468   0.453   5.922   3.009  1.3848 -0.7457 -0.8511
 8685TIP3   OH247469   1.942   4.183  12.574 -0.3557 -0.6155 -0.5144
 8685TIP3    H147470   1.904   4.176  12.662  0.1250  0.4800 -0.2010
 8685TIP3    H247471   1.868   4.168  12.515 -1.4837  1.9712  0.0822
 8686TIP3   OH247472   0.441   0.110   5.130  0.3233 -0.2066  0.1222
 8686TIP3    H147473   0.491   0.133   5.051 -0.6989  0.5134 -0.3434
 8686TIP3    H247474   0.380   0.183   5.142 -2.1283 -1.9728 -0.6035
 8687TIP3   OH247475   1.178   0.262   2.852 -0.3615 -0.1506  0.3879
 8687TIP3    H147476   1.086   0.283   2.839 -0.6697 -2.1179 -0.9135
 8687TIP3    H247477   1.181   0.216   2.935 -0.3668  0.7941  0.9309
 8688TIP3   OH247478   1.408   5.850   2.837 -0.3326  0.4300  0.7834
 8688TIP3    H147479   1.452   5.856   2.922 -0.0354  1.6121  0.5737
 8688TIP3    H247480   1.460   5.906   2.779 -2.2786  2.2315  0.6157
 8689TIP3   OH247481   1.309   0.369   0.783  0.0892  0.3619 -0.0791
 8689TIP3    H147482   1.392   0.409   0.805  0.2464  0.0477 -0.0896
 8689TIP3    H247483   1.307   0.288   0.834 -0.0619  0.2067 -0.3264
 8690TIP3   OH247484   4.353   0.463   6.572  0.5126 -0.8279  0.4812
 8690TIP3    H147485   4.320   0.376   6.592 -0.2330 -0.4084  1.1425
 8690TIP3    H247486   4.448   0.451   6.562  0.6168 -1.4766  1.9606
 8691TIP3   OH247487   0.865   5.403   0.430 -0.0520 -0.5374 -0.6499
 8691TIP3    H147488   0.925   5.329   0.436 -0.7357 -1.0091  0.8766
 8691TIP3    H247489   0.889   5.459   0.504 -0.9046 -0.3098 -0.5358
 8692TIP3   OH247490   5.815   4.759   1.620  0.2719 -0.5012 -0.4470
 8692TIP3    H147491   5.897   4.719   1.592 -0.1095 -2.1929  0.7280
 8692TIP3    H247492   5.747   4.714   1.570 -0.1222 -1.0400  0.5375
 8693TIP3   OH247493   2.203   3.207  16.481  0.6036  0.2419  0.1147
 8693TIP3    H147494   2.228   3.285  16.433  0.3398  0.5925  0.5448
 8693TIP3    H247495   2.116   3.183  16.446  0.8466 -0.0815 -0.2819
 8694TIP3   OH247496   4.061   5.941  16.724  0.1654  0.2942  0.2157
 8694TIP3    H147497   4.110   6.009  16.676  0.7444  0.1454  0.5830
 8694TIP3    H247498   4.051   5.977  16.812 -0.9909  0.6119 -0.0290
 8695TIP3   OH247499   5.178   1.638   5.803  0.3221 -0.0180  0.3561
 8695TIP3    H147500   5.137   1.554   5.783  0.5450  0.2115 -1.1816
 8695TIP3    H247501   5.113   1.684   5.856 -1.1351  0.0312 -1.3685
 8696TIP3   OH247502   1.731   5.598  12.489 -0.1504  0.2771  0.3927
 8696TIP3    H147503   1.820   5.565  12.476  0.3076  1.4812  0.3515
 8696TIP3    H247504   1.685   5.526  12.532  0.5784 -0.7208 -0.4319
 8697TIP3   OH247505   3.317   5.734  10.898 -0.3115 -0.4340  0.0195
 8697TIP3    H147506   3.384   5.757  10.833 -1.1590  0.0538 -0.7001
 8697TIP3    H247507   3.303   5.640  10.885 -0.2524 -0.4008 -0.3001
 8698TIP3   OH247508   4.797   4.613   5.981 -0.1878  0.2305 -0.5681
 8698TIP3    H147509   4.721   4.586   6.032  1.5958 -2.2547  0.9775
 8698TIP3    H247510   4.765   4.623   5.892 -2.4511  0.0658  0.1790
 8699TIP3   OH247511   4.300   3.375  15.519  0.3543 -0.3454  0.3193
 8699TIP3    H147512   4.365   3.441  15.494 -0.5644  0.5688  0.2935
 8699TIP3    H247513   4.298   3.379  15.615 -0.5091  0.4715  0.2744
 8700TIP3   OH247514   2.739   0.689  15.276 -0.0123  0.0082 -0.0819
 8700TIP3    H147515   2.800   0.647  15.215 -0.6218  2.7115 -2.8279
 8700TIP3    H247516   2.667   0.627  15.284  1.6099 -1.8792  0.7073
 8701TIP3   OH247517   0.957   0.474  11.184 -0.5675  0.0856  0.4298
 8701TIP3    H147518   1.044   0.491  11.148 -1.4661  1.6014 -1.1596
 8701TIP3    H247519   0.928   0.394  11.139 -0.3223  0.0333  0.3597
 8702TIP3   OH247520   4.764   3.167  14.921 -0.3972 -0.2564  0.1255
 8702TIP3    H147521   4.689   3.108  14.920 -1.1895  0.7133  0.7295
 8702TIP3    H247522   4.734   3.244  14.969  1.0216  0.1146  0.4671
 8703TIP3   OH247523   2.423   6.396   0.469  0.3242 -0.2117  0.2305
 8703TIP3    H147524   2.430   6.389   0.565  0.0268  1.8268  0.4313
 8703TIP3    H247525   2.328   6.395   0.453  0.0649  3.8689  0.4536
 8704TIP3   OH247526   0.011   3.855   5.790 -0.5413  0.0318 -0.4514
 8704TIP3    H147527  -0.058   3.799   5.755  0.0687 -1.5625  0.7872
 8704TIP3    H247528   0.056   3.801   5.854  1.7894  1.0690 -1.0986
 8705TIP3   OH247529   0.545   5.896  10.862  0.2721 -0.3084 -0.1794
 8705TIP3    H147530   0.564   5.828  10.926 -2.0363 -1.9762 -1.1198
 8705TIP3    H247531   0.629   5.913  10.819  2.4810  2.4127  4.3917
 8706TIP3   OH247532   5.110   2.683  13.791  0.0819  0.8668 -0.4431
 8706TIP3    H147533   5.200   2.703  13.764 -0.1683  2.2750 -0.3390
 8706TIP3    H247534   5.058   2.757  13.758 -1.1102 -0.0888 -0.8100
 8707TIP3   OH247535   3.287   4.171  11.630 -0.3328  0.2408 -0.0484
 8707TIP3    H147536   3.206   4.132  11.598  0.3223 -2.1633  1.0092
 8707TIP3    H247537   3.303   4.129  11.714  1.1309  1.9276  0.5828
 8708TIP3   OH247538   4.906   4.298  17.272 -0.5384  0.0529 -0.3318
 8708TIP3    H147539   4.907   4.371  17.211 -1.8743  0.3576 -0.0073
 8708TIP3    H247540   4.814   4.272  17.279 -0.0418 -2.1309 -0.9710
 8709TIP3   OH247541   3.036   1.887  15.046  0.1693 -0.1910 -0.2738
 8709TIP3    H147542   3.036   1.805  15.096 -0.0676 -1.0302 -1.6098
 8709TIP3    H247543   3.017   1.861  14.956  1.4010  1.1785 -0.9821
 8710TIP3   OH247544   4.802   3.383   4.480 -0.1047  0.7899  0.9703
 8710TIP3    H147545   4.742   3.308   4.484  0.9742 -0.1563  0.0859
 8710TIP3    H247546   4.874   3.359   4.538  0.9471  0.4583 -0.4085
 8711TIP3   OH247547   4.119   2.503  11.739  0.0646  0.0768 -0.0660
 8711TIP3    H147548   4.134   2.552  11.658  0.2662  1.0430  0.5412
 8711TIP3    H247549   4.163   2.419  11.724  1.5030  0.8481 -0.3521
 8712TIP3   OH247550   2.579   6.740  13.846  0.5164  0.3055 -0.1624
 8712TIP3    H147551   2.629   6.676  13.896  0.5749  0.2066 -0.3460
 8712TIP3    H247552   2.635   6.761  13.772  0.4937  0.5650 -0.1047
 8713TIP3   OH247553   3.497   2.150  11.689  0.4123  0.0817  0.2314
 8713TIP3    H147554   3.459   2.145  11.777 -2.9797 -1.2490 -1.1446
 8713TIP3    H247555   3.537   2.064  11.675  1.3961  0.4682  0.6353
 8714TIP3   OH247556   1.160   2.288  13.048 -0.2426 -0.7777 -0.2932
 8714TIP3    H147557   1.108   2.207  13.049  0.5229 -1.2863 -0.5296
 8714TIP3    H247558   1.201   2.291  13.135 -0.4752 -0.5012 -0.1906
 8715TIP3   OH247559   5.513   1.881  15.515  0.0400  0.4543 -0.1747
 8715TIP3    H147560   5.536   1.931  15.594  2.3969  0.4212 -0.7675
 8715TIP3    H247561   5.517   1.945  15.444 -0.0451  0.0556 -0.5419
 8716TIP3   OH247562   6.201   1.350   4.733 -0.3121  0.2272 -0.3300
 8716TIP3    H147563   6.122   1.317   4.775 -0.1219  0.8096  0.5295
 8716TIP3    H247564   6.170   1.409   4.664 -0.7091  2.5345  1.6686
 8717TIP3   OH247565   5.136   6.616  15.875 -0.3781  0.4953  0.0935
 8717TIP3    H147566   5.151   6.605  15.782  0.2104 -2.7899  0.4468
 8717TIP3    H247567   5.210   6.668  15.906 -0.0390  0.7622 -1.1254
 8718TIP3   OH247568   0.403   4.690   6.571 -0.1766  0.2800  0.3052
 8718TIP3    H147569   0.421   4.763   6.630  2.3778  3.2523 -3.5958
 8718TIP3    H247570   0.308   4.693   6.558 -0.4898  1.0037  2.3934
 8719TIP3   OH247571   4.699   5.197  11.564  0.0186 -0.2114  1.3343
 8719TIP3    H147572   4.647   5.185  11.485 -0.1058 -0.3115  1.4311
 8719TIP3    H247573   4.682   5.119  11.616  1.6224 -1.1013  0.6121
 8720TIP3   OH247574   5.226   2.037   4.974  0.1865 -0.3256  0.0001
 8720TIP3    H147575   5.144   2.085   4.976  0.3123 -0.1196  1.5473
 8720TIP3    H247576   5.200   1.944   4.971 -0.0928 -0.2487  0.0388
 8721TIP3   OH247577   1.017   3.301   3.720  0.0085 -0.3916  0.3927
 8721TIP3    H147578   0.958   3.229   3.696  1.4467 -1.5170  0.0605
 8721TIP3    H247579   1.094   3.257   3.755  1.4884  0.9111 -1.0757
 8722TIP3   OH247580   2.354   1.481  10.993  0.3219  0.1902 -0.6295
 8722TIP3    H147581   2.404   1.400  11.003 -0.2482 -0.4130 -2.3712
 8722TIP3    H247582   2.418   1.544  10.959  0.6126  0.3227  0.1296
 8723TIP3   OH247583   3.692   4.246  12.221 -0.0511  0.2335 -0.4486
 8723TIP3    H147584   3.672   4.338  12.238 -1.4210 -0.0733 -0.2570
 8723TIP3    H247585   3.705   4.207  12.307  1.1739  0.3648 -0.5586
 8724TIP3   OH247586   5.352   4.527  11.431 -0.2421  0.8979  0.4666
 8724TIP3    H147587   5.315   4.605  11.391 -2.0303 -0.3828 -0.4897
 8724TIP3    H247588   5.335   4.537  11.524 -2.9243  0.4701  0.0918
 8725TIP3   OH247589   4.337   4.375  12.329 -0.8345  0.2288 -0.3436
 8725TIP3    H147590   4.324   4.413  12.242 -1.6305  0.0317 -0.3188
 8725TIP3    H247591   4.297   4.438  12.388 -1.5922 -0.3284 -0.2494
 8726TIP3   OH247592   2.687   5.850   4.162 -0.3291  0.4414  0.1520
 8726TIP3    H147593   2.771   5.837   4.204  0.8556 -0.4288 -2.3095
 8726TIP3    H247594   2.623   5.848   4.233  1.5703 -0.4298  1.9022
 8727TIP3   OH247595   0.419   0.070   5.583 -0.7076 -0.1941  0.2997
 8727TIP3    H147596   0.394   0.033   5.668  1.2062 -0.3785  0.8401
 8727TIP3    H247597   0.364   0.024   5.519  0.0483 -2.4110  1.1671
 8728TIP3   OH247598   0.814   6.696  16.245 -0.5645  0.2021 -0.5723
 8728TIP3    H147599   0.784   6.786  16.239 -1.2210  0.1736  1.4936
 8728TIP3    H247600   0.760   6.648  16.183 -2.6387  0.6795  0.7973
 8729TIP3   OH247601   3.711   1.481   4.951  0.0025  0.0176  0.0604
 8729TIP3    H147602   3.700   1.389   4.928  0.1669  0.0243 -0.0480
 8729TIP3    H247603   3.734   1.481   5.043 -0.1202 -0.0426  0.0912
 8730TIP3   OH247604   5.433   3.217  16.441  0.2420 -0.2447 -0.3258
 8730TIP3    H147605   5.497   3.153  16.407  0.9232  0.0797  0.3099
 8730TIP3    H247606   5.397   3.258  16.363  1.3203  0.0417 -0.6932
 8731TIP3   OH247607   0.389   1.829  15.056 -0.0832  0.2082 -0.1992
 8731TIP3    H147608   0.310   1.855  15.008  0.9315 -0.2261 -2.2143
 8731TIP3    H247609   0.435   1.770  14.996  1.5530  0.0827  1.1113
 8732TIP3   OH247610   1.896   2.730   2.849  0.4617 -0.1405 -0.4268
 8732TIP3    H147611   1.899   2.640   2.817  2.0761 -1.1399  2.2251
 8732TIP3    H247612   1.922   2.783   2.774  1.0665 -2.0244 -1.6091
 8733TIP3   OH247613   2.506   0.163  12.463  0.3345  0.3028 -0.3169
 8733TIP3    H147614   2.484   0.256  12.458  0.7574  0.3474 -2.2649
 8733TIP3    H247615   2.423   0.120  12.485  0.3479  1.1742  1.6660
 8734TIP3   OH247616   2.242   0.669   0.788 -0.1404 -0.0900  0.3835
 8734TIP3    H147617   2.177   0.622   0.840  2.1377 -1.3732  2.2674
 8734TIP3    H247618   2.316   0.608   0.782  0.1449  0.3665 -3.6119
 8735TIP3   OH247619   1.568   5.641   3.974 -0.5758 -0.1263 -0.4335
 8735TIP3    H147620   1.648   5.689   3.995 -1.4365  0.4470  1.8792
 8735TIP3    H247621   1.502   5.709   3.962 -0.9923 -0.6310 -1.0521
 8736TIP3   OH247622   1.555   3.251  10.723  0.0145  0.1305  0.1903
 8736TIP3    H147623   1.579   3.181  10.663  2.3816  0.3743  0.7263
 8736TIP3    H247624   1.548   3.208  10.808 -2.6418 -0.0970 -0.0732
 8737TIP3   OH247625   6.092   4.771  14.861 -0.2310 -0.0091  0.3230
 8737TIP3    H147626   6.096   4.818  14.944  1.3249 -0.8006  0.7442
 8737TIP3    H247627   6.002   4.739  14.855 -1.0974  2.2298  0.4397
 8738TIP3   OH247628   3.308   1.073   1.976 -0.3683  0.2345  0.2639
 8738TIP3    H147629   3.214   1.060   1.966 -0.5010  1.0406  0.4477
 8738TIP3    H247630   3.335   1.122   1.899 -0.1316  0.1728  0.3055
 8739TIP3   OH247631   5.012   6.338   4.776  0.3013 -0.1405 -0.0113
 8739TIP3    H147632   5.012   6.382   4.691 -2.3851 -0.6973 -0.4106
 8739TIP3    H247633   5.052   6.400   4.836 -1.0310  1.8217 -1.0436
 8740TIP3   OH247634   4.443   3.881   0.127 -0.2912 -0.1155 -0.9170
 8740TIP3    H147635   4.466   3.795   0.162 -1.3235  0.1241  0.4502
 8740TIP3    H247636   4.522   3.911   0.082  0.8329 -0.8334  0.5081
 8741TIP3   OH247637   3.686   0.712  13.583  0.1608 -0.1192  0.3494
 8741TIP3    H147638   3.701   0.749  13.670  1.6564  1.7161 -0.6271
 8741TIP3    H247639   3.758   0.745  13.530 -1.9962  0.8235 -2.1973
 8742TIP3   OH247640   5.338   6.053   3.900 -0.3101 -0.1172  0.3590
 8742TIP3    H147641   5.409   5.997   3.931 -1.2125 -2.5729 -1.6155
 8742TIP3    H247642   5.267   5.992   3.880 -1.1107  1.5973 -2.6957
 8743TIP3   OH247643   4.555   5.322  13.474 -0.2375  0.3844 -0.1010
 8743TIP3    H147644   4.474   5.352  13.434 -1.0544  0.0741  1.2658
 8743TIP3    H247645   4.567   5.233  13.442  0.3336  0.9033 -1.4044
 8744TIP3   OH247646   2.472   2.562  13.221  0.2735 -0.2494 -0.3323
 8744TIP3    H147647   2.563   2.549  13.196 -0.1437 -0.8635 -1.6156
 8744TIP3    H247648   2.423   2.499  13.168 -0.8272 -0.5275  0.9511
 8745TIP3   OH247649   2.296   0.221  11.994 -0.7765 -0.3896  0.2164
 8745TIP3    H147650   2.318   0.283  12.063 -0.1915  0.1654 -0.4481
 8745TIP3    H247651   2.261   0.276  11.923 -4.3102 -1.1785  1.1541
 8746TIP3   OH247652   1.067   5.457  14.246  0.2280  0.4449  0.1136
 8746TIP3    H147653   1.098   5.547  14.261  1.4480  0.1279 -0.4189
 8746TIP3    H247654   1.008   5.465  14.171 -1.6673  1.1733  1.5886
 8747TIP3   OH247655   2.129   0.020   4.622  0.2344  0.5969  0.8122
 8747TIP3    H147656   2.083   0.003   4.704  1.4359  3.3652  2.1863
 8747TIP3    H247657   2.219  -0.008   4.638  0.5760  1.5434  0.6508
 8748TIP3   OH247658   0.867   2.430  14.816  0.3614  0.0224 -0.8048
 8748TIP3    H147659   0.786   2.455  14.860 -0.3551 -0.0183 -2.0431
 8748TIP3    H247660   0.936   2.451  14.878 -0.4568  1.9034 -0.4703
 8749TIP3   OH247661   6.129   6.342  13.824 -0.0944  0.0926  0.7488
 8749TIP3    H147662   6.106   6.354  13.917 -0.1582  1.4984  0.5813
 8749TIP3    H247663   6.078   6.409  13.778  2.5555  1.8492  0.1150
 8750TIP3   OH247664   5.921   1.513  12.219  0.6780  0.0064  0.2969
 8750TIP3    H147665   5.870   1.594  12.210 -1.5446 -1.4676 -1.3684
 8750TIP3    H247666   5.862   1.452  12.263  1.4526 -1.3925 -0.5386
 8751TIP3   OH247667   5.266   4.201   6.680 -1.0145 -0.4994  0.0138
 8751TIP3    H147668   5.328   4.255   6.728 -0.0150  0.1639 -1.9292
 8751TIP3    H247669   5.223   4.261   6.619 -0.9219 -1.6152 -1.1975
 8752TIP3   OH247670   2.888   0.369   3.128  0.2337  0.0593  0.0469
 8752TIP3    H147671   2.967   0.384   3.076 -0.2798  0.6260 -0.5867
 8752TIP3    H247672   2.816   0.382   3.066 -0.4278  1.6760  1.0904
 8753TIP3   OH247673   4.137   6.747  16.301 -0.5716  0.2167  0.7409
 8753TIP3    H147674   4.053   6.765  16.344 -1.1523  1.4717 -0.8296
 8753TIP3    H247675   4.122   6.768  16.209  0.5639 -2.6429 -0.1896
 8754TIP3   OH247676   2.599   0.975  16.968 -0.8582 -0.2314  0.1582
 8754TIP3    H147677   2.533   1.019  17.021  0.1270  1.9918 -0.3247
 8754TIP3    H247678   2.656   0.931  17.031 -1.3679 -0.0489  0.7509
 8755TIP3   OH247679   5.590   1.984  15.749 -0.2185 -0.1191  0.1321
 8755TIP3    H147680   5.679   1.964  15.779  0.0195  0.9705  0.1903
 8755TIP3    H247681   5.533   1.944  15.814  0.2740  1.0579  1.3238
 8756TIP3   OH247682   4.838   4.380  14.775 -0.3622  0.0593  0.9494
 8756TIP3    H147683   4.920   4.425  14.754  0.8751 -1.3795  2.4946
 8756TIP3    H247684   4.782   4.398  14.699  1.6256  0.4554 -0.5160
 8757TIP3   OH247685   4.406   3.825  12.965 -0.0362  0.0535  0.1641
 8757TIP3    H147686   4.357   3.899  12.928 -0.1762  0.1493  0.5392
 8757TIP3    H247687   4.416   3.846  13.058 -0.7424 -0.7574  0.4343
 8758TIP3   OH247688   1.049   4.918  17.320 -0.5876 -0.5087  0.6780
 8758TIP3    H147689   1.095   4.889  17.241 -1.3196 -0.1321  0.0991
 8758TIP3    H247690   1.016   4.838  17.360 -0.5538 -0.6705  0.3807
 8759TIP3   OH247691   0.776   0.549  15.161  0.1674  0.5856  0.1156
 8759TIP3    H147692   0.721   0.602  15.220  0.5685  1.2833 -0.1330
 8759TIP3    H247693   0.778   0.463  15.202  2.0674  1.5405  2.2453
 8760TIP3   OH247694   0.113   0.733  11.285 -0.2719 -0.0260 -0.1326
 8760TIP3    H147695   0.147   0.655  11.242 -0.6532  1.0327 -2.5195
 8760TIP3    H247696   0.025   0.744  11.249 -1.1726  0.2313  1.9570
 8761TIP3   OH247697   4.983   1.445  12.102 -0.0673  0.1690 -0.5291
 8761TIP3    H147698   4.911   1.496  12.064  0.2468  1.5743  0.6748
 8761TIP3    H247699   5.044   1.511  12.134 -1.3026 -0.6896  4.3841
 8762TIP3   OH247700   5.568   2.085   4.446  0.0560 -0.3863  0.3429
 8762TIP3    H147701   5.639   2.103   4.507 -0.2391  0.6367  0.3997
 8762TIP3    H247702   5.488   2.108   4.494 -0.1310  1.4245 -0.7307
 8763TIP3   OH247703   5.079   2.567  11.431  0.0599 -0.1487  0.1203
 8763TIP3    H147704   4.993   2.610  11.434 -0.2094 -0.6996  2.8808
 8763TIP3    H247705   5.059   2.474  11.428  0.4141 -0.3979  2.7544
 8764TIP3   OH247706   5.399   0.011   1.792 -0.1281  0.1410  0.0851
 8764TIP3    H147707   5.333  -0.019   1.854 -0.9150 -0.2908 -0.9362
 8764TIP3    H247708   5.354   0.074   1.736  0.8064  1.1986  0.4841
 8765TIP3   OH247709   2.747   3.243  14.751 -0.1124 -0.1021  0.0584
 8765TIP3    H147710   2.795   3.284  14.823 -0.5094 -0.6705  0.6624
 8765TIP3    H247711   2.806   3.248  14.676 -0.8016  3.2504 -0.4345
 8766TIP3   OH247712   2.900   5.760  11.964  0.4208 -0.0263  0.3692
 8766TIP3    H147713   2.910   5.833  12.025 -0.4240  0.5379 -0.1489
 8766TIP3    H247714   2.966   5.776  11.896  0.9627 -0.3363  0.8148
 8767TIP3   OH247715   2.507   4.017  11.547  0.0697  0.3725 -0.1625
 8767TIP3    H147716   2.414   4.039  11.558 -0.5153 -2.5818  2.0652
 8767TIP3    H247717   2.518   4.009  11.452 -1.0323  3.7874 -0.7300
 8768TIP3   OH247718   6.132   0.751  13.266 -0.4200 -0.5657  0.0485
 8768TIP3    H147719   6.217   0.791  13.251  0.5845 -2.0408  1.4782
 8768TIP3    H247720   6.128   0.678  13.204 -1.4796  0.5526 -1.2875
 8769TIP3   OH247721   0.747   3.443   3.070  0.2140 -0.0457  1.4759
 8769TIP3    H147722   0.683   3.501   3.030  1.2247  0.0638 -0.0898
 8769TIP3    H247723   0.702   3.406   3.146 -2.3549 -1.2986 -0.4742
 8770TIP3   OH247724   1.006   2.738  11.383 -0.3792  0.3508 -0.0351
 8770TIP3    H147725   1.040   2.824  11.408 -0.5776  0.1712  0.8751
 8770TIP3    H247726   0.915   2.754  11.359  0.2294  0.8001 -2.2978
 8771TIP3   OH247727   6.388   0.160  16.281 -0.1312  0.2084 -0.0424
 8771TIP3    H147728   6.465   0.192  16.329 -1.0300  1.2939  0.7451
 8771TIP3    H247729   6.417   0.080  16.238  1.7973  1.2525 -0.7934
 8772TIP3   OH247730   1.760   0.924  12.518  0.5833 -0.1947  0.3955
 8772TIP3    H147731   1.812   0.888  12.446  3.5864  0.4391  2.0585
 8772TIP3    H247732   1.807   0.897  12.597 -0.0192  2.8389  1.9276
 8773TIP3   OH247733   3.912   0.631  13.086 -0.0520  0.1318 -0.0131
 8773TIP3    H147734   3.886   0.627  12.994 -1.5709  0.2221  0.3929
 8773TIP3    H247735   4.004   0.659  13.083 -0.7347  2.4998 -1.4270
 8774TIP3   OH247736   5.602   5.676  15.100  0.0770  0.5183  0.3592
 8774TIP3    H147737   5.654   5.667  15.180  0.2410 -2.9104  0.0024
 8774TIP3    H247738   5.665   5.662  15.029 -0.7962 -0.6661 -0.1941
 8775TIP3   OH247739   2.240   6.446   3.140 -0.5111  0.0402  0.5446
 8775TIP3    H147740   2.335   6.441   3.145 -0.4133 -0.9941 -1.2958
 8775TIP3    H247741   2.215   6.513   3.203  1.7583  3.1032 -1.5729
 8776TIP3   OH247742   3.942   1.760   1.332 -0.3964  0.2440 -0.0995
 8776TIP3    H147743   3.847   1.765   1.318 -0.0890  0.2564 -2.5057
 8776TIP3    H247744   3.976   1.716   1.255  1.7051  1.2913  0.1515
 8777TIP3   OH247745   2.448   0.604  11.613  0.1580 -0.5077  0.0344
 8777TIP3    H147746   2.543   0.603  11.625  0.6398  0.2286 -2.8818
 8777TIP3    H247747   2.432   0.541  11.543 -1.2274  0.7600 -0.8567
 8778TIP3   OH247748   3.921   5.710   0.354 -0.0222  0.0262  0.3490
 8778TIP3    H147749   3.964   5.692   0.271 -0.5138  0.4778 -0.0069
 8778TIP3    H247750   3.859   5.637   0.365 -0.6137  0.4428 -0.1382
 8779TIP3   OH247751   1.171   0.961  16.767  0.1444 -0.4013  0.5113
 8779TIP3    H147752   1.163   0.913  16.850 -0.4337  0.3401  0.8958
 8779TIP3    H247753   1.257   0.935  16.733  0.9007  0.1670  1.9185
 8780TIP3   OH247754   1.001   1.808   3.874 -0.5329  0.2288  0.1664
 8780TIP3    H147755   0.966   1.807   3.785 -0.4224 -1.6976  0.0993
 8780TIP3    H247756   0.935   1.762   3.926 -0.6609  1.4562  1.1302
 8781TIP3   OH247757   6.273   2.886  12.817 -0.2663  0.2343  1.0509
 8781TIP3    H147758   6.219   2.949  12.769  2.2864  1.3486 -0.5774
 8781TIP3    H247759   6.237   2.800  12.794 -1.9287  0.9433  0.8598
 8782TIP3   OH247760   6.679   2.236   4.209 -0.2506  0.3423  0.2239
 8782TIP3    H147761   6.675   2.187   4.127 -1.5323 -1.5044  1.3059
 8782TIP3    H247762   6.771   2.260   4.218  0.3059 -1.2509 -0.7480
 8783TIP3   OH247763   3.827   6.449   4.307  0.7059  0.1123  0.4163
 8783TIP3    H147764   3.883   6.387   4.261 -0.9001 -0.1535 -1.3167
 8783TIP3    H247765   3.841   6.532   4.261  0.4078  0.2685  0.6074
 8784TIP3   OH247766   6.126   1.590   1.166 -0.3079 -0.3413  0.0741
 8784TIP3    H147767   6.101   1.553   1.082  2.8306 -2.6342 -0.0530
 8784TIP3    H247768   6.109   1.520   1.229 -1.6957  0.9868  1.2379
 8785TIP3   OH247769   4.777   3.982  13.991 -0.1853  0.3362 -0.1682
 8785TIP3    H147770   4.724   3.903  13.990 -1.6118  1.2513 -0.5923
 8785TIP3    H247771   4.791   4.004  13.899  1.0494  0.0565 -0.0668
 8786TIP3   OH247772   3.223   4.774   4.014 -0.1227 -0.6840  0.1799
 8786TIP3    H147773   3.287   4.807   3.952  0.0652 -3.5544 -1.3238
 8786TIP3    H247774   3.274   4.750   4.091  0.2102 -0.6014 -0.0136
 8787TIP3   OH247775   3.945   4.618  13.923  0.0383  0.0443 -0.4131
 8787TIP3    H147776   3.907   4.697  13.883  0.4887  0.7724  0.5679
 8787TIP3    H247777   3.990   4.574  13.851  3.5900  2.9387 -0.2661
 8788TIP3   OH247778   0.883   1.583  12.340 -0.4097 -0.1534  0.2384
 8788TIP3    H147779   0.946   1.512  12.328 -0.3134 -0.0080 -0.1527
 8788TIP3    H247780   0.876   1.595  12.435 -0.4110 -0.6691  0.3041
 8789TIP3   OH247781   0.166   3.133  11.905  0.0605 -0.5943 -0.0908
 8789TIP3    H147782   0.210   3.146  11.989  1.1652 -0.1271 -0.7203
 8789TIP3    H247783   0.097   3.200  11.903  0.3037 -0.3312  0.2582
 8790TIP3   OH247784   2.807   3.317  11.926 -0.7170  0.3919 -0.5202
 8790TIP3    H147785   2.860   3.396  11.915 -0.5454  0.5059  0.9358
 8790TIP3    H247786   2.818   3.293  12.018 -0.5640 -1.4773 -0.9829
 8791TIP3   OH247787   5.945   0.807   1.987 -0.2383 -0.2736  0.1653
 8791TIP3    H147788   6.031   0.841   2.012 -0.5169 -1.2356  2.7016
 8791TIP3    H247789   5.958   0.772   1.899  2.0995 -0.8105  0.6599
 8792TIP3   OH247790   0.033   4.656   5.202  0.4095 -0.3654 -0.3342
 8792TIP3    H147791   0.059   4.670   5.293  0.3515 -2.7147  0.1075
 8792TIP3    H247792   0.097   4.594   5.168  0.1991  0.1789 -1.7973
 8793TIP3   OH247793   4.402   3.878  10.645 -0.1605  0.0373 -0.2928
 8793TIP3    H147794   4.321   3.830  10.658  1.5185 -2.7548  0.6221
 8793TIP3    H247795   4.444   3.835  10.571  0.9754  0.7081 -0.0627
 8794TIP3   OH247796   6.316   1.804  12.961 -0.3466 -0.0997 -0.7382
 8794TIP3    H147797   6.353   1.885  12.996  0.4015 -0.8912  0.3738
 8794TIP3    H247798   6.319   1.743  13.035 -0.9613 -1.1193 -1.5370
 8795TIP3   OH247799   3.509   0.967   6.350 -0.1009  0.3517 -0.0699
 8795TIP3    H147800   3.547   0.936   6.267 -0.9631  0.8610 -0.6814
 8795TIP3    H247801   3.548   1.053   6.364  1.7799 -0.6584  1.2754
 8796TIP3   OH247802   0.144   4.743   4.322  0.6644 -0.6916 -0.2240
 8796TIP3    H147803   0.114   4.747   4.413 -1.2840  0.6696 -0.8599
 8796TIP3    H247804   0.110   4.660   4.288 -0.1542 -0.3776 -0.1901
 8797TIP3   OH247805   4.339   4.845   3.434 -0.4229 -0.0541  0.3212
 8797TIP3    H147806   4.388   4.925   3.456 -0.8267  0.1205  0.6012
 8797TIP3    H247807   4.407   4.780   3.417  0.0040  1.0103 -2.6055
 8798TIP3   OH247808   0.801   3.765  16.474  0.3018 -0.8923  0.0079
 8798TIP3    H147809   0.890   3.773  16.442 -0.1406 -2.1966 -1.6906
 8798TIP3    H247810   0.746   3.775  16.396 -1.0516 -0.1170  1.0146
 8799TIP3   OH247811   5.946   6.113   1.018  0.1098 -0.3517 -0.0137
 8799TIP3    H147812   5.977   6.198   1.048  2.0888 -1.2662  0.6740
 8799TIP3    H247813   5.874   6.091   1.078  1.3396 -0.3214  1.5193
 8800TIP3   OH247814   2.459   0.130   5.335 -0.1562  0.4690 -0.1904
 8800TIP3    H147815   2.536   0.081   5.363  0.0111  0.1076 -1.2391
 8800TIP3    H247816   2.416   0.156   5.417  1.1105  0.7488  0.4102
 8801TIP3   OH247817   6.385   6.139   2.401  0.4691  0.7048 -0.3844
 8801TIP3    H147818   6.424   6.188   2.328 -1.3859  1.7541 -0.7322
 8801TIP3    H247819   6.392   6.047   2.374  1.7502  0.9223 -0.8744
 8802TIP3   OH247820   5.203   3.016   3.066  0.8862 -0.2005  0.1615
 8802TIP3    H147821   5.172   3.036   3.155 -1.3378  0.4011 -0.6873
 8802TIP3    H247822   5.225   3.101   3.029 -0.4747 -0.1669 -0.6283
 8803TIP3   OH247823   6.717   4.394  12.279 -0.3528 -0.1369  0.2133
 8803TIP3    H147824   6.681   4.306  12.267  3.8165 -2.1872  0.6902
 8803TIP3    H247825   6.689   4.443  12.202 -3.1474 -1.6912  0.1231
 8804TIP3   OH247826   2.882   5.589  16.013 -0.4163 -0.3476 -0.6575
 8804TIP3    H147827   2.800   5.598  15.965 -0.8647 -1.1221 -0.0384
 8804TIP3    H247828   2.881   5.660  16.077  0.4560  1.0738 -2.1345
 8805TIP3   OH247829   4.479   0.516   5.528  0.0914 -0.1347  0.1363
 8805TIP3    H147830   4.510   0.426   5.524 -0.9926 -0.5154 -0.1061
 8805TIP3    H247831   4.456   0.537   5.438 -0.5843  0.0379  0.3423
 8806TIP3   OH247832   2.340   5.595   4.379 -0.1492 -0.5179  0.5969
 8806TIP3    H147833   2.288   5.595   4.460 -0.7252  2.5746  0.3349
 8806TIP3    H247834   2.277   5.608   4.309  0.6706  0.1946 -0.0330
 8807TIP3   OH247835   2.236   0.703  16.161 -0.0405 -0.2037  0.3321
 8807TIP3    H147836   2.204   0.726  16.074  0.2055  0.4127  0.4020
 8807TIP3    H247837   2.317   0.654  16.145  0.1490  0.1452  0.2213
 8808TIP3   OH247838   5.324   2.134  11.498  0.1378 -0.3631  0.2736
 8808TIP3    H147839   5.270   2.099  11.428 -0.9505 -1.6157  1.6864
 8808TIP3    H247840   5.356   2.218  11.464 -2.0913  0.0774 -0.8792
 8809TIP3   OH247841   5.451   1.852   2.736 -0.3058  0.3714  0.0743
 8809TIP3    H147842   5.397   1.806   2.672  0.0969 -3.0449  1.9046
 8809TIP3    H247843   5.523   1.791   2.754  2.1900  3.2000  0.3963
 8810TIP3   OH247844   2.064   1.361  11.721  0.5167 -0.2804 -0.1258
 8810TIP3    H147845   2.080   1.349  11.814  2.7818  1.6927 -0.1563
 8810TIP3    H247846   2.012   1.285  11.695 -1.8297  0.0325  3.0563
 8811TIP3   OH247847   0.921   2.257   5.018 -0.0465 -0.0788 -0.3578
 8811TIP3    H147848   0.938   2.288   4.929 -1.6102 -0.7522 -0.9207
 8811TIP3    H247849   0.917   2.162   5.009  1.9964 -0.3409  0.8618
 8812TIP3   OH247850   1.837   1.389  12.880  0.4135 -0.4442  0.1404
 8812TIP3    H147851   1.798   1.361  12.962 -0.4393 -0.4289 -0.2538
 8812TIP3    H247852   1.930   1.368  12.889  0.3999 -0.0907  1.2572
 8813TIP3   OH247853   2.729   1.720  11.190  0.1710  1.1616  0.1021
 8813TIP3    H147854   2.679   1.742  11.269 -2.7165  0.3571 -1.3623
 8813TIP3    H247855   2.706   1.787  11.127 -0.6029 -0.2414 -1.1860
 8814TIP3   OH247856   2.304   5.799   3.660  0.5347 -0.3853 -0.2303
 8814TIP3    H147857   2.329   5.712   3.630  1.9859 -0.0150 -0.1848
 8814TIP3    H247858   2.263   5.784   3.746  1.5386 -0.9623  0.1638
 8815TIP3   OH247859   2.276   2.861   5.404 -0.2214 -0.0909 -0.0426
 8815TIP3    H147860   2.353   2.865   5.461  0.5939 -0.2355 -1.1017
 8815TIP3    H247861   2.209   2.912   5.451  0.8717  1.0296  0.3591
 8816TIP3   OH247862   5.308   1.100   3.015 -0.1167  0.4188  0.2643
 8816TIP3    H147863   5.234   1.046   2.988  1.3776 -1.4285 -0.3330
 8816TIP3    H247864   5.298   1.181   2.965 -1.9993  0.4528  0.6185
 8817TIP3   OH247865   1.227   5.040  11.967  0.4751 -0.4158 -0.0083
 8817TIP3    H147866   1.283   4.988  12.025  1.3755 -1.5872 -1.8484
 8817TIP3    H247867   1.144   4.991  11.964 -0.3461  0.7346  1.8310
 8818TIP3   OH247868   2.646   5.904   0.353  0.1834 -0.0050  0.0473
 8818TIP3    H147869   2.738   5.911   0.375  0.5256 -0.5220 -1.1034
 8818TIP3    H247870   2.611   5.992   0.364  1.1965  0.5632 -1.0948
 8819TIP3   OH247871   2.163   0.818  14.398  0.2659 -0.0460  0.0576
 8819TIP3    H147872   2.185   0.903  14.358 -1.5707  0.5965  0.2896
 8819TIP3    H247873   2.109   0.774  14.332  0.4139 -0.6312  0.3238
 8820TIP3   OH247874   3.376   5.116  12.261  0.1474 -0.0552 -0.3843
 8820TIP3    H147875   3.468   5.090  12.255  0.2221 -0.0737  0.7233
 8820TIP3    H247876   3.375   5.205  12.225  1.1740  1.1414  2.2929
 8821TIP3   OH247877   3.492   3.091  14.079 -1.0683  0.3930  0.3061
 8821TIP3    H147878   3.511   3.055  14.165 -0.9269  0.6282  0.3758
 8821TIP3    H247879   3.502   3.186  14.090 -1.7792  0.4821  0.2146
 8822TIP3   OH247880   4.389   1.213  14.778  0.1020 -0.4902 -0.0798
 8822TIP3    H147881   4.382   1.185  14.869 -0.9490 -0.5381 -0.1544
 8822TIP3    H247882   4.408   1.132  14.730  0.8446 -0.4326  0.1153
 8823TIP3   OH247883   4.956   0.381   6.414  0.1005  0.4106 -0.1099
 8823TIP3    H147884   5.014   0.446   6.455 -1.1996  0.1532  2.3662
 8823TIP3    H247885   4.873   0.393   6.459 -0.8768 -1.3441 -1.3565
 8824TIP3   OH247886   0.092   4.219  12.030 -0.8007  0.6550  0.1382
 8824TIP3    H147887   0.015   4.246  11.981 -1.0225  0.7196  0.5180
 8824TIP3    H247888   0.058   4.192  12.116 -0.5503 -0.5024 -0.1008
 8825TIP3   OH247889   3.273   1.503   3.745  0.1567 -0.2010 -0.1356
 8825TIP3    H147890   3.181   1.514   3.766 -0.2632 -1.6969 -1.0686
 8825TIP3    H247891   3.278   1.513   3.650  1.0649  0.5011 -0.0300
 8826TIP3   OH247892   0.720   1.266  14.514  0.0630  0.0175  0.1615
 8826TIP3    H147893   0.814   1.275  14.524 -0.0617  0.5308  0.9388
 8826TIP3    H247894   0.693   1.345  14.466 -0.1669  0.6296  1.2769
 8827TIP3   OH247895   2.681   0.963  15.325  0.2002  0.0610 -0.0364
 8827TIP3    H147896   2.688   1.006  15.239  2.0623  0.9230  0.4876
 8827TIP3    H247897   2.683   0.870  15.305  0.2277  0.2424 -0.9543
 8828TIP3   OH247898   3.383   1.161  11.852 -0.2924 -0.4471  0.3151
 8828TIP3    H147899   3.316   1.120  11.798  0.0077 -0.7590  0.1814
 8828TIP3    H247900   3.369   1.125  11.939 -0.4988 -0.2710  0.3568
 8829TIP3   OH247901   0.414   2.199   2.133 -0.5764 -0.0611  0.2847
 8829TIP3    H147902   0.402   2.114   2.176  1.1778 -0.7656 -0.4824
 8829TIP3    H247903   0.361   2.193   2.054  0.7638 -1.1160 -0.5738
 8830TIP3   OH247904   0.179   1.597   2.963  0.0909 -0.4200  0.0511
 8830TIP3    H147905   0.253   1.595   2.902  1.1427 -3.7610  1.1866
 8830TIP3    H247906   0.104   1.569   2.911 -0.2808  2.1287 -0.8990
 8831TIP3   OH247907   5.525   0.075   3.759  0.5901 -0.1758  0.3988
 8831TIP3    H147908   5.493   0.063   3.849 -2.2101 -1.1772 -0.6309
 8831TIP3    H247909   5.600   0.016   3.753 -0.3012 -1.5061  1.5855
 8832TIP3   OH247910   3.054   1.574  15.961 -0.5961 -0.0034 -0.1460
 8832TIP3    H147911   2.967   1.608  15.939 -0.9813  0.2435  1.5773
 8832TIP3    H247912   3.113   1.616  15.899 -1.4110  1.8396  0.2580
 8833TIP3   OH247913   2.167   5.454   3.081 -0.9115  0.5418  0.1486
 8833TIP3    H147914   2.174   5.544   3.049 -3.6855  0.6378 -0.4499
 8833TIP3    H247915   2.235   5.406   3.033  0.1703  2.1558 -0.0127
 8834TIP3   OH247916   4.804   1.839   4.106  0.2696  0.4133  0.2451
 8834TIP3    H147917   4.777   1.769   4.165  0.6322  0.1496  0.0964
 8834TIP3    H247918   4.753   1.824   4.026  0.6844  0.0536  0.0491
 8835TIP3   OH247919   2.230   6.480  16.437 -0.0444 -0.2162  0.0431
 8835TIP3    H147920   2.298   6.516  16.380  0.4415  0.6364  1.1299
 8835TIP3    H247921   2.188   6.557  16.476 -1.1949 -0.7550 -0.1061
 8836TIP3   OH247922   1.240   1.860  15.344  0.3144 -0.1975 -0.1567
 8836TIP3    H147923   1.208   1.911  15.419 -1.5198 -1.7293  0.1776
 8836TIP3    H247924   1.323   1.822  15.374  0.4997  0.6461  0.4280
 8837TIP3   OH247925   0.492   5.193   4.119 -0.0345 -0.0269  0.5096
 8837TIP3    H147926   0.542   5.220   4.196  0.6283 -0.3015  0.1758
 8837TIP3    H247927   0.505   5.098   4.114 -1.1149 -0.2116  0.7894
 8838TIP3   OH247928   3.399   3.325  13.171  0.0351 -0.0363  0.0799
 8838TIP3    H147929   3.324   3.377  13.198  2.0419  2.0995  1.8549
 8838TIP3    H247930   3.414   3.350  13.079 -1.0717 -0.0933 -0.1255
 8839TIP3   OH247931   5.798   0.755  11.926 -0.5053 -0.6620  0.0369
 8839TIP3    H147932   5.850   0.805  11.863 -1.0359 -3.3966 -2.8459
 8839TIP3    H247933   5.712   0.796  11.923  0.0811  0.7040  0.8844
 8840TIP3   OH247934   0.162   1.359  13.465  0.6102 -0.5542  0.3391
 8840TIP3    H147935   0.085   1.305  13.482 -0.3638  0.8228  0.4834
 8840TIP3    H247936   0.234   1.312  13.508 -0.3158 -1.3788  1.0414
 8841TIP3   OH247937   5.571   6.070  16.709  0.3055 -0.2746  0.0907
 8841TIP3    H147938   5.482   6.102  16.696  0.1062  0.2173  2.3523
 8841TIP3    H247939   5.620   6.106  16.634 -1.1695  0.2538 -0.6552
 8842TIP3   OH247940   2.824   2.251  15.512 -0.3136 -0.1579  0.3115
 8842TIP3    H147941   2.790   2.259  15.423  2.6637  2.1257 -0.7952
 8842TIP3    H247942   2.783   2.322  15.561  2.9707  3.1529 -1.2408
 8843TIP3   OH247943   1.923   4.329   6.540 -0.1651  0.5281 -0.1387
 8843TIP3    H147944   1.881   4.278   6.472  0.1508 -1.2280  0.9365
 8843TIP3    H247945   1.971   4.397   6.493 -1.2617  0.3617 -1.5565
 8844TIP3   OH247946   3.293   3.256  16.173  0.5380  0.0911 -0.2369
 8844TIP3    H147947   3.278   3.219  16.260  0.2700  0.0673 -0.2935
 8844TIP3    H247948   3.260   3.346  16.179 -2.3444 -0.7826 -1.1749
 8845TIP3   OH247949   6.722   4.673   1.370 -0.7006  0.1121 -0.2826
 8845TIP3    H147950   6.783   4.617   1.420  1.3971  2.2031 -0.3134
 8845TIP3    H247951   6.772   4.700   1.293 -0.9297  3.3032  0.5297
 8846TIP3   OH247952   1.700   4.005   1.027  0.3705  0.4365 -0.4035
 8846TIP3    H147953   1.672   3.931   0.973  0.1873 -0.7549  1.2491
 8846TIP3    H247954   1.773   4.044   0.980  1.1594 -1.4509 -0.8248
 8847TIP3   OH247955   5.541   0.519   0.086 -0.1460 -0.6265  0.1873
 8847TIP3    H147956   5.607   0.561   0.142  1.1247 -1.4712 -0.6092
 8847TIP3    H247957   5.583   0.514   0.000 -1.8754  0.2411 -0.7697
 8848TIP3   OH247958   2.995   5.897  11.220 -0.3173 -0.1284  0.3413
 8848TIP3    H147959   2.930   5.964  11.200 -0.1356  0.4412  1.5821
 8848TIP3    H247960   3.025   5.866  11.134 -1.7288  0.0700 -0.2421
 8849TIP3   OH247961   4.661   0.900  15.560 -0.1822  0.0345  0.1642
 8849TIP3    H147962   4.708   0.969  15.512  0.3973 -0.0233  0.6351
 8849TIP3    H247963   4.569   0.918  15.543 -0.0424  0.9023  0.2435
 8850TIP3   OH247964   6.274   5.024  12.659  0.4876 -0.6280  0.4432
 8850TIP3    H147965   6.348   5.066  12.703  0.6501 -1.0880  0.6117
 8850TIP3    H247966   6.312   4.945  12.619  1.1397  1.3418 -3.3332
 8851TIP3   OH247967   1.765   3.740   5.639  0.0992  0.2776  0.4297
 8851TIP3    H147968   1.741   3.720   5.730  0.8495 -2.4659  0.1176
 8851TIP3    H247969   1.693   3.706   5.587  1.1686 -1.2549 -0.1201
 8852TIP3   OH247970   5.347   1.621  11.749 -0.4690 -0.4426  0.0460
 8852TIP3    H147971   5.336   1.632  11.843  0.8784  0.3372  0.1328
 8852TIP3    H247972   5.259   1.600  11.717 -0.6253 -2.6096  1.6834
 8853TIP3   OH247973   0.796   2.794   4.458  0.2338  0.1502  0.7933
 8853TIP3    H147974   0.853   2.862   4.494  0.1222  0.8673 -0.3414
 8853TIP3    H247975   0.714   2.805   4.505  0.5236  0.1513  1.3086
 8854TIP3   OH247976   6.207   3.147   0.604  0.1436  0.0635  0.1901
 8854TIP3    H147977   6.195   3.228   0.653  1.2530  0.9547 -0.9696
 8854TIP3    H247978   6.177   3.167   0.515  0.0557 -0.9140 -0.0147
 8855TIP3   OH247979   3.184   3.224  11.479 -0.1188 -0.0494 -0.2446
 8855TIP3    H147980   3.142   3.269  11.406 -0.7422 -3.0407 -1.8978
 8855TIP3    H247981   3.261   3.182  11.441  0.4038 -0.4535  1.1740
 8856TIP3   OH247982   5.840   0.371  11.756 -0.7338  0.3938 -0.2299
 8856TIP3    H147983   5.811   0.406  11.841 -2.0363 -0.6094 -0.2318
 8856TIP3    H247984   5.933   0.354  11.768 -1.2457 -1.5019  1.6851
 8857TIP3   OH247985   2.443   1.355   1.893  0.1033  0.2703  0.7776
 8857TIP3    H147986   2.410   1.339   1.804  1.8374  0.5446  0.0355
 8857TIP3    H247987   2.369   1.396   1.939 -0.6411  0.7023 -0.7246
 8858TIP3   OH247988   2.663   3.488   1.130 -0.0094  0.6992  0.5261
 8858TIP3    H147989   2.600   3.418   1.145 -0.7385  1.0157 -0.9276
 8858TIP3    H247990   2.619   3.567   1.161  0.1760  0.7544  0.6536
 8859TIP3   OH247991   5.906   5.609   1.538  0.2927  0.0344  0.6765
 8859TIP3    H147992   5.998   5.586   1.545 -0.2904 -2.0751  2.9148
 8859TIP3    H247993   5.885   5.598   1.446  1.9797 -0.6661  0.3488
 8860TIP3   OH247994   6.571   6.152   6.295 -0.2350  0.1693  0.3068
 8860TIP3    H147995   6.513   6.132   6.221  1.8268 -0.2300 -1.3005
 8860TIP3    H247996   6.566   6.074   6.351  0.1906 -0.7020 -0.8252
 8861TIP3   OH247997   1.906   4.048   5.450 -0.0413  0.2278  0.0970
 8861TIP3    H147998   1.821   4.014   5.422  0.0049  0.6898 -0.6272
 8861TIP3    H247999   1.940   4.093   5.373  0.7454  0.2751  0.4655
 8862TIP3   OH248000   0.625   0.949   6.302  0.1376 -0.6372 -0.4611
 8862TIP3    H148001   0.537   0.941   6.265  0.4118 -0.8937 -1.0694
 8862TIP3    H248002   0.642   1.043   6.299 -0.3515 -0.5174  0.2333
 8863TIP3   OH248003   4.502   2.814   0.765 -0.4785  0.0020 -0.3652
 8863TIP3    H148004   4.502   2.718   0.764  0.4708 -0.0129  0.0004
 8863TIP3    H248005   4.452   2.838   0.687 -1.4551 -0.7774 -0.0010
 8864TIP3   OH248006   1.741   5.303   2.378 -0.0122  0.0148  0.1137
 8864TIP3    H148007   1.820   5.289   2.431 -0.9376 -0.7747  1.3424
 8864TIP3    H248008   1.695   5.374   2.422  0.0919  0.5981 -0.7072
 8865TIP3   OH248009   2.714   6.177   0.736 -0.2358  0.6771 -0.2741
 8865TIP3    H148010   2.662   6.164   0.657  0.8136 -1.2985 -0.6981
 8865TIP3    H248011   2.800   6.140   0.715  0.0187 -0.0708  1.8272
 8866TIP3   OH248012   3.396   4.081   3.760  0.2049  0.3354 -0.1969
 8866TIP3    H148013   3.491   4.074   3.748  0.0426 -0.4527 -1.1244
 8866TIP3    H248014   3.363   3.994   3.738 -0.7666  0.6893 -0.1518
 8867TIP3   OH248015   5.678   1.609   3.895 -0.1304  0.2787 -0.2342
 8867TIP3    H148016   5.758   1.571   3.931  0.8641  1.6051 -0.9614
 8867TIP3    H248017   5.646   1.668   3.963 -0.1523  0.2085 -0.1836
 8868TIP3   OH248018   2.815   0.380  15.633 -0.5645  0.0063 -0.2314
 8868TIP3    H148019   2.802   0.473  15.615 -0.2744  1.4212  5.0025
 8868TIP3    H248020   2.909   0.367  15.629 -0.7041 -0.9424 -3.4581
 8869TIP3   OH248021   1.961   2.617   0.071 -0.2919 -0.8092 -0.2465
 8869TIP3    H148022   1.963   2.576  -0.015 -1.3772 -0.7473 -0.3170
 8869TIP3    H248023   1.994   2.706   0.057 -1.0011 -0.6131 -0.7162
 8870TIP3   OH248024   2.950   3.700  12.888  0.6298  0.1558  0.1647
 8870TIP3    H148025   2.871   3.649  12.871 -0.7774  2.0341  0.7608
 8870TIP3    H248026   2.942   3.776  12.830  2.8120 -0.3349 -0.9195
 8871TIP3   OH248027   0.450   0.078   4.177 -0.1674 -0.4437  0.0088
 8871TIP3    H148028   0.512   0.139   4.217 -1.3099  0.4728  0.4393
 8871TIP3    H248029   0.426   0.018   4.247 -1.0994  0.3008  0.3507
 8872TIP3   OH248030   2.944   2.261  15.045 -0.2245 -0.1817  0.2469
 8872TIP3    H148031   2.886   2.190  15.073  1.6678 -1.6690  0.6254
 8872TIP3    H248032   2.968   2.240  14.955 -1.2916  1.1866 -0.4117
 8873TIP3   OH248033   1.234   2.798  14.451  0.1201 -0.1657 -0.1216
 8873TIP3    H148034   1.258   2.745  14.375 -1.1010 -1.5725  0.4364
 8873TIP3    H248035   1.183   2.740  14.506 -1.7219  1.7358  0.3141
 8874TIP3   OH248036   5.294   0.996  12.721 -0.3584  0.5063  0.0712
 8874TIP3    H148037   5.255   0.978  12.806 -0.7441  0.7020 -0.0604
 8874TIP3    H248038   5.254   1.078  12.693  1.6946  1.8256  0.8575
 8875TIP3   OH248039   2.823   0.212  13.364  0.2821 -0.6198 -0.0266
 8875TIP3    H148040   2.868   0.134  13.396  0.4858  0.1022  1.5089
 8875TIP3    H248041   2.771   0.242  13.438 -0.5146  0.1851 -0.8896
 8876TIP3   OH248042   6.272   2.122   4.359  0.4613  0.2024  0.5436
 8876TIP3    H148043   6.296   2.195   4.302  2.0129 -0.2570  0.5671
 8876TIP3    H248044   6.189   2.149   4.398  0.4811  1.4948 -0.2446
 8877TIP3   OH248045   1.545   4.106  11.924 -0.4191  0.1966 -0.2432
 8877TIP3    H148046   1.491   4.042  11.969 -0.8114 -0.4649 -1.6038
 8877TIP3    H248047   1.485   4.151  11.865  0.1524  0.7556 -0.4095
 8878TIP3   OH248048   5.329   5.693   2.855 -0.3060  0.0026 -0.2032
 8878TIP3    H148049   5.360   5.707   2.945  0.0979 -2.8290  0.1866
 8878TIP3    H248050   5.373   5.612   2.827 -2.5838 -0.7311 -1.9253
 8879TIP3   OH248051   3.307   5.708  16.739 -0.1392 -0.8466 -0.7141
 8879TIP3    H148052   3.367   5.669  16.802  1.0061 -0.3312 -1.4601
 8879TIP3    H248053   3.225   5.720  16.788  0.7378 -0.3832  0.6929
 8880TIP3   OH248054   1.168   1.665  16.948  0.9095  0.2047  0.4894
 8880TIP3    H148055   1.218   1.735  16.989  1.7978  0.4261 -0.8793
 8880TIP3    H248056   1.221   1.639  16.872 -0.3516 -0.5888 -0.1618
 8881TIP3   OH248057   2.549   4.646  13.391 -0.2227 -0.0907 -0.3339
 8881TIP3    H148058   2.465   4.599  13.389 -0.6935  0.6722  0.8795
 8881TIP3    H248059   2.526   4.735  13.417  0.9407  0.2068 -0.2942
 8882TIP3   OH248060   2.821   5.783  13.948 -0.0994  0.1534 -0.1204
 8882TIP3    H148061   2.848   5.859  13.896  1.1446  0.3689  0.7997
 8882TIP3    H248062   2.735   5.808  13.982  0.9347  1.8551  1.4377
 8883TIP3   OH248063   0.840   2.351  12.260 -0.4272  0.2931  0.0867
 8883TIP3    H148064   0.904   2.309  12.202 -0.7243  0.1224 -0.1222
 8883TIP3    H248065   0.844   2.300  12.341  0.9331  1.3295  0.7053
 8884TIP3   OH248066   1.032   4.501  15.739 -0.4796  0.6136 -0.8414
 8884TIP3    H148067   1.071   4.498  15.652  1.5183  0.9492 -0.0304
 8884TIP3    H248068   1.046   4.413  15.775 -2.1577  0.1791 -1.1669
 8885TIP3   OH248069   5.325   0.871   4.038 -0.7029 -0.1744 -0.2827
 8885TIP3    H148070   5.323   0.944   4.100 -0.6534  2.0401 -2.6916
 8885TIP3    H248071   5.393   0.813   4.071 -1.5681  0.2134  2.3752
 8886TIP3   OH248072   5.572   5.463   0.380  0.3112  0.1330 -0.0226
 8886TIP3    H148073   5.624   5.392   0.342  0.9679  1.5646 -2.0090
 8886TIP3    H248074   5.615   5.543   0.348 -0.9060  1.4159  1.4114
 8887TIP3   OH248075   3.064   3.352   6.383 -0.0614  0.1713  0.5978
 8887TIP3    H148076   3.134   3.401   6.425 -0.0083  0.4203  0.2241
 8887TIP3    H248077   3.008   3.418   6.344  0.0959 -0.0635 -0.0461
 8888TIP3   OH248078   5.187   3.061   3.581  0.0815 -0.1626 -0.3606
 8888TIP3    H148079   5.135   3.116   3.640  0.9872  0.6484 -0.3126
 8888TIP3    H248080   5.223   2.993   3.638 -0.0073 -0.0664 -0.1889
 8889TIP3   OH248081   2.149   1.177   0.759 -0.1845  0.5614 -0.7787
 8889TIP3    H148082   2.226   1.234   0.764  0.5849 -0.5152  2.0630
 8889TIP3    H248083   2.182   1.091   0.785 -2.2955  0.0350  0.3838
 8890TIP3   OH248084   0.040   5.389  12.215  0.1163 -0.4899  0.0813
 8890TIP3    H148085   0.035   5.353  12.126 -0.9484 -1.9632  0.6892
 8890TIP3    H248086  -0.036   5.446  12.223 -1.2063 -2.2528  0.7782
 8891TIP3   OH248087   1.588   2.319  10.943  0.2051  0.0283  0.0173
 8891TIP3    H148088   1.640   2.258  10.890 -1.7220 -0.4472 -1.4469
 8891TIP3    H248089   1.563   2.388  10.882  0.4913  1.1356  1.1210
 8892TIP3   OH248090   1.696   3.861  12.868  0.0324  0.0414  0.0336
 8892TIP3    H148091   1.660   3.925  12.807  0.5492  1.6044  1.2947
 8892TIP3    H248092   1.786   3.848  12.840 -0.4781 -1.3141 -1.1056
 8893TIP3   OH248093   4.982   4.306   4.090 -0.5566 -0.3104 -0.0659
 8893TIP3    H148094   5.023   4.245   4.151  0.7742  0.3404 -0.2861
 8893TIP3    H248095   4.889   4.284   4.094 -0.2642 -1.5067  0.7990
 8894TIP3   OH248096   0.502   3.376  12.140 -0.1754 -0.4721 -0.3458
 8894TIP3    H148097   0.580   3.403  12.189 -1.3005 -0.9279  1.8167
 8894TIP3    H248098   0.535   3.311  12.077  0.9185 -2.5671  2.1943
 8895TIP3   OH248099   1.646   3.037  16.495  0.0186 -0.7179 -0.2216
 8895TIP3    H148100   1.721   2.997  16.450  0.2747 -0.4174 -0.0667
 8895TIP3    H248101   1.644   2.996  16.581  0.9739  0.4009  0.3564
 8896TIP3   OH248102   3.670   2.620   4.698 -0.1521 -0.6814  0.4896
 8896TIP3    H148103   3.580   2.646   4.716 -1.2092 -4.4098  1.2889
 8896TIP3    H248104   3.715   2.703   4.680 -3.1830  1.5380  2.1862
 8897TIP3   OH248105   3.933   4.234   5.390  0.3962 -0.2052  0.4421
 8897TIP3    H148106   4.010   4.182   5.415 -0.0469 -1.0005  0.2013
 8897TIP3    H248107   3.905   4.197   5.306  1.5398  2.0661 -1.0482
 8898TIP3   OH248108   3.519   0.189  12.168  0.2158  0.4069 -0.3020
 8898TIP3    H148109   3.541   0.100  12.140 -2.1117 -0.2726 -0.1517
 8898TIP3    H248110   3.509   0.239  12.087  0.8348  0.3789 -0.4041
 8899TIP3   OH248111   4.316   3.071   0.040  0.1601  0.1011 -0.1383
 8899TIP3    H148112   4.378   3.085   0.112 -2.1880  2.3509  1.6440
 8899TIP3    H248113   4.309   3.157  -0.002  0.7017 -0.9360 -2.5259
 8900TIP3   OH248114   0.349   5.554   2.404  0.0350  0.2724 -0.1170
 8900TIP3    H148115   0.365   5.623   2.469  0.5247  1.3404 -1.3246
 8900TIP3    H248116   0.400   5.479   2.436 -0.3102  0.5332  1.0927
 8901TIP3   OH248117   6.487   5.571   2.425 -0.1282  0.1427 -0.1341
 8901TIP3    H148118   6.526   5.606   2.345  1.3805 -1.5174 -0.1791
 8901TIP3    H248119   6.394   5.561   2.404 -0.1528  1.8142 -0.8965
 8902TIP3   OH248120   0.804   0.957  16.547 -0.3973 -0.2071 -0.1723
 8902TIP3    H148121   0.831   0.872  16.582  0.6791 -0.4870 -1.6071
 8902TIP3    H248122   0.885   1.006  16.539 -0.5624 -0.1862 -2.3025
 8903TIP3   OH248123   5.723   6.464  13.139 -0.3068  0.7318 -0.2256
 8903TIP3    H148124   5.774   6.481  13.059 -1.7262  0.8904 -1.1373
 8903TIP3    H248125   5.720   6.368  13.145  1.5467  0.6939  0.8378
 8904TIP3   OH248126   1.665   4.651  14.487 -0.2938  0.3619 -0.2765
 8904TIP3    H148127   1.663   4.588  14.415  0.4629  1.3332 -1.1796
 8904TIP3    H248128   1.754   4.645  14.521 -0.8118 -0.5074  0.9880
 8905TIP3   OH248129   2.048   6.366   5.367 -0.2378 -0.0958  0.1135
 8905TIP3    H148130   2.125   6.314   5.343 -0.4562 -0.3297 -0.0886
 8905TIP3    H248131   2.017   6.326   5.448  0.8959  1.1142  1.1994
 8906TIP3   OH248132   2.644   6.142  12.105 -0.8396  0.0059  0.0453
 8906TIP3    H148133   2.649   6.138  12.010  0.5696  0.8430  0.0500
 8906TIP3    H248134   2.551   6.148  12.125 -1.1409 -0.0619 -1.2889
 8907TIP3   OH248135   4.866   3.593   3.342 -0.2785 -0.0012  0.6891
 8907TIP3    H148136   4.780   3.561   3.372  0.4312  0.6067  3.6836
 8907TIP3    H248137   4.846   3.672   3.293 -1.6790 -2.1901 -2.6303
 8908TIP3   OH248138   6.340   1.014   3.235 -0.1083  0.2550 -0.1370
 8908TIP3    H148139   6.321   0.921   3.220 -1.6111  0.4439  0.4486
 8908TIP3    H248140   6.348   1.021   3.330 -0.5061  0.8162 -0.1445
 8909TIP3   OH248141   2.722   0.293   0.041  0.0855 -0.2206 -0.0177
 8909TIP3    H148142   2.721   0.374   0.092  1.4002  0.3388 -0.8372
 8909TIP3    H248143   2.787   0.238   0.083  0.3275 -0.2215 -0.3864
 8910TIP3   OH248144   1.354   3.292  12.790  0.2023  0.2271  0.3434
 8910TIP3    H148145   1.307   3.357  12.842 -0.2334 -0.0396  0.2826
 8910TIP3    H248146   1.313   3.296  12.704  0.6654  0.3910  0.1246
 8911TIP3   OH248147   4.325   0.319  17.138  0.6257  0.6447  0.7285
 8911TIP3    H148148   4.330   0.377  17.063  1.3706  1.0222  1.0555
 8911TIP3    H248149   4.417   0.303  17.163  0.4926 -1.3071  0.1631
 8912TIP3   OH248150   0.019   2.444   1.430  0.7297 -0.1060 -0.5385
 8912TIP3    H148151   0.087   2.450   1.362  1.0434  0.2583 -0.1998
 8912TIP3    H248152   0.004   2.350   1.441  1.4303 -0.2020 -0.3722
 8913TIP3   OH248153   2.863   4.030   4.679 -0.3680  0.4719  0.1040
 8913TIP3    H148154   2.862   3.998   4.770  0.7122  2.0422  0.7088
 8913TIP3    H248155   2.850   3.951   4.626  0.8750 -0.7696  1.5593
 8914TIP3   OH248156   1.004   5.583   4.297  0.4308  0.4657  0.4649
 8914TIP3    H148157   1.049   5.500   4.279 -0.0662  0.4531 -0.8154
 8914TIP3    H248158   0.912   5.564   4.282  0.0475  0.7042  2.2976
 8915TIP3   OH248159   2.480   1.100   4.042 -0.0676  0.0406  0.3372
 8915TIP3    H148160   2.561   1.116   3.993  1.1016  0.6373  2.3395
 8915TIP3    H248161   2.430   1.181   4.032  0.8608  0.7700  1.3385
 8916TIP3   OH248162   2.571   4.384   1.080 -0.5419  0.3359 -0.6859
 8916TIP3    H148163   2.617   4.339   1.010 -1.8687  0.4619 -1.6745
 8916TIP3    H248164   2.579   4.325   1.155  0.0815 -0.2481 -1.1929
 8917TIP3   OH248165   3.802   0.571   4.514 -0.2176 -0.4072 -0.1359
 8917TIP3    H148166   3.738   0.515   4.471  0.2860 -0.3882 -0.9120
 8917TIP3    H248167   3.872   0.512   4.540  0.6657 -0.0442 -1.6233
 8918TIP3   OH248168   4.639   0.027  11.259  0.3614 -0.1874  0.1143
 8918TIP3    H148169   4.651   0.069  11.174  0.3975  0.0454  0.2345
 8918TIP3    H248170   4.690   0.081  11.320  0.7804 -0.6631  0.1939
 8919TIP3   OH248171   4.798   1.197   5.760  0.4440 -0.1194  0.5004
 8919TIP3    H148172   4.791   1.113   5.715  1.1782 -0.3747  0.8386
 8919TIP3    H248173   4.709   1.231   5.763 -0.2684 -1.9342  2.3974
 8920TIP3   OH248174   3.252   0.976   3.793  0.3502  0.2786 -0.1191
 8920TIP3    H148175   3.334   1.001   3.836 -0.0899  2.7664 -0.6112
 8920TIP3    H248176   3.277   0.902   3.738  1.6261 -0.8502  1.8311
 8921TIP3   OH248177   6.534   1.370   0.948 -0.6854  0.0029  0.2241
 8921TIP3    H148178   6.564   1.296   1.002  0.2873  0.9573  1.0486
 8921TIP3    H248179   6.612   1.399   0.902 -0.9959  0.6790  0.1142
 8922TIP3   OH248180   6.369   5.569  13.580 -0.0250 -0.3262 -0.3639
 8922TIP3    H148181   6.439   5.515  13.542  0.9222 -0.9757  2.1049
 8922TIP3    H248182   6.413   5.621  13.647 -1.4875  1.3021 -0.5925
 8923TIP3   OH248183   6.112   1.423   1.405 -0.2574 -0.2002  0.4697
 8923TIP3    H148184   6.132   1.492   1.468 -0.5074 -0.1677  0.5156
 8923TIP3    H248185   6.131   1.342   1.451  0.4715 -0.1495  0.2605
 8924TIP3   OH248186   1.961   3.399   3.063  0.3316 -0.3447  0.2264
 8924TIP3    H148187   2.005   3.371   2.983  1.4441  0.3671  0.5696
 8924TIP3    H248188   2.004   3.351   3.133  0.5978  0.3809  0.5701
 8925TIP3   OH248189   1.190   5.797   4.370  0.0547  0.2604 -0.0886
 8925TIP3    H148190   1.168   5.754   4.452  0.8155  0.1357  0.0585
 8925TIP3    H248191   1.140   5.751   4.304  1.5709 -1.4959 -0.0714
 8926TIP3   OH248192   1.908   0.316   2.291  0.4956  0.1512  0.3005
 8926TIP3    H148193   1.853   0.388   2.323  1.9967  0.9867  1.0880
 8926TIP3    H248194   1.856   0.276   2.220 -0.6098  1.6367  0.2230
 8927TIP3   OH248195   0.994   4.940   1.078  0.4837 -0.3218  0.3765
 8927TIP3    H148196   1.019   4.989   1.157 -1.3931  0.7965  0.3393
 8927TIP3    H248197   0.924   4.992   1.039 -0.3983 -2.1859 -0.6467
 8928TIP3   OH248198   5.051   3.265   4.267  0.1151 -0.8225  0.3489
 8928TIP3    H148199   4.975   3.284   4.323  0.5321  0.4683  0.5059
 8928TIP3    H248200   5.075   3.349   4.229 -0.7481 -1.7921 -2.6176
 8929TIP3   OH248201   4.237   3.619   5.867  0.2299 -0.2698 -0.7480
 8929TIP3    H148202   4.303   3.681   5.898  1.8539 -1.9070 -0.8034
 8929TIP3    H248203   4.222   3.562   5.942  1.3848 -1.9427 -1.7335
 8930TIP3   OH248204   3.673   5.540  13.713 -0.0033 -0.2096 -0.2879
 8930TIP3    H148205   3.684   5.635  13.720  1.4151 -0.4094  0.9490
 8930TIP3    H248206   3.661   5.523  13.620 -3.8346  1.4559 -0.2553
 8931TIP3   OH248207   5.559   3.094  13.851  0.5785  0.3934  0.1740
 8931TIP3    H148208   5.591   3.073  13.939  2.0016 -1.1469 -0.6541
 8931TIP3    H248209   5.487   3.032  13.837  0.4862  0.5035  0.1519
 8932TIP3   OH248210   1.304   0.510  16.358  1.1196  0.0623  0.6638
 8932TIP3    H148211   1.396   0.527  16.380  1.0310 -0.2324  1.2913
 8932TIP3    H248212   1.306   0.482  16.267  1.5997  0.5237  0.5268
 8933TIP3   OH248213   0.060   3.408  16.287  0.0551 -0.1421 -0.3742
 8933TIP3    H148214   0.057   3.374  16.376 -0.3614 -2.3101 -1.1611
 8933TIP3    H248215  -0.031   3.411  16.259  0.2623 -0.8284 -1.1803
 8934TIP3   OH248216   5.511   5.183  13.753 -0.3129  0.2422  0.7899
 8934TIP3    H148217   5.432   5.201  13.805  0.6360  0.8826  2.0922
 8934TIP3    H248218   5.540   5.269  13.723 -0.9701 -0.1432 -1.0594
 8935TIP3   OH248219   3.859   2.500  17.026  0.2024  0.8858 -0.2555
 8935TIP3    H148220   3.870   2.559  17.101  2.1930 -1.6562  1.6605
 8935TIP3    H248221   3.945   2.458  17.016 -1.2019 -2.0749 -1.0735
 8936TIP3   OH248222   5.684   5.962   5.095  0.3776 -0.0609  0.0392
 8936TIP3    H148223   5.655   5.874   5.120  1.6803 -1.1669 -2.0218
 8936TIP3    H248224   5.774   5.967   5.127  1.5716 -0.9530 -2.8831
 8937TIP3   OH248225   1.688   5.428   5.091  0.2962 -0.9215  0.0269
 8937TIP3    H148226   1.712   5.422   4.998 -0.4912 -1.4558 -0.1523
 8937TIP3    H248227   1.746   5.495   5.126  0.0088 -0.0758 -1.0575
 8938TIP3   OH248228   0.458   2.717   2.911  0.0038 -0.1550 -0.4735
 8938TIP3    H148229   0.364   2.728   2.897 -0.2720 -1.8950 -0.2541
 8938TIP3    H248230   0.468   2.708   3.006  0.3618 -0.1563 -0.5080
 8939TIP3   OH248231   4.943   6.633   5.780 -0.3580  0.0076 -0.3465
 8939TIP3    H148232   5.024   6.629   5.832 -1.2929  0.3889  1.2066
 8939TIP3    H248233   4.963   6.584   5.701  1.2502 -0.3102  0.2155
 8940TIP3   OH248234   6.257   0.985   4.608  0.1932  0.2903 -0.6823
 8940TIP3    H148235   6.232   0.911   4.663 -0.8977  1.2924  0.2353
 8940TIP3    H248236   6.347   0.968   4.583  0.1414 -1.0496 -0.0033
 8941TIP3   OH248237   0.361   3.207   1.225  0.2869 -0.5424 -0.2668
 8941TIP3    H148238   0.408   3.289   1.213 -2.2317  1.0523  0.0935
 8941TIP3    H248239   0.325   3.186   1.139 -1.3356  0.2546  0.1816
 8942TIP3   OH248240   6.757   2.773   4.592  0.6267 -0.1734 -0.6712
 8942TIP3    H148241   6.689   2.731   4.645  1.6058  0.0017  0.7644
 8942TIP3    H248242   6.771   2.858   4.633  1.3819 -0.0156 -1.2345
 8943TIP3   OH248243   1.334   1.395   2.730  0.1553 -0.3839  0.1179
 8943TIP3    H148244   1.326   1.347   2.647 -0.7409  0.9570 -0.5955
 8943TIP3    H248245   1.390   1.470   2.709 -1.5593  0.9812  0.2311
 8944TIP3   OH248246   1.414   6.237  13.036  0.7814 -0.2329  0.1378
 8944TIP3    H148247   1.340   6.243  13.096  0.8243  2.0955  0.0403
 8944TIP3    H248248   1.378   6.263  12.951  1.5388  0.2244 -0.0549
 8945TIP3   OH248249   5.591   1.254   1.467 -0.1138  0.3995 -0.8312
 8945TIP3    H148250   5.666   1.278   1.521 -0.2405 -0.4212 -0.2695
 8945TIP3    H248251   5.613   1.288   1.380  1.9101 -1.6032 -1.2006
 8946TIP3   OH248252   0.321   6.307  11.284 -0.3334  0.0541  0.1663
 8946TIP3    H148253   0.269   6.261  11.218  0.7507 -2.4516  0.9240
 8946TIP3    H248254   0.382   6.361  11.233 -0.5048 -0.6768 -0.8481
 8947TIP3   OH248255   1.231   2.736  15.137  0.1629 -0.5139 -1.1021
 8947TIP3    H148256   1.308   2.792  15.126 -0.8263  0.9330 -1.0155
 8947TIP3    H248257   1.180   2.751  15.058 -2.7139  3.0330  1.1128
 8948TIP3   OH248258   0.868   5.850  16.408  0.0349 -0.3298  0.4014
 8948TIP3    H148259   0.929   5.810  16.346 -1.3968  0.2510 -1.4587
 8948TIP3    H248260   0.828   5.775  16.452  2.0367 -0.7243  1.6905
 8949TIP3   OH248261   2.529   4.141   4.948 -0.1510 -0.2059 -0.5874
 8949TIP3    H148262   2.590   4.147   5.022 -0.5698  2.4224 -0.3549
 8949TIP3    H248263   2.526   4.048   4.927  1.3131 -0.8263  1.5831
 8950TIP3   OH248264   4.123   4.027  11.338 -0.2404 -0.4420 -0.2138
 8950TIP3    H148265   4.191   4.073  11.290  0.8515 -1.6328  0.1360
 8950TIP3    H248266   4.117   3.941  11.295  1.3215 -1.8488  2.1694
 8951TIP3   OH248267   0.314   2.555  14.522  0.0898 -0.5603 -0.7623
 8951TIP3    H148268   0.356   2.635  14.554 -0.7511  0.3169 -1.7706
 8951TIP3    H248269   0.358   2.536  14.439 -1.1148  0.1089 -1.5981
 8952TIP3   OH248270   4.256   0.916  17.317 -0.3672 -0.3207 -0.2045
 8952TIP3    H148271   4.342   0.955  17.334 -0.9834  2.2213 -2.1445
 8952TIP3    H248272   4.227   0.883  17.402  1.6084  0.6817  0.9473
 8953TIP3   OH248273   6.250   3.956  13.428  0.1519  0.1985 -0.3202
 8953TIP3    H148274   6.332   3.986  13.389 -0.5525  1.1578 -1.1100
 8953TIP3    H248275   6.209   4.036  13.460  0.0687 -0.4134  1.1692
 8954TIP3   OH248276   0.184   1.737  12.809  0.0101 -0.3123 -0.1557
 8954TIP3    H148277   0.179   1.832  12.816  2.3532 -0.1390  0.2051
 8954TIP3    H248278   0.094   1.707  12.810 -0.7391  1.8190  0.8940
 8955TIP3   OH248279   3.449   0.863  14.090 -0.4455 -0.1016 -0.0531
 8955TIP3    H148280   3.393   0.882  14.015 -1.7178 -0.9829  0.6358
 8955TIP3    H248281   3.397   0.889  14.166  1.4175  2.2413  0.5283
 8956TIP3   OH248282   5.782   1.345   4.728  0.3972 -0.0306  0.1765
 8956TIP3    H148283   5.850   1.334   4.794  0.1137 -0.3415  0.4126
 8956TIP3    H248284   5.813   1.296   4.652  0.4237 -0.1880  0.2915
 8957TIP3   OH248285   2.221   3.866   3.187  0.4098  0.1580  0.1193
 8957TIP3    H148286   2.165   3.942   3.176 -0.1191 -0.5323 -3.0291
 8957TIP3    H248287   2.273   3.862   3.106 -0.1185 -3.1490 -0.2323
 8958TIP3   OH248288   6.141   2.392   2.626 -0.5521 -0.4345  0.6759
 8958TIP3    H148289   6.228   2.352   2.622 -1.8709 -3.6406  0.7834
 8958TIP3    H248290   6.085   2.332   2.577 -2.7492  1.4706  0.6942
 8959TIP3   OH248291   5.175   6.246   5.100 -0.0487 -0.0279  0.4309
 8959TIP3    H148292   5.176   6.339   5.077  0.1059 -0.3310 -0.8525
 8959TIP3    H248293   5.239   6.206   5.041 -1.4434 -1.2230 -0.3496
 8960TIP3   OH248294   6.625   4.858   5.443 -0.2797  0.7911  1.1276
 8960TIP3    H148295   6.651   4.936   5.492  2.5656 -0.4640  1.8279
 8960TIP3    H248296   6.690   4.792   5.467 -1.8175 -1.4407 -0.4299
 8961TIP3   OH248297   5.280   4.832  15.050 -0.0697 -0.6870 -0.3057
 8961TIP3    H148298   5.366   4.870  15.032 -0.9215  1.4364 -0.1303
 8961TIP3    H248299   5.274   4.758  14.989  1.0656  0.3708 -1.7967
 8962TIP3   OH248300   5.653   4.657   2.444  0.6063  0.1817  0.0003
 8962TIP3    H148301   5.627   4.749   2.441 -0.4630 -0.0666  0.8887
 8962TIP3    H248302   5.662   4.638   2.537 -0.3315 -0.9083 -0.1181
 8963TIP3   OH248303   5.821   1.577   0.515  0.5729 -0.0316  0.6848
 8963TIP3    H148304   5.772   1.525   0.451 -1.9585  0.7771  1.8172
 8963TIP3    H248305   5.892   1.520   0.544 -0.1451 -1.6015 -0.4874
 8964TIP3   OH248306   3.241   0.264  14.293  0.1431  0.0306 -0.0736
 8964TIP3    H148307   3.180   0.323  14.249 -0.0728  1.5884  2.1234
 8964TIP3    H248308   3.195   0.180  14.295 -1.2829  0.7861  0.1679
 8965TIP3   OH248309   6.391   2.448  12.348 -0.0291  0.4093 -0.5923
 8965TIP3    H148310   6.369   2.528  12.396  0.2163 -0.5210  1.1771
 8965TIP3    H248311   6.306   2.411  12.323 -0.2275  0.3500  0.1332
 8966TIP3   OH248312   2.704   0.581  17.161 -0.2397 -0.1358  0.1767
 8966TIP3    H148313   2.661   0.603  17.243  0.3907 -0.0882  0.4979
 8966TIP3    H248314   2.753   0.660  17.137  0.0889 -0.3693  0.0813
 8967TIP3   OH248315   3.751   0.652   3.853 -0.1679 -0.5530  0.3415
 8967TIP3    H148316   3.714   0.593   3.919 -0.4671  1.0560  1.6854
 8967TIP3    H248317   3.710   0.625   3.771 -0.7494 -1.8055  1.0152
 8968TIP3   OH248318   5.942   5.993   4.500  0.1725 -0.0509  0.2843
 8968TIP3    H148319   5.990   6.071   4.528  0.2611 -0.2131  0.5931
 8968TIP3    H248320   5.856   6.026   4.474  0.5640  0.2905 -0.6284
 8969TIP3   OH248321   6.613   6.356  12.559 -0.0821 -0.2100  0.2724
 8969TIP3    H148322   6.562   6.435  12.541  1.2538  0.1107 -2.7340
 8969TIP3    H248323   6.699   6.390  12.584 -0.2681 -0.7588  1.7496
 8970TIP3   OH248324   3.883   6.468   1.782 -0.4467  0.3531  0.6447
 8970TIP3    H148325   3.958   6.422   1.745 -0.8366 -0.1642  0.4858
 8970TIP3    H248326   3.914   6.557   1.797  0.9094 -0.3955  2.7133
 8971TIP3   OH248327   6.028   6.266  12.257  0.0492 -0.3202 -0.0168
 8971TIP3    H148328   6.060   6.341  12.206  0.2813  0.1928  0.8656
 8971TIP3    H248329   6.076   6.271  12.340 -2.3142  0.5504  1.4072
 8972TIP3   OH248330   1.666   4.433   5.689 -0.2825  0.3599 -0.1120
 8972TIP3    H148331   1.702   4.519   5.710 -0.6187  0.2811  0.8455
 8972TIP3    H248332   1.590   4.450   5.634  0.2869  0.6086 -0.8369
 8973TIP3   OH248333   0.463   4.164   0.160 -0.1202  0.1896 -0.2023
 8973TIP3    H148334   0.491   4.118   0.081  1.4006 -1.1144  1.0274
 8973TIP3    H248335   0.544   4.201   0.196 -0.8965  1.4072  0.3621
 8974TIP3   OH248336   2.679   5.345   5.631  0.1846 -0.2096 -0.0118
 8974TIP3    H148337   2.690   5.250   5.628 -0.4728 -0.2587 -1.9310
 8974TIP3    H248338   2.586   5.358   5.651  0.6193  0.0855  2.0543
 8975TIP3   OH248339   4.854   2.679  12.141 -0.0290 -0.1946 -0.4161
 8975TIP3    H148340   4.867   2.734  12.064  0.7779  0.3481  0.0956
 8975TIP3    H248341   4.900   2.597  12.119  0.6085  0.1339 -0.3272
 8976TIP3   OH248342   0.309   0.166  16.513 -0.5791 -0.8034  0.4667
 8976TIP3    H148343   0.321   0.079  16.474  1.2391 -1.1917  1.7637
 8976TIP3    H248344   0.389   0.181  16.563 -1.0737  1.4246  0.6868
 8977TIP3   OH248345   1.226   1.571   3.526  0.2838 -0.5467  0.2974
 8977TIP3    H148346   1.236   1.653   3.478 -2.1364 -0.7335 -0.6983
 8977TIP3    H248347   1.203   1.597   3.615 -3.1526  0.0601 -0.6096
 8978TIP3   OH248348   0.749   2.921   5.888  0.2160  0.1551 -0.2129
 8978TIP3    H148349   0.726   2.868   5.964 -0.2335 -0.6428 -0.8928
 8978TIP3    H248350   0.831   2.884   5.857 -1.4113 -2.0527 -2.3282
 8979TIP3   OH248351   3.019   2.175   0.472 -0.1900 -0.4968  0.6881
 8979TIP3    H148352   2.924   2.173   0.463 -0.2057 -0.6578  0.8690
 8979TIP3    H248353   3.035   2.210   0.560 -0.1573 -2.6766  1.6322
 8980TIP3   OH248354   2.005   0.633   2.277  0.3197 -0.3867 -0.0312
 8980TIP3    H148355   2.000   0.637   2.181 -0.7604 -0.8108 -0.0050
 8980TIP3    H248356   1.915   0.616   2.305  0.8852 -1.9405  0.9728
 8981TIP3   OH248357   5.258   3.952   0.873 -0.0081  0.1390  0.2531
 8981TIP3    H148358   5.270   3.904   0.791 -0.8788  0.7161 -0.2412
 8981TIP3    H248359   5.335   3.931   0.925  0.2438 -0.7646 -0.4511
 8982TIP3   OH248360   0.253   1.332   0.519 -0.2807  0.1036  0.3370
 8982TIP3    H148361   0.301   1.338   0.601 -0.3672  1.0342  0.3341
 8982TIP3    H248362   0.306   1.274   0.464  1.5272  2.0523 -0.1118
 8983TIP3   OH248363   0.495   1.336   0.668  0.5976  0.4837  0.3142
 8983TIP3    H148364   0.494   1.254   0.717  0.6686  0.9476  1.1226
 8983TIP3    H248365   0.545   1.317   0.589 -0.8323 -0.7038 -0.3464
 8984TIP3   OH248366   2.865   2.831   2.286  0.5022 -0.3425 -0.1069
 8984TIP3    H148367   2.858   2.789   2.372 -1.4862 -0.0957 -0.1132
 8984TIP3    H248368   2.798   2.789   2.233 -0.4024  1.6432 -0.6119
 8985TIP3   OH248369   4.594   0.284  17.159  0.6053  0.1255 -0.1118
 8985TIP3    H148370   4.617   0.210  17.215  0.1206 -0.1863 -0.3185
 8985TIP3    H248371   4.667   0.290  17.097  0.4013 -0.5117 -0.4212
 8986TIP3   OH248372   3.320   4.295  11.941 -0.3465  0.0740 -0.2285
 8986TIP3    H148373   3.390   4.260  11.995 -1.5247 -0.4535  0.9971
 8986TIP3    H248374   3.365   4.346  11.874  1.1644  0.9227  1.3615
 8987TIP3   OH248375   1.826   5.481  14.580 -0.0076  0.3209 -0.1295
 8987TIP3    H148376   1.773   5.452  14.654 -0.9670 -2.0584 -1.6052
 8987TIP3    H248377   1.904   5.520  14.619  0.1120 -1.9602  2.1806
 8988TIP3   OH248378   1.459   6.179  11.425 -0.4619 -0.1891  0.0893
 8988TIP3    H148379   1.506   6.103  11.459 -0.1287 -0.3871 -0.7872
 8988TIP3    H248380   1.522   6.223  11.369 -0.9466  0.2211 -0.1429
 8989TIP3   OH248381   4.944   3.826  12.676  0.1621 -0.3938  0.4665
 8989TIP3    H148382   4.951   3.919  12.656 -0.4964 -0.2589  0.8364
 8989TIP3    H248383   5.032   3.801  12.704  0.6985 -0.2129 -0.9383
 8990TIP3   OH248384   1.721   0.370  12.420 -0.2132 -0.1093  0.0471
 8990TIP3    H148385   1.659   0.387  12.349 -0.3082  0.1263  0.1851
 8990TIP3    H248386   1.672   0.391  12.500 -0.3043 -0.9539  0.2182
 8991TIP3   OH248387   3.932   1.379   5.568  0.0118  0.3831 -0.4606
 8991TIP3    H148388   3.880   1.437   5.624 -0.0667  0.7844 -0.9466
 8991TIP3    H248389   4.015   1.369   5.613  0.1746  1.1973 -0.5702
 8992TIP3   OH248390   1.120   0.440  16.548 -0.0049 -0.8173  0.6071
 8992TIP3    H148391   1.076   0.366  16.506  2.6841 -1.5640 -1.1312
 8992TIP3    H248392   1.196   0.458  16.492 -0.1615  2.8700  1.3362
 8993TIP3   OH248393   0.163   6.376   0.574 -0.4509  0.3624 -0.3647
 8993TIP3    H148394   0.191   6.395   0.664 -1.1048  3.8569 -0.7406
 8993TIP3    H248395   0.243   6.349   0.529  0.3436  0.7451  0.7638
 8994TIP3   OH248396   0.519   3.434   0.202  0.1830  0.4029 -0.3623
 8994TIP3    H148397   0.554   3.523   0.195  2.0743 -0.1535  1.2163
 8994TIP3    H248398   0.508   3.420   0.296 -4.5241  0.4909 -0.6466
 8995TIP3   OH248399   2.309   4.290   0.790  0.0202 -0.3151 -0.9214
 8995TIP3    H148400   2.290   4.300   0.697 -0.7446  0.4108 -0.7074
 8995TIP3    H248401   2.277   4.372   0.830  0.9977 -0.2983 -0.1182
 8996TIP3   OH248402   0.862   6.169   4.950 -0.3577 -0.2200 -0.0897
 8996TIP3    H148403   0.925   6.176   5.021 -1.1197 -1.6106  0.7704
 8996TIP3    H248404   0.903   6.111   4.887 -0.3869 -0.3526  0.0140
 8997TIP3   OH248405   4.359   4.079   5.703  0.0948 -0.0537 -0.3859
 8997TIP3    H148406   4.450   4.068   5.677 -0.0914 -1.9441 -0.3923
 8997TIP3    H248407   4.347   4.174   5.712  1.4093  0.3828 -2.6377
 8998TIP3   OH248408   5.073   4.785  14.178  0.4681 -0.4175  0.1767
 8998TIP3    H148409   5.116   4.705  14.211 -2.0720 -1.6329  0.7656
 8998TIP3    H248410   4.986   4.756  14.152 -1.0909  2.4303  1.8326
 8999TIP3   OH248411   1.763   5.358  10.630 -0.6325 -0.2820 -0.2800
 8999TIP3    H148412   1.724   5.385  10.713 -0.2062  0.3346 -0.2782
 8999TIP3    H248413   1.716   5.277  10.607 -2.0245  0.5217 -0.3669
 9000TIP3   OH248414   0.620   5.596  13.859  0.4390 -0.1245 -0.1698
 9000TIP3    H148415   0.621   5.500  13.857 -1.9472 -0.2273  0.4544
 9000TIP3    H248416   0.616   5.617  13.952 -0.9452  0.4858 -0.3500
 9001TIP3   OH248417   0.215   0.556   4.539  0.1897 -0.8041 -0.0511
 9001TIP3    H148418   0.134   0.547   4.488 -0.5826  0.2470  0.9657
 9001TIP3    H248419   0.187   0.571   4.629  1.5033  0.0764  0.2515
 9002TIP3   OH248420   3.324   2.540  17.072  0.0462  0.1246  0.4032
 9002TIP3    H148421   3.376   2.528  17.151 -0.5180 -0.1772  0.7339
 9002TIP3    H248422   3.308   2.635  17.068 -1.7957 -0.0753  1.8854
 9003TIP3   OH248423   0.392   5.043   4.425  0.2280 -0.9892  0.6072
 9003TIP3    H148424   0.456   5.107   4.395 -2.8112  1.4057 -1.2308
 9003TIP3    H248425   0.374   5.067   4.516 -0.9026  0.8927 -0.0731
 9004TIP3   OH248426   0.975   1.227  13.674 -0.5742  1.0380 -0.3495
 9004TIP3    H148427   0.967   1.319  13.701  0.7823  1.3337 -0.9083
 9004TIP3    H248428   0.947   1.177  13.751 -0.6386  1.9058  0.2048
 9005TIP3   OH248429   0.514   3.419  16.485 -0.1617 -0.1509  0.0275
 9005TIP3    H148430   0.482   3.398  16.572  0.6146  1.7067  0.8111
 9005TIP3    H248431   0.451   3.481  16.449  0.7431  0.9423  0.2563
 9006TIP3   OH248432   3.267   6.634  13.945  0.3572 -0.6516  0.0725
 9006TIP3    H148433   3.275   6.703  14.010  2.0568 -1.1322  0.4264
 9006TIP3    H248434   3.317   6.561  13.981 -0.7603 -1.8249 -0.6358
 9007TIP3   OH248435   1.205   1.619   2.881  0.2817 -0.2343 -0.1939
 9007TIP3    H148436   1.142   1.547   2.871 -0.4871  0.6372 -1.9642
 9007TIP3    H248437   1.278   1.595   2.823 -0.1482  0.5736 -1.0879
 9008TIP3   OH248438   3.749   3.043  14.000  0.6093  0.4551  0.1023
 9008TIP3    H148439   3.657   3.043  14.027  0.1126  0.4576 -1.4980
 9008TIP3    H248440   3.761   2.959  13.957  1.9226 -0.3923  1.9827
 9009TIP3   OH248441   4.879   2.093  17.308  0.3033  0.6539  0.2684
 9009TIP3    H148442   4.903   2.148  17.234  1.3028  2.5787  1.9346
 9009TIP3    H248443   4.962   2.076  17.353 -0.2427 -0.7476  0.8103
 9010TIP3   OH248444   1.016   2.660  12.117  0.3694  0.6729 -0.1931
 9010TIP3    H148445   0.974   2.612  12.045 -0.5761  1.4126 -0.1493
 9010TIP3    H248446   0.984   2.616  12.196  3.4821 -1.9049 -0.1587
 9011TIP3   OH248447   1.249   1.795   2.621 -0.2921  0.4065  0.2776
 9011TIP3    H148448   1.204   1.814   2.538 -1.2466 -1.4840  0.3046
 9011TIP3    H248449   1.179   1.797   2.687 -0.2205 -1.7039  0.4617
 9012TIP3   OH248450   1.872   4.449   5.036  0.4165  0.0391 -0.3560
 9012TIP3    H148451   1.958   4.455   4.995  0.2084  0.6440 -0.7207
 9012TIP3    H248452   1.890   4.451   5.130  0.7706  0.7234 -0.4352
 9013TIP3   OH248453   6.522   6.135   5.000  0.2785 -0.3997 -0.0617
 9013TIP3    H148454   6.611   6.122   4.969  0.4064 -0.9631  0.5247
 9013TIP3    H248455   6.530   6.197   5.072  0.3363 -1.2151  0.6558
 9014TIP3   OH248456   4.578   3.989  12.024 -0.3139 -0.2886 -0.4400
 9014TIP3    H148457   4.511   3.925  12.000 -1.2246  0.7099 -0.6143
 9014TIP3    H248458   4.657   3.936  12.041 -0.8188 -1.3725 -1.3747
 9015TIP3   OH248459   1.337   6.493  13.139 -0.2461  0.1584  0.1788
 9015TIP3    H148460   1.419   6.529  13.105  0.2024 -0.5345  0.5098
 9015TIP3    H248461   1.296   6.452  13.064 -0.3209  0.5602 -0.0029
 9016TIP3   OH248462   4.673   0.499   0.618 -0.3061 -0.7036 -0.2299
 9016TIP3    H148463   4.603   0.552   0.656  0.0955 -0.7356  0.5672
 9016TIP3    H248464   4.711   0.452   0.692 -0.6720 -2.1458 -0.9191
 9017TIP3   OH248465   4.849   4.065  15.836  0.6949 -0.2807 -0.0573
 9017TIP3    H148466   4.819   4.097  15.750  0.8916 -1.7294 -0.6933
 9017TIP3    H248467   4.943   4.082  15.836  0.3160  2.2865  1.0626
 9018TIP3   OH248468   6.277   6.526   0.279 -0.7611 -0.3877  0.3970
 9018TIP3    H148469   6.267   6.456   0.215  0.5778 -0.8449  0.6576
 9018TIP3    H248470   6.316   6.599   0.230  1.6907 -1.2486  0.9434
 9019TIP3   OH248471   6.189   6.584  14.472  0.3333 -0.2573  0.1685
 9019TIP3    H148472   6.210   6.629  14.553  0.4997 -1.1849  0.6551
 9019TIP3    H248473   6.218   6.644  14.403 -1.6655  1.4707  0.7107
 9020TIP3   OH248474   3.414   4.177  13.464  0.5033  0.7426 -0.1988
 9020TIP3    H148475   3.445   4.092  13.433 -0.4213  0.8529 -1.5134
 9020TIP3    H248476   3.384   4.222  13.385 -0.7475  1.5664  0.6958
 9021TIP3   OH248477   3.099   5.981   6.712  0.1921  0.0279 -0.2647
 9021TIP3    H148478   3.153   6.026   6.777 -0.3732  0.1693  0.1155
 9021TIP3    H248479   3.023   6.039   6.700 -0.4037 -0.6815  0.0188
 9022TIP3   OH248480   5.265   1.557  13.639  0.3072  0.2106 -0.0897
 9022TIP3    H148481   5.250   1.466  13.613  0.0607 -0.1576  1.2600
 9022TIP3    H248482   5.360   1.563  13.652  0.3311  0.1748 -0.2430
 9023TIP3   OH248483   0.046   4.888   0.772 -0.1492 -0.1388  0.3117
 9023TIP3    H148484  -0.045   4.869   0.751 -0.1900 -0.0996  0.4491
 9023TIP3    H248485   0.093   4.876   0.690  0.2812 -3.7177  0.8978
 9024TIP3   OH248486   4.552   0.602   1.974  0.1203 -0.2060  0.4284
 9024TIP3    H148487   4.597   0.629   2.054  0.4160 -0.9394  0.5123
 9024TIP3    H248488   4.478   0.663   1.967  1.0730  0.9774  0.3198
 9025TIP3   OH248489   2.614   1.399  14.828 -0.0759  0.2773  0.9440
 9025TIP3    H148490   2.644   1.380  14.739  0.6806  1.5385  0.9007
 9025TIP3    H248491   2.689   1.377  14.884 -0.5737 -0.5823  1.2903
 9026TIP3   OH248492   5.151   3.576  13.790  0.3381  0.0456 -0.3461
 9026TIP3    H148493   5.209   3.501  13.779  4.8025  2.7658  2.0893
 9026TIP3    H248494   5.193   3.647  13.742 -1.1171  2.1777  1.3444
 9027TIP3   OH248495   6.034   3.514   1.817 -0.1991  0.4238 -0.0708
 9027TIP3    H148496   5.983   3.591   1.792 -0.0981  0.6684  0.4481
 9027TIP3    H248497   6.012   3.448   1.752  1.3415  1.5341 -1.8146
 9028TIP3   OH248498   1.929   2.024   1.226  0.5980  0.5796  0.4074
 9028TIP3    H148499   1.905   2.109   1.190  0.0884 -1.0453 -3.6710
 9028TIP3    H248500   2.006   1.997   1.175  1.3813 -1.0101  2.2840
 9029TIP3   OH248501   1.540   2.337   0.583  0.1664 -0.5027  0.2456
 9029TIP3    H148502   1.611   2.281   0.551  0.8698  0.0535  0.7914
 9029TIP3    H248503   1.545   2.415   0.528  1.3121  0.4132  1.5783
 9030TIP3   OH248504   4.888   2.865  16.111 -0.0295 -0.3075 -0.5833
 9030TIP3    H148505   4.921   2.893  16.196 -0.6649  0.3209 -0.5382
 9030TIP3    H248506   4.843   2.782  16.129 -1.0043  0.3116 -0.1331
 9031TIP3   OH248507   4.582   5.334   6.789  0.3268  0.1762  0.0115
 9031TIP3    H148508   4.669   5.338   6.828  0.4712  0.8556 -0.3797
 9031TIP3    H248509   4.597   5.323   6.696 -0.0224 -1.9345  0.1348
 9032TIP3   OH248510   0.055   3.570  14.982  0.1556 -0.1363  0.0815
 9032TIP3    H148511   0.071   3.611  15.067  0.5450  0.1259 -0.1109
 9032TIP3    H248512   0.142   3.545  14.951 -0.0566 -0.9135  0.0941
 9033TIP3   OH248513   2.598   2.520   5.979 -0.4414  0.9275 -0.0611
 9033TIP3    H148514   2.548   2.585   6.030 -2.7715 -0.4351 -0.4637
 9033TIP3    H248515   2.601   2.556   5.891 -2.4310  0.1936 -0.4707
 9034TIP3   OH248516   3.140   4.225   3.229 -0.1413  0.0987  0.2790
 9034TIP3    H148517   3.153   4.265   3.315 -0.5544 -3.0120  1.9228
 9034TIP3    H248518   3.045   4.212   3.223  0.0528 -1.4607  0.2594
 9035TIP3   OH248519   2.169   6.608   2.923 -0.0930  0.4306 -0.3497
 9035TIP3    H148520   2.195   6.554   2.997  1.9153  0.4167 -1.0137
 9035TIP3    H248521   2.075   6.620   2.935  0.0730  0.0107  1.9097
 9036TIP3   OH248522   3.094   4.894   4.232  0.2428 -0.3770 -0.6255
 9036TIP3    H148523   3.126   4.858   4.149 -2.2614  0.7279 -2.2117
 9036TIP3    H248524   3.172   4.931   4.274  1.5566 -0.6499 -2.6666
 9037TIP3   OH248525   0.407   6.557  15.876  0.4910  0.3480 -0.1237
 9037TIP3    H148526   0.330   6.554  15.934  0.3079 -2.6668 -0.3466
 9037TIP3    H248527   0.387   6.627  15.814 -1.2670  0.8284  0.8917
 9038TIP3   OH248528   4.555   5.013   0.829 -0.2002 -0.2332  0.7770
 9038TIP3    H148529   4.478   4.961   0.852 -1.1420  1.2483  1.1262
 9038TIP3    H248530   4.582   5.052   0.912  0.4596 -0.1173  0.5101
 9039TIP3   OH248531   1.040   2.758  14.168  0.0577 -0.3314  0.3225
 9039TIP3    H148532   1.031   2.703  14.090 -0.2755 -0.8700  0.7407
 9039TIP3    H248533   1.098   2.709  14.225  1.1588  0.5413 -0.0073
 9040TIP3   OH248534   6.259   5.915  12.494  0.7468 -0.2065  0.3944
 9040TIP3    H148535   6.333   5.905  12.555  1.3032 -2.9677 -0.5894
 9040TIP3    H248536   6.186   5.873  12.539  0.7411 -0.7778 -0.1371
 9041TIP3   OH248537   1.390   4.222   6.414 -0.5715  0.1807  0.3268
 9041TIP3    H148538   1.413   4.221   6.507  1.1339 -1.1659 -0.0558
 9041TIP3    H248539   1.438   4.296   6.377 -0.0472 -0.1795  0.2711
 9042TIP3   OH248540   4.658   1.199  15.705 -0.0254 -0.1414 -0.1839
 9042TIP3    H148541   4.732   1.146  15.675  1.1519  0.8335  0.8779
 9042TIP3    H248542   4.624   1.240  15.626  0.6478 -0.5226 -0.6817
 9043TIP3   OH248543   3.897   4.193   0.685  0.3342 -0.4902 -0.1014
 9043TIP3    H148544   3.942   4.189   0.770 -2.3166 -2.1219  1.3826
 9043TIP3    H248545   3.921   4.111   0.642 -1.6220 -1.7321  1.0220
 9044TIP3   OH248546   3.262   1.707   5.404 -0.9926 -0.1857  0.2995
 9044TIP3    H148547   3.305   1.786   5.370  0.8471 -1.2285  0.0811
 9044TIP3    H248548   3.238   1.658   5.325 -3.0325  0.5442  0.4003
 9045TIP3   OH248549   2.914   3.671  16.103 -0.0425 -0.6666  0.3450
 9045TIP3    H148550   2.853   3.745  16.110 -0.9569 -1.3945  0.2752
 9045TIP3    H248551   2.910   3.644  16.012  0.2103 -0.8614  0.3889
 9046TIP3   OH248552   6.038   3.157   5.215  0.2595 -0.1860 -0.4372
 9046TIP3    H148553   5.951   3.196   5.210 -0.6866 -1.4824  2.9698
 9046TIP3    H248554   6.027   3.069   5.180  0.8247  0.3555 -2.0808
 9047TIP3   OH248555   0.668   0.734  17.104  0.3588 -0.2670 -0.0675
 9047TIP3    H148556   0.726   0.782  17.163  2.3701  0.0551 -2.1575
 9047TIP3    H248557   0.582   0.741  17.143  1.2267  1.8172  1.6398
 9048TIP3   OH248558   3.670   4.909  11.421 -0.2261  0.5454  0.3325
 9048TIP3    H148559   3.636   4.861  11.345 -1.2078  0.3931  0.8439
 9048TIP3    H248560   3.721   4.981  11.383 -1.0361  0.7139 -0.4881
 9049TIP3   OH248561   1.127   1.087  14.993  0.2608  0.0299  0.0743
 9049TIP3    H148562   1.171   1.050  15.070  0.3982  1.2831  0.6147
 9049TIP3    H248563   1.186   1.154  14.960  0.6693 -1.1554 -1.7616
 9050TIP3   OH248564   1.187   0.864  12.300  0.1425 -0.0963 -0.0799
 9050TIP3    H148565   1.216   0.865  12.391 -2.9987 -0.9206  1.0660
 9050TIP3    H248566   1.152   0.952  12.285 -0.3031 -0.2752 -0.1168
 9051TIP3   OH248567   1.204   2.253  13.302  0.2278 -0.2567  0.3909
 9051TIP3    H148568   1.251   2.195  13.363 -0.6532 -0.8568  0.5254
 9051TIP3    H248569   1.111   2.235  13.320 -0.0501  0.7984  0.0359
 9052TIP3   OH248570   3.674   2.387   2.447  0.0563  0.7815  0.4766
 9052TIP3    H148571   3.665   2.336   2.366 -2.2112 -0.4774  1.4263
 9052TIP3    H248572   3.659   2.478   2.420  1.9697  0.7443 -0.8963
 9053TIP3   OH248573   2.551   3.872  15.427 -0.5183  0.2087 -0.8623
 9053TIP3    H148574   2.548   3.820  15.508  1.0328  0.9540 -0.2859
 9053TIP3    H248575   2.553   3.963  15.456  0.2513  0.4852 -1.7340
 9054TIP3   OH248576   4.438   5.538   0.080 -0.4158 -0.1924  0.1764
 9054TIP3    H148577   4.447   5.594   0.157 -0.4127  0.6645 -0.4313
 9054TIP3    H248578   4.497   5.465   0.096 -1.1252 -0.5272  1.4130
 9055TIP3   OH248579   1.814   3.054   4.550 -0.2218  0.1388  0.6471
 9055TIP3    H148580   1.892   3.006   4.577  2.4928  2.3843 -2.5086
 9055TIP3    H248581   1.775   3.000   4.481  0.4757  0.5156 -0.0548
 9056TIP3   OH248582   5.308   5.913   4.866 -0.5050 -0.0054  0.0305
 9056TIP3    H148583   5.326   5.946   4.954  0.4691  1.2088 -0.5909
 9056TIP3    H248584   5.324   5.988   4.809  0.2489 -1.1376 -1.3096
 9057TIP3   OH248585   2.827   0.013   1.421  0.2510  0.0693 -0.4647
 9057TIP3    H148586   2.858   0.047   1.337  1.9950 -1.2537 -0.4079
 9057TIP3    H248587   2.902   0.021   1.480  0.9246 -3.9243 -0.5084
 9058TIP3   OH248588   6.681   3.501  12.080  0.1755  0.4537 -0.0320
 9058TIP3    H148589   6.683   3.594  12.100 -2.9116  0.9373 -1.3141
 9058TIP3    H248590   6.633   3.462  12.153  1.2433 -0.1186  0.3772
 9059TIP3   OH248591   1.370   3.050  14.550  0.3670  0.7209 -0.0349
 9059TIP3    H148592   1.305   2.986  14.521 -1.0775  2.0567  0.1236
 9059TIP3    H248593   1.412   3.079  14.469  1.7074 -1.0330 -0.0419
 9060TIP3   OH248594   4.410   1.999   3.390  0.3490  0.0307 -0.3982
 9060TIP3    H148595   4.426   2.016   3.483  0.7745 -0.0320 -0.4623
 9060TIP3    H248596   4.338   2.059   3.368 -1.0443 -1.2479  0.4254
 9061TIP3   OH248597   2.240   5.647  14.886 -0.5856 -0.0054  0.1504
 9061TIP3    H148598   2.261   5.556  14.905 -1.4597 -0.3274 -0.3546
 9061TIP3    H248599   2.211   5.683  14.970 -0.2318 -0.1830  0.3526
 9062TIP3   OH248600   1.684   1.490   1.008  0.4702  0.1017  0.2318
 9062TIP3    H148601   1.689   1.472   0.915 -1.5893  0.7138 -0.0238
 9062TIP3    H248602   1.679   1.586   1.015  1.2544  0.1096  1.0292
 9063TIP3   OH248603   0.938   1.468  14.192  0.9858 -0.4652 -0.1814
 9063TIP3    H148604   0.911   1.469  14.284  2.9586  0.8996  0.4437
 9063TIP3    H248605   0.933   1.559  14.164  1.8131 -0.6490 -0.9678
 9064TIP3   OH248606   0.585   4.297   2.523  0.7314 -0.9094  0.2589
 9064TIP3    H148607   0.546   4.340   2.446 -1.9853 -1.4532  1.2217
 9064TIP3    H248608   0.679   4.313   2.513  0.5408 -1.0057 -3.1837
 9065TIP3   OH248609   4.642   3.404  16.817  0.4814 -0.4295 -0.5986
 9065TIP3    H148610   4.571   3.469  16.812  1.3387  0.5193 -0.7287
 9065TIP3    H248611   4.597   3.321  16.830 -0.5906  0.3408  0.8325
 9066TIP3   OH248612   1.761   1.196   2.437 -0.4966 -0.4877 -0.1685
 9066TIP3    H148613   1.687   1.240   2.395 -0.2620 -1.2210 -1.4135
 9066TIP3    H248614   1.724   1.116   2.473 -0.1327 -1.4970 -1.9107
 9067TIP3   OH248615   0.929   2.833   1.586 -0.2297 -0.0965 -0.0536
 9067TIP3    H148616   0.869   2.869   1.521  1.4647 -1.8408 -2.7401
 9067TIP3    H248617   0.987   2.906   1.608 -0.4299  0.3554 -0.9937
 9068TIP3   OH248618   2.423   2.359   1.130  0.4662  0.5629 -0.6109
 9068TIP3    H148619   2.395   2.293   1.193  1.5347 -1.0665 -1.7832
 9068TIP3    H248620   2.378   2.439   1.159 -3.2788 -1.2384 -0.8290
 9069TIP3   OH248621   2.618   3.008   0.191  0.6447  0.4379  0.1242
 9069TIP3    H148622   2.631   2.956   0.111 -0.6307  0.3802 -0.0677
 9069TIP3    H248623   2.633   3.098   0.163 -0.7351  0.5199 -0.4438
 9070TIP3   OH248624   3.545   3.427   2.979  0.0103  0.0607 -0.1055
 9070TIP3    H148625   3.530   3.337   3.006  2.0341 -0.5451 -0.8497
 9070TIP3    H248626   3.482   3.442   2.909 -0.8440 -0.5143  0.5212
 9071TIP3   OH248627   6.566   5.123  15.196 -0.7728 -0.6373 -0.5479
 9071TIP3    H148628   6.527   5.155  15.114 -1.0027  0.6081  0.0292
 9071TIP3    H248629   6.535   5.184  15.263  0.8923 -0.5413  0.1889
 9072TIP3   OH248630   3.897   2.291   1.195  0.2283 -0.1827  0.0092
 9072TIP3    H148631   3.859   2.358   1.251 -0.9551  0.3783 -1.3994
 9072TIP3    H248632   3.934   2.339   1.121 -0.6708 -1.0451 -1.0368
 9073TIP3   OH248633   4.036   3.021   3.128 -0.1543 -0.4808  0.1604
 9073TIP3    H148634   4.033   3.035   3.222 -0.4766  0.0668  0.0721
 9073TIP3    H248635   4.125   2.989   3.111  0.9390  2.2632  0.2805
 9074TIP3   OH248636   1.349   5.257  11.572  0.1952  0.0706 -0.4317
 9074TIP3    H148637   1.442   5.236  11.569  0.0148 -1.0936  1.2888
 9074TIP3    H248638   1.321   5.254  11.480  1.7421  0.0038 -0.9259
 9075TIP3   OH248639   3.091   2.107   4.937 -0.1271  0.5411  0.1059
 9075TIP3    H148640   3.094   2.147   4.851  3.4081  1.7754  0.6607
 9075TIP3    H248641   3.109   2.178   4.998 -0.3839 -0.6957  1.7016
 9076TIP3   OH248642   4.874   3.915   1.145  0.4380 -0.1012 -0.5602
 9076TIP3    H148643   4.962   3.880   1.147 -0.3551 -2.1957 -0.2401
 9076TIP3    H248644   4.877   3.984   1.078  2.1945 -0.3579 -0.7898
 9077TIP3   OH248645   4.495   3.599   2.383  0.0483  0.2945  0.2426
 9077TIP3    H148646   4.466   3.538   2.451  1.5721  1.2556  1.8441
 9077TIP3    H248647   4.539   3.669   2.431  1.5734  0.8132 -1.7621
 9078TIP3   OH248648   6.220   5.928   4.779  0.2196 -0.3216  0.0107
 9078TIP3    H148649   6.150   5.991   4.763 -0.7239 -1.0840  0.9779
 9078TIP3    H248650   6.301   5.975   4.756 -0.5269  0.9020 -0.1976
 9079TIP3   OH248651   6.540   1.169   5.073 -0.4337 -0.2703 -0.1365
 9079TIP3    H148652   6.527   1.222   4.994 -0.4355  0.8517  0.5923
 9079TIP3    H248653   6.630   1.138   5.066 -0.6091 -0.6479 -0.8424
 9080TIP3   OH248654   6.017   1.280  15.959 -1.0083  0.1257  0.3024
 9080TIP3    H148655   5.935   1.260  15.913 -1.3103 -1.9960  1.6652
 9080TIP3    H248656   5.989   1.333  16.034 -1.3661 -1.7046  1.5142
 9081TIP3   OH248657   3.092   3.116  14.606  0.3486  0.3685  0.2756
 9081TIP3    H148658   3.093   3.023  14.630 -2.1894  0.1756 -0.1043
 9081TIP3    H248659   3.077   3.116  14.512  0.9911  1.1819  0.1658
 9082TIP3   OH248660   3.131   0.017   4.290  0.0798 -0.1093 -0.0010
 9082TIP3    H148661   3.108   0.085   4.353  0.8302  0.9669 -0.8673
 9082TIP3    H248662   3.071  -0.055   4.310 -1.3696  1.1479  0.3190
 9083TIP3   OH248663   5.263   1.776  16.750  0.3401 -0.2486 -0.0269
 9083TIP3    H148664   5.228   1.690  16.771  2.1821 -1.1969 -0.6205
 9083TIP3    H248665   5.283   1.816  16.835 -1.4038  0.0359  0.2911
 9084TIP3   OH248666   5.483   4.529   6.418  0.0717 -0.2079  0.1069
 9084TIP3    H148667   5.561   4.582   6.399 -0.0320  0.2978  1.0601
 9084TIP3    H248668   5.455   4.497   6.332  2.4388 -1.9896 -0.1394
 9085TIP3   OH248669   0.985   5.311  14.496 -0.2324 -0.0976  0.3295
 9085TIP3    H148670   1.021   5.355  14.418 -2.3228 -0.3394 -0.8613
 9085TIP3    H248671   1.062   5.289  14.549  1.2004  0.9510 -1.1979
 9086TIP3   OH248672   1.143   6.331  13.689  0.2771 -0.4647 -0.6589
 9086TIP3    H148673   1.079   6.352  13.758 -1.1381 -0.4131 -1.9312
 9086TIP3    H248674   1.221   6.379  13.714 -0.5705  0.4729  0.3097
 9087TIP3   OH248675   5.953   0.904   2.496 -0.2907  0.2017  0.5704
 9087TIP3    H148676   5.900   0.948   2.430  0.9535  0.8216 -0.0414
 9087TIP3    H248677   5.935   0.811   2.483 -2.9710  0.4309  1.8898
 9088TIP3   OH248678   2.199   1.650   0.348 -0.0836  0.0420 -0.2292
 9088TIP3    H148679   2.143   1.575   0.367  1.9244 -1.6136 -0.4464
 9088TIP3    H248680   2.201   1.655   0.253  0.1712  0.0500 -0.2246
 9089TIP3   OH248681   3.307   5.007   4.321 -0.6517  0.3265  0.5993
 9089TIP3    H148682   3.345   4.981   4.405 -1.1908  1.0839  1.0945
 9089TIP3    H248683   3.375   4.986   4.256 -0.4761 -0.8485  1.1391
 9090TIP3   OH248684   3.912   6.464   6.172  0.1233  0.5056 -0.3360
 9090TIP3    H148685   3.885   6.540   6.224  1.7257  0.8796  0.0057
 9090TIP3    H248686   3.843   6.453   6.107 -1.5449  0.5126  1.3488
 9091TIP3   OH248687   2.064   6.114  14.160 -0.0554  0.5528 -0.2435
 9091TIP3    H148688   2.090   6.166  14.236  1.3100 -1.8788  1.0883
 9091TIP3    H248689   1.970   6.127  14.152  0.0740  2.3130  0.6940
 9092TIP3   OH248690   2.046   0.437   5.200 -0.1224 -0.2225  0.2297
 9092TIP3    H148691   2.076   0.501   5.136 -1.1121 -1.5417 -1.6462
 9092TIP3    H248692   1.994   0.488   5.262 -0.4499  0.8669 -0.9038
 9093TIP3   OH248693   1.451   5.060  10.407 -0.6283 -0.4865 -0.2666
 9093TIP3    H148694   1.393   5.046  10.481 -0.5884  1.5963  0.2223
 9093TIP3    H248695   1.519   5.119  10.440 -2.0309  2.6970 -2.5178
 9094TIP3   OH248696   6.567   0.690  16.250  0.1626  0.0232 -0.2297
 9094TIP3    H148697   6.531   0.621  16.193  1.0728  0.1172 -0.9532
 9094TIP3    H248698   6.620   0.642  16.314  1.3878  0.0588 -1.1751
 9095TIP3   OH248699   2.682   5.072  14.206  0.3279  0.0489  0.0924
 9095TIP3    H148700   2.700   5.165  14.221 -0.6797  0.0313  1.6803
 9095TIP3    H248701   2.638   5.070  14.121 -1.7788  1.3794  1.0535
 9096TIP3   OH248702   3.431   1.308   4.249  0.0002 -0.2139  0.0617
 9096TIP3    H148703   3.476   1.324   4.166  0.8714 -0.3007  0.5030
 9096TIP3    H248704   3.385   1.225   4.235  0.8083 -0.6515 -0.0748
 9097TIP3   OH248705   5.485   3.970  15.970  0.3791  0.4608  0.0460
 9097TIP3    H148706   5.563   3.960  16.023  0.8228  0.0148 -0.6633
 9097TIP3    H248707   5.464   3.880  15.942 -0.0544  0.6419 -0.2208
 9098TIP3   OH248708   2.721   1.995  13.286  0.2931  0.0318 -0.2951
 9098TIP3    H148709   2.809   1.959  13.296  0.5241  0.8604  0.8643
 9098TIP3    H248710   2.676   1.932  13.229  1.1790 -1.1931  0.2910
 9099TIP3   OH248711   4.041   1.447   6.084 -0.5834  0.2525  0.3612
 9099TIP3    H148712   4.048   1.357   6.115 -2.6793  0.1060  0.5548
 9099TIP3    H248713   3.954   1.453   6.046 -0.1179  1.9445 -0.5502
 9100TIP3   OH248714   3.120   6.083   2.024  0.3943 -0.5057 -0.3059
 9100TIP3    H148715   3.085   6.101   2.111  0.5804  0.3226 -0.3938
 9100TIP3    H248716   3.215   6.085   2.035  0.4210 -0.8031 -0.4541
 9101TIP3   OH248717   2.983   3.041  16.631 -0.2376  0.1929 -0.2182
 9101TIP3    H148718   2.972   2.950  16.604 -1.4540  0.3029 -0.1411
 9101TIP3    H248719   2.896   3.069  16.659 -0.1135  1.6945 -1.1984
 9102TIP3   OH248720   5.782   3.935  12.645  0.0044 -0.2297  0.0570
 9102TIP3    H148721   5.701   3.943  12.696  0.5493 -0.2733  0.9485
 9102TIP3    H248722   5.788   3.842  12.625 -0.5532 -0.1183 -0.6773
 9103TIP3   OH248723   5.521   1.568   1.291 -0.3566  0.5657 -0.1890
 9103TIP3    H148724   5.539   1.639   1.229  0.0455  1.2134  0.6489
 9103TIP3    H248725   5.593   1.572   1.353 -0.8617  0.0573  0.4419
 9104TIP3   OH248726   6.533   0.123   2.903  0.0265  0.1215 -0.2287
 9104TIP3    H148727   6.447   0.115   2.861 -0.0136  0.4866 -0.2249
 9104TIP3    H248728   6.575   0.038   2.890 -0.1427  0.1010 -0.6602
 9105TIP3   OH248729   0.298   2.631  12.212  0.1841  0.0791  0.1585
 9105TIP3    H148730   0.228   2.603  12.271 -0.7833 -0.3565 -1.1492
 9105TIP3    H248731   0.273   2.595  12.127  0.6842  2.0580 -0.8750
 9106TIP3   OH248732   6.667   2.682   0.118 -0.2159 -0.2428 -0.6346
 9106TIP3    H148733   6.758   2.712   0.123 -0.5326  0.5424  1.0124
 9106TIP3    H248734   6.661   2.639   0.033  1.1779  1.4279 -1.6578
 9107TIP3   OH248735   0.640   5.609  16.247 -0.0429 -0.4540  0.0911
 9107TIP3    H148736   0.547   5.631  16.235  0.9334  2.9332 -2.9245
 9107TIP3    H248737   0.664   5.651  16.329 -0.3507  2.4166 -1.1713
 9108TIP3   OH248738   0.037   0.424   6.066 -0.0110 -0.3832 -0.0497
 9108TIP3    H148739   0.098   0.396   6.135 -0.4839 -4.2338 -0.9615
 9108TIP3    H248740  -0.049   0.395   6.097 -0.8980  1.7069 -0.4083
 9109TIP3   OH248741   0.613   5.567  17.066  0.5073  0.5226  0.1813
 9109TIP3    H148742   0.528   5.535  17.038 -0.6588  0.3813  3.4810
 9109TIP3    H248743   0.670   5.490  17.062 -0.1272  0.0459  0.1465
 9110TIP3   OH248744   3.591   1.453  15.190  0.1599  0.1100  0.5771
 9110TIP3    H148745   3.627   1.500  15.115  1.1020 -0.9337  0.3406
 9110TIP3    H248746   3.662   1.396  15.219 -0.1607  0.5170  2.3045
 9111TIP3   OH248747   3.846   0.927  14.241  0.2865  0.0486  0.4045
 9111TIP3    H148748   3.911   0.873  14.284  0.8888 -0.6710 -1.3007
 9111TIP3    H248749   3.840   0.892  14.152 -2.3832  0.1421  0.4516
 9112TIP3   OH248750   2.920   3.816  16.389 -0.3529 -0.0713  0.4308
 9112TIP3    H148751   2.896   3.785  16.302  0.8572  0.2148 -0.0339
 9112TIP3    H248752   2.860   3.889  16.407  0.1095  0.6068 -0.6687
 9113TIP3   OH248753   4.714   2.100  13.265 -0.1641  0.1165 -0.1993
 9113TIP3    H148754   4.651   2.152  13.314 -0.7563 -0.7391 -0.0222
 9113TIP3    H248755   4.799   2.138  13.285 -0.1803 -1.1519  2.7972
 9114TIP3   OH248756   0.199   1.068  17.025  0.0347 -0.7713  0.1158
 9114TIP3    H148757   0.214   0.974  17.027 -1.8197 -1.1072  0.4159
 9114TIP3    H248758   0.248   1.099  16.948  0.1287 -2.0858 -0.3730
 9115TIP3   OH248759   5.717   5.303   4.372 -0.0625 -0.4310  0.1852
 9115TIP3    H148760   5.767   5.261   4.442  0.6921 -2.5123 -1.4814
 9115TIP3    H248761   5.625   5.284   4.393  0.1361 -0.8330  0.7163
 9116TIP3   OH248762   2.036   4.649  17.021 -0.0953 -0.4966 -0.0124
 9116TIP3    H148763   1.998   4.574  16.976  1.3406 -0.8558 -0.7049
 9116TIP3    H248764   2.003   4.643  17.110  0.0455 -2.0121 -0.0348
 9117TIP3   OH248765   3.283   0.468  14.955  0.1604  0.6592  0.2443
 9117TIP3    H148766   3.258   0.409  15.026 -0.1547  1.8279  1.1359
 9117TIP3    H248767   3.273   0.416  14.875  2.3345 -1.2923  1.1297
 9118TIP3   OH248768   3.349   6.106  15.796 -0.6684  0.4095 -0.0137
 9118TIP3    H148769   3.260   6.084  15.770 -0.4498  1.2811 -1.6640
 9118TIP3    H248770   3.345   6.197  15.825 -0.3367  0.4460 -0.0692
 9119TIP3   OH248771   6.658   4.376  16.587  0.5573  0.0767  0.7112
 9119TIP3    H148772   6.736   4.372  16.532  0.5022  1.7969  0.4640
 9119TIP3    H248773   6.676   4.314  16.658  1.7464 -0.2360  0.1580
 9120TIP3   OH248774   1.432   6.009   2.088 -0.8259  0.0938 -0.4563
 9120TIP3    H148775   1.485   6.017   2.168  1.2742 -1.9128 -1.5281
 9120TIP3    H248776   1.342   6.000   2.120 -0.3338  1.4936  1.5358
 9121TIP3   OH248777   5.479   5.755   5.916  0.4728 -0.1192  0.4065
 9121TIP3    H148778   5.433   5.676   5.943 -1.0052  0.4309 -0.4245
 9121TIP3    H248779   5.481   5.810   5.994  0.4199 -0.4710  0.6554
 9122TIP3   OH248780   4.185   4.132  15.725  0.4983  0.4394 -0.3151
 9122TIP3    H148781   4.217   4.042  15.714 -1.1566 -0.0908 -1.0893
 9122TIP3    H248782   4.253   4.175  15.777  1.9678 -0.8804 -1.0493
 9123TIP3   OH248783   4.909   6.113   3.521  0.3009 -0.1195 -0.1597
 9123TIP3    H148784   4.866   6.033   3.490 -2.8031  0.6000  1.8074
 9123TIP3    H248785   4.985   6.082   3.570  0.2911 -1.7146 -1.0901
 9124TIP3   OH248786   0.143   2.445   4.654  0.2018 -0.2312  0.3405
 9124TIP3    H148787   0.196   2.524   4.643 -0.6644  0.4189  0.7625
 9124TIP3    H248788   0.206   2.378   4.682  0.8663  0.4355  0.4771
 9125TIP3   OH248789   2.434   6.356   3.684  0.0143  0.4539  0.1216
 9125TIP3    H148790   2.490   6.356   3.761 -0.2591 -0.8741  0.3538
 9125TIP3    H248791   2.345   6.362   3.719 -0.0930  0.2481 -0.1092
 9126TIP3   OH248792   5.270   0.570  15.492  0.3773  0.4902 -0.8525
 9126TIP3    H148793   5.359   0.539  15.474  1.1380  1.6731  0.6727
 9126TIP3    H248794   5.266   0.656  15.449  0.8211  1.4896  0.9803
 9127TIP3   OH248795   1.452   6.690   1.379 -0.8768 -0.5088  0.1404
 9127TIP3    H148796   1.526   6.638   1.349 -1.2099  0.3853 -2.5581
 9127TIP3    H248797   1.478   6.781   1.363 -1.9183 -0.0844  0.7374
 9128TIP3   OH248798   2.844   2.169  12.385  0.0661  0.2756 -0.3025
 9128TIP3    H148799   2.853   2.075  12.398  0.9835  0.4534  0.4695
 9128TIP3    H248800   2.822   2.178  12.292  1.7092 -0.6334 -0.8239
 9129TIP3   OH248801   4.958   3.963  13.451 -0.2186  0.1168  0.2672
 9129TIP3    H148802   4.862   3.967  13.448 -0.2452 -0.6944 -0.4119
 9129TIP3    H248803   4.981   3.901  13.381  0.6126 -2.4199  2.6367
 9130TIP3   OH248804   3.505   6.099   5.844 -0.0065 -0.4340 -0.0756
 9130TIP3    H148805   3.591   6.123   5.810 -0.4086 -0.9553 -1.5488
 9130TIP3    H248806   3.522   6.024   5.902  0.3603 -1.8571 -1.9314
 9131TIP3   OH248807   5.649   6.378   0.352  0.3808  0.2631  0.3883
 9131TIP3    H148808   5.672   6.297   0.306  0.0510 -0.1631  0.9695
 9131TIP3    H248809   5.612   6.434   0.283  0.4599 -0.1364  0.0141
 9132TIP3   OH248810   1.079   2.552  15.674  0.5415  0.1593  0.4500
 9132TIP3    H148811   1.128   2.477  15.639  2.0738  1.1900  0.3187
 9132TIP3    H248812   0.989   2.537  15.645  0.7910 -1.6524  0.4665
 9133TIP3   OH248813   5.683   0.459   5.643 -0.2444 -0.1634 -0.0093
 9133TIP3    H148814   5.666   0.521   5.572  2.0094  0.4111 -0.1209
 9133TIP3    H248815   5.610   0.397   5.639 -0.8320  0.5877 -2.0055
 9134TIP3   OH248816   4.108   6.692   0.644 -0.4697  0.7255 -0.0643
 9134TIP3    H148817   4.114   6.699   0.549 -1.5393  0.0637 -0.1955
 9134TIP3    H248818   4.192   6.725   0.676  1.2213 -1.9641 -1.3761
 9135TIP3   OH248819   5.783   3.612  11.462  0.2355  0.2413 -0.6014
 9135TIP3    H148820   5.849   3.555  11.501  0.4179  0.1744 -1.0031
 9135TIP3    H248821   5.821   3.641  11.379 -0.2227  0.2309 -0.8226
 9136TIP3   OH248822   2.332   2.548  15.759  0.0662  0.2034  0.2699
 9136TIP3    H148823   2.373   2.463  15.742 -0.7005 -0.1652  0.2187
 9136TIP3    H248824   2.242   2.527  15.782  0.0273  0.9674  0.8666
 9137TIP3   OH248825   3.075   0.835  15.674  0.2592  0.0311 -0.2827
 9137TIP3    H148826   3.128   0.756  15.664  1.2120  0.3780  1.5545
 9137TIP3    H248827   2.988   0.810  15.645 -0.4866 -2.9599  3.7173
 9138TIP3   OH248828   4.851   0.502   2.788  0.4727 -0.2566  0.2627
 9138TIP3    H148829   4.925   0.550   2.826 -1.6512  0.6205  3.7299
 9138TIP3    H248830   4.800   0.568   2.742  0.1148 -0.1643  0.7851
 9139TIP3   OH248831   6.449   3.397  14.795 -0.2896  0.3406 -0.2138
 9139TIP3    H148832   6.440   3.301  14.794 -0.2054  0.3291 -1.6245
 9139TIP3    H248833   6.536   3.412  14.832 -0.5695 -0.0836  0.6568
 9140TIP3   OH248834   1.007   5.885  16.827  0.4045  0.2153 -0.3017
 9140TIP3    H148835   0.943   5.817  16.850  1.3982 -0.0800  1.8782
 9140TIP3    H248836   1.077   5.838  16.783 -0.0637  0.2674 -1.1237
 9141TIP3   OH248837   5.087   4.920  16.762  0.3840 -0.3613 -0.4324
 9141TIP3    H148838   5.131   5.004  16.748 -0.3088  0.1545  0.3881
 9141TIP3    H248839   4.994   4.940  16.750  0.2607 -1.1752 -0.9435
 9142TIP3   OH248840   4.974   2.794  15.663  0.6653 -0.1184  0.0758
 9142TIP3    H148841   4.977   2.855  15.737  0.0842 -0.3660  0.3106
 9142TIP3    H248842   5.034   2.831  15.599 -1.1541  1.7878 -0.6321
 9143TIP3   OH248843   6.451   4.847  15.176  0.3735 -0.2677 -0.1213
 9143TIP3    H148844   6.399   4.870  15.099  1.1724  1.9551 -0.0802
 9143TIP3    H248845   6.484   4.931  15.208 -0.8598 -0.9351  3.3482
 9144TIP3   OH248846   6.595   3.095  11.043 -0.1987 -0.1936  0.3001
 9144TIP3    H148847   6.627   3.185  11.038  0.5597 -0.4249  0.7828
 9144TIP3    H248848   6.550   3.091  11.128 -0.6895 -0.1339  0.0482
 9145TIP3   OH248849   3.607   0.412   2.260 -0.9242  0.0421  0.4109
 9145TIP3    H148850   3.514   0.417   2.238 -1.3123  0.8275  2.0898
 9145TIP3    H248851   3.610   0.425   2.355  0.8392 -0.7648  0.5041
 9146TIP3   OH248852   1.778   1.675  11.142  0.1420 -0.3760  0.2101
 9146TIP3    H148853   1.731   1.619  11.081  0.2655 -2.0595  1.5877
 9146TIP3    H248854   1.734   1.760  11.136 -0.7342 -0.8961 -1.1488
 9147TIP3   OH248855   5.773   2.334   0.939 -0.1336  0.0662 -0.4580
 9147TIP3    H148856   5.705   2.274   0.969  0.0149 -0.2211 -0.6819
 9147TIP3    H248857   5.855   2.285   0.951 -0.0018  0.2620 -0.5451
 9148TIP3   OH248858   2.525   3.004  15.135  0.2398 -0.1499  0.6528
 9148TIP3    H148859   2.473   2.977  15.060  0.5619 -1.6601  0.9318
 9148TIP3    H248860   2.548   3.095  15.117 -0.5592 -0.1641 -0.5652
 9149TIP3   OH248861   3.082   4.452  16.326 -0.1056 -0.0538  0.4007
 9149TIP3    H148862   3.164   4.421  16.366  0.4924  1.7205  0.6289
 9149TIP3    H248863   3.104   4.464  16.234 -0.6757 -1.4103  0.0721
 9150TIP3   OH248864   1.617   3.295   0.060  0.1849  0.3474 -0.4826
 9150TIP3    H148865   1.684   3.229   0.042  0.8585  0.5321  1.1468
 9150TIP3    H248866   1.626   3.313   0.154  0.2254  2.9562 -0.9219
 9151TIP3   OH248867   5.075   0.523   0.265 -0.3801 -0.3986  0.1066
 9151TIP3    H148868   5.152   0.579   0.278 -2.4912  3.1464 -1.1757
 9151TIP3    H248869   5.011   0.553   0.329 -1.1557 -2.4957  0.4121
 9152TIP3   OH248870   3.599   0.531  11.836  0.0804 -0.1738 -0.4846
 9152TIP3    H148871   3.514   0.566  11.865 -0.4007 -1.0355 -0.8000
 9152TIP3    H248872   3.598   0.439  11.865  1.3549  0.0748  0.4333
 9153TIP3   OH248873   4.020   4.667   5.022 -0.0996  0.3201  0.3242
 9153TIP3    H148874   3.991   4.696   5.109  2.2518  0.9652  0.9757
 9153TIP3    H248875   4.053   4.578   5.036 -1.2961 -0.2484 -0.3111
 9154TIP3   OH248876   0.062   0.591  16.707 -0.3432  0.4374  0.1130
 9154TIP3    H148877   0.116   0.512  16.703 -0.0510  0.5894  0.9090
 9154TIP3    H248878   0.118   0.660  16.671  0.3497  0.7709  1.7402
 9155TIP3   OH248879   6.289   4.779  10.954  0.2576  0.8622  0.7318
 9155TIP3    H148880   6.218   4.823  11.000 -3.0815 -1.7929 -1.3641
 9155TIP3    H248881   6.320   4.844  10.890 -0.8352  1.8409  1.1645
 9156TIP3   OH248882   0.144   0.449   4.811 -0.1572 -0.4095 -0.1058
 9156TIP3    H148883   0.221   0.398   4.834  0.3134  0.3855  0.1044
 9156TIP3    H248884   0.137   0.516   4.879 -0.8296 -0.2564 -0.3134
 9157TIP3   OH248885   6.142   2.902  13.814  0.1046  0.2907 -0.5970
 9157TIP3    H148886   6.216   2.842  13.826 -0.0945 -0.0066 -0.8568
 9157TIP3    H248887   6.065   2.852  13.840  0.1750  1.2329  1.5925
 9158TIP3   OH248888   6.466   0.547  12.163  0.2207  0.1306 -0.2205
 9158TIP3    H148889   6.472   0.591  12.248 -0.3537  1.8418 -1.0089
 9158TIP3    H248890   6.489   0.615  12.100 -0.5094 -0.7781 -1.5054
 9159TIP3   OH248891   4.506   3.235  15.387  0.3050 -0.5330  0.2110
 9159TIP3    H148892   4.535   3.223  15.297  1.1140  1.0033  0.2494
 9159TIP3    H248893   4.414   3.260  15.380  0.9322  1.7603 -0.3464
 9160TIP3   OH248894   2.049   6.071   1.175 -0.0024  0.1994  0.3298
 9160TIP3    H148895   1.982   6.131   1.207  0.2499 -0.5930  2.5193
 9160TIP3    H248896   2.023   5.985   1.208  1.4366 -0.3381  0.1706
 9161TIP3   OH248897   5.096   0.492  11.444  0.0249  0.0981 -0.2044
 9161TIP3    H148898   5.180   0.490  11.398  0.2320  1.1553  0.1093
 9161TIP3    H248899   5.036   0.533  11.383 -0.0658  0.1003 -0.1141
 9162TIP3   OH248900   6.474   0.717  12.833 -0.0426 -0.3632 -0.5572
 9162TIP3    H148901   6.443   0.792  12.783 -1.0363 -0.4448 -0.0940
 9162TIP3    H248902   6.397   0.661  12.842  0.7208 -1.5417 -1.0548
 9163TIP3   OH248903   3.910   1.681   3.672  0.0030 -0.0074  0.0088
 9163TIP3    H148904   3.929   1.674   3.578 -1.5324 -0.1463 -0.3199
 9163TIP3    H248905   3.873   1.769   3.682  1.9276  0.7498  0.8458
 9164TIP3   OH248906   4.713   1.153   0.730 -0.0625 -0.5362  0.1818
 9164TIP3    H148907   4.676   1.081   0.782  0.2645 -0.5315  0.4227
 9164TIP3    H248908   4.638   1.210   0.713  0.0886  0.2795  1.9992
 9165TIP3   OH248909   3.331   3.423  11.680 -0.3896 -0.1085  0.2565
 9165TIP3    H148910   3.246   3.383  11.698 -0.8189  0.6236 -0.1132
 9165TIP3    H248911   3.343   3.413  11.586 -0.9240  1.3980 -0.0054
 9166TIP3   OH248912   6.502   4.264   0.925  0.0095 -0.7465 -0.0097
 9166TIP3    H148913   6.592   4.235   0.908 -0.2168 -1.9070  0.6320
 9166TIP3    H248914   6.497   4.273   1.020 -0.0168  1.2609 -0.1543
 9167TIP3   OH248915   1.468   0.042  11.336  0.0767  0.1511 -0.3464
 9167TIP3    H148916   1.507  -0.003  11.410 -1.6439 -1.5828 -0.4039
 9167TIP3    H248917   1.536   0.042  11.269  1.6498  1.7137  1.1410
 9168TIP3   OH248918   1.539   0.715   2.286 -0.1936  0.1688 -0.1997
 9168TIP3    H148919   1.483   0.722   2.364  1.5317  1.8327  0.9703
 9168TIP3    H248920   1.538   0.803   2.248  0.0254 -0.3054 -1.3357
 9169TIP3   OH248921   6.355   5.652   3.545 -0.2348  0.1386 -0.5834
 9169TIP3    H148922   6.318   5.629   3.460  1.2951  2.0371 -1.8467
 9169TIP3    H248923   6.390   5.570   3.579 -0.4999 -0.5780 -1.9768
 9170TIP3   OH248924   0.234   2.996  13.462  0.1260 -0.0490  0.7727
 9170TIP3    H148925   0.182   3.073  13.484 -0.4264 -0.6026  1.4556
 9170TIP3    H248926   0.201   2.968  13.377 -0.3145 -0.0588  0.9409
 9171TIP3   OH248927   2.232   2.010   3.170 -0.3545  0.1228 -0.1258
 9171TIP3    H148928   2.215   2.086   3.114 -0.1766 -0.6581 -1.2686
 9171TIP3    H248929   2.170   1.944   3.140  0.3043 -0.5829  0.0446
 9172TIP3   OH248930   1.389   5.335  17.177 -0.0556 -0.1212 -0.0749
 9172TIP3    H148931   1.370   5.242  17.168  1.5697 -0.5879  0.8373
 9172TIP3    H248932   1.372   5.355  17.269 -2.5681  1.0703 -0.7321
 9173TIP3   OH248933   4.420   3.404   0.665  0.2163 -0.2171  0.8168
 9173TIP3    H148934   4.478   3.464   0.619 -1.3973 -0.4783 -1.7584
 9173TIP3    H248935   4.438   3.419   0.758  4.2416 -0.2309  0.1778
 9174TIP3   OH248936   3.637   4.531   3.617 -0.0912  0.1378 -0.0563
 9174TIP3    H148937   3.596   4.549   3.532  0.9244 -0.5040 -0.6948
 9174TIP3    H248938   3.576   4.471   3.660 -1.1131  1.2476  0.1088
 9175TIP3   OH248939   6.098   1.770  13.920  0.1375  0.1917  0.5271
 9175TIP3    H148940   6.194   1.765  13.922  0.0861 -2.7976  2.3011
 9175TIP3    H248941   6.074   1.732  13.835  0.5464 -1.9632  1.3201
 9176TIP3   OH248942   1.560   3.521   0.939  0.4947  0.8741  0.3950
 9176TIP3    H148943   1.645   3.514   0.896  1.1480 -2.1931  1.9067
 9176TIP3    H248944   1.574   3.486   1.027 -2.7884 -2.0465 -0.0241
 9177TIP3   OH248945   1.228   0.930   2.988 -0.1485  0.1986 -0.0267
 9177TIP3    H148946   1.279   0.935   3.069 -0.5128 -0.0606  0.2257
 9177TIP3    H248947   1.231   1.018   2.952  0.0469  0.3075  0.2520
 9178TIP3   OH248948   3.718   5.587   5.048 -0.0882 -0.6281 -0.3351
 9178TIP3    H148949   3.691   5.679   5.050 -0.1759 -0.6619  0.8663
 9178TIP3    H248950   3.637   5.538   5.033 -0.3575 -0.5867  0.8290
 9179TIP3   OH248951   1.702   1.953   4.791 -0.2578  0.2929  0.3437
 9179TIP3    H148952   1.688   1.918   4.879  1.3259 -0.3439  0.3731
 9179TIP3    H248953   1.734   1.878   4.741  0.5425  1.0643 -0.3168
 9180TIP3   OH248954   0.471   2.339  16.303 -0.6617  0.2111  0.0952
 9180TIP3    H148955   0.462   2.251  16.338  0.6463  0.5294  1.2978
 9180TIP3    H248956   0.532   2.330  16.229 -0.5946  0.1026  0.1641
 9181TIP3   OH248957   1.586   1.006  12.335  0.4931 -0.2187  0.2061
 9181TIP3    H148958   1.649   0.981  12.403  1.4775  1.6115  0.0173
 9181TIP3    H248959   1.600   1.099  12.322 -2.6029  0.4020  0.4818
 9182TIP3   OH248960   0.500   0.549  16.546  0.1671 -0.0903  0.0403
 9182TIP3    H148961   0.582   0.518  16.509  0.4927  2.4232 -1.6079
 9182TIP3    H248962   0.496   0.642  16.522 -2.2771  0.3380  1.6877
 9183TIP3   OH248963   1.188   6.704  11.272 -0.1583 -0.2687  0.3840
 9183TIP3    H148964   1.225   6.633  11.324  0.5504  0.9681  1.6186
 9183TIP3    H248965   1.243   6.780  11.291 -0.7917  0.5954 -1.0313
 9184TIP3   OH248966   4.568   4.854   5.864  0.3617 -0.0553  0.3267
 9184TIP3    H148967   4.587   4.885   5.776 -1.1655 -1.7169 -0.6432
 9184TIP3    H248968   4.498   4.789   5.853  1.0834 -1.3407  2.6111
 9185TIP3   OH248969   1.357   3.229   4.680  0.7260  0.4779 -0.2857
 9185TIP3    H148970   1.332   3.292   4.748  0.0321 -0.1481  0.0563
 9185TIP3    H248971   1.358   3.145   4.725  0.3342  0.0645 -1.0311
 9186TIP3   OH248972   3.149   5.101  14.169  0.0434 -0.2646  0.4869
 9186TIP3    H148973   3.128   5.118  14.078  0.0875 -1.4069  0.2459
 9186TIP3    H248974   3.067   5.116  14.216  0.6734  3.1971  0.7265
 9187TIP3   OH248975   4.569   2.503   0.332 -0.3538 -0.2037 -0.0887
 9187TIP3    H148976   4.531   2.439   0.393  0.3821 -0.1455  0.4437
 9187TIP3    H248977   4.659   2.515   0.363  0.2785 -0.7191 -1.6287
 9188TIP3   OH248978   1.852   0.941  16.705 -0.2845 -0.0875  0.8429
 9188TIP3    H148979   1.919   0.873  16.707  1.8000  1.7972 -0.3393
 9188TIP3    H248980   1.826   0.951  16.796  0.9986 -0.9414  1.3349
 9189TIP3   OH248981   1.655   2.171   5.267 -0.0623 -0.1147 -0.1724
 9189TIP3    H148982   1.614   2.257   5.275  1.5038  1.0231 -2.9530
 9189TIP3    H248983   1.723   2.171   5.334 -1.0271  0.1574  0.8435
 9190TIP3   OH248984   0.719   4.268   6.002 -0.1028 -0.1538  0.1460
 9190TIP3    H148985   0.673   4.325   5.940 -1.8157 -1.2704  0.3340
 9190TIP3    H248986   0.811   4.279   5.979 -0.5955  0.2919 -1.9004
 9191TIP3   OH248987   5.497   1.981   5.568  0.2775 -0.0288  0.1772
 9191TIP3    H148988   5.538   2.013   5.488  1.2640 -0.9172  0.2986
 9191TIP3    H248989   5.444   1.906   5.541 -0.0804  0.2009  0.2357
 9192TIP3   OH248990   6.078   2.457  11.669 -0.3098 -0.2459  0.5962
 9192TIP3    H148991   6.125   2.436  11.750  0.8251 -0.7564 -0.1676
 9192TIP3    H248992   6.147   2.486  11.609 -1.0780 -0.2880 -0.3210
 9193TIP3   OH248993   4.927   6.291  15.346 -0.1517  0.6802 -0.5551
 9193TIP3    H148994   4.863   6.254  15.406 -0.7728 -3.0046 -3.1152
 9193TIP3    H248995   4.903   6.383  15.339 -2.6260  0.3059  1.6084
 9194TIP3   OH248996   5.312   4.393  10.691  0.1216  0.0689  0.1218
 9194TIP3    H148997   5.228   4.436  10.707  0.3489  0.4472  0.3254
 9194TIP3    H248998   5.369   4.426  10.762  0.3441 -0.4381  0.1795
 9195TIP3   OH248999   5.993   3.972  17.141  0.2240 -0.3112  0.0433
 9195TIP3    H149000   5.960   4.013  17.221  1.2083  0.7032 -0.0482
 9195TIP3    H249001   6.064   3.915  17.170  1.6019  1.2001 -0.2121
 9196TIP3   OH249002   4.331   1.021   6.244 -0.1224  0.1118  0.1120
 9196TIP3    H149003   4.400   1.087   6.234 -0.7197  0.4991 -1.9423
 9196TIP3    H249004   4.356   0.972   6.323  2.1788  0.5882 -0.2389
 9197TIP3   OH249005   0.206   3.574   1.153  0.3850 -0.0985  0.4747
 9197TIP3    H149006   0.196   3.668   1.137  0.2574 -0.3799 -1.3434
 9197TIP3    H249007   0.123   3.536   1.125  0.8259 -0.8608  0.1638
 9198TIP3   OH249008   2.654   4.023   2.778 -0.0170  0.1947  0.3206
 9198TIP3    H149009   2.600   4.081   2.725  1.6985  0.5778 -1.1340
 9198TIP3    H249010   2.616   3.936   2.765  0.2349  0.3169 -1.4273
 9199TIP3   OH249011   0.880   2.633   4.860  0.1009 -0.4717 -0.5680
 9199TIP3    H149012   0.832   2.703   4.905 -0.2915 -0.0546 -1.6063
 9199TIP3    H249013   0.858   2.645   4.768  0.0096 -1.9902 -0.7608
 9200TIP3   OH249014   6.060   1.497   4.493  0.1372 -0.1189  0.2886
 9200TIP3    H149015   6.120   1.568   4.514 -0.4931  1.7845 -3.5254
 9200TIP3    H249016   5.974   1.538   4.491 -0.6701 -1.6948  0.7357
 9201TIP3   OH249017   3.307   1.428  14.365 -0.3906 -0.3122 -0.3925
 9201TIP3    H149018   3.248   1.432  14.290 -1.4208 -0.3922  0.3967
 9201TIP3    H249019   3.293   1.510  14.411  0.2936 -0.2346 -0.3089
 9202TIP3   OH249020   0.968   2.894  16.477 -0.2669  0.3521  0.1612
 9202TIP3    H149021   0.949   2.885  16.570 -0.3171  2.4057  0.3936
 9202TIP3    H249022   0.897   2.949  16.444  0.8160  1.2863 -0.6688
 9203TIP3   OH249023   5.741   3.561  12.276 -0.1943 -0.3448  0.0743
 9203TIP3    H149024   5.755   3.509  12.355 -3.1535  0.7613  1.4584
 9203TIP3    H249025   5.680   3.509  12.223 -0.3460  0.1223 -0.2175
 9204TIP3   OH249026   3.345   0.481   5.821  0.6988 -0.3296 -0.3263
 9204TIP3    H149027   3.326   0.389   5.804  3.0172 -0.7603 -0.9381
 9204TIP3    H249028   3.355   0.486   5.916 -0.0184 -0.5727 -0.2322
 9205TIP3   OH249029   0.878   2.131  16.757  0.2722 -0.1311  0.3532
 9205TIP3    H149030   0.958   2.136  16.810  0.5036 -0.2743  0.0178
 9205TIP3    H249031   0.904   2.161  16.670 -0.1029  0.0766  0.3114
 9206TIP3   OH249032   6.476   5.057   3.945 -0.2762  0.0472  0.1595
 9206TIP3    H149033   6.501   5.136   3.992 -1.0315  1.3941 -1.5603
 9206TIP3    H249034   6.553   5.000   3.950  0.9491  1.6170 -0.0310
 9207TIP3   OH249035   0.599   2.472   3.374  0.6028  0.4273 -0.1428
 9207TIP3    H149036   0.532   2.442   3.436 -1.4419 -0.7305 -2.7196
 9207TIP3    H249037   0.682   2.438   3.410 -0.8248 -2.6398  0.5836
 9208TIP3   OH249038   1.970   4.224  14.420  0.1149  0.6095 -0.0572
 9208TIP3    H149039   2.001   4.135  14.405 -0.9304  0.5867 -2.5373
 9208TIP3    H249040   1.981   4.238  14.514 -1.2661 -2.7540  0.7503
 9209TIP3   OH249041   2.855   0.085  10.876 -0.5109  0.1613  0.7409
 9209TIP3    H149042   2.772   0.050  10.909  0.1786 -0.4433  1.8791
 9209TIP3    H249043   2.829   0.146  10.807 -1.8773 -0.4045  0.7155
 9210TIP3   OH249044   0.870   1.046  14.418  0.2149  0.2448  0.3991
 9210TIP3    H149045   0.953   1.023  14.375 -0.4987  0.3389 -1.0854
 9210TIP3    H249046   0.883   1.137  14.447  1.1335 -0.2139  1.5039
 9211TIP3   OH249047   1.643   0.148  13.040  0.2940  0.1931  0.4578
 9211TIP3    H149048   1.675   0.180  12.956 -0.3042 -1.4281 -0.4389
 9211TIP3    H249049   1.636   0.226  13.095  1.6249  1.1585 -0.6750
 9212TIP3   OH249050   3.973   5.862   3.171  0.0192 -0.3471 -0.0799
 9212TIP3    H149051   4.028   5.940   3.173  1.0926 -0.9268 -2.5485
 9212TIP3    H249052   3.885   5.896   3.157 -0.3212  0.5706  3.4268
 9213TIP3   OH249053   2.102   1.257  11.229 -0.1063  0.0755  0.4087
 9213TIP3    H149054   2.061   1.185  11.180  1.1123 -1.0968  1.0388
 9213TIP3    H249055   2.127   1.320  11.162  2.2230 -1.8339 -0.6713
 9214TIP3   OH249056   0.742   5.320  11.211 -0.1744 -0.2971  0.0586
 9214TIP3    H149057   0.672   5.370  11.253  0.1995  0.8448 -0.6288
 9214TIP3    H249058   0.709   5.230  11.209 -0.7290 -0.1689  1.6315
 9215TIP3   OH249059   0.157   6.211  13.728 -0.0347  0.3059 -0.8837
 9215TIP3    H149060   0.216   6.222  13.803 -1.2794  2.0349 -0.0807
 9215TIP3    H249061   0.215   6.195  13.654  1.5402  2.5050 -0.2343
 9216TIP3   OH249062   0.388   1.117   0.401  0.0130  0.3247 -0.8091
 9216TIP3    H149063   0.482   1.113   0.418 -0.0710 -0.9729 -0.5286
 9216TIP3    H249064   0.380   1.107   0.306  0.1241 -0.4076 -0.7440
 9217TIP3   OH249065   2.938   5.335  16.037 -0.1527 -0.0644 -0.2898
 9217TIP3    H149066   2.950   5.299  16.125 -1.2944  2.2117  0.8828
 9217TIP3    H249067   2.901   5.422  16.052 -0.7202  0.2461 -3.0538
 9218TIP3   OH249068   3.722   6.052  14.881 -0.0095  0.7755  0.3370
 9218TIP3    H149069   3.809   6.013  14.885  0.1795  1.2085  0.4786
 9218TIP3    H249070   3.708   6.069  14.788 -0.2668 -0.0133  0.2257
 9219TIP3   OH249071   3.733   4.379   0.443 -0.0319  0.2340  0.1306
 9219TIP3    H149072   3.789   4.336   0.508 -0.7887 -0.6930  0.1895
 9219TIP3    H249073   3.649   4.392   0.488 -0.3929  0.0706 -0.4778
 9220TIP3   OH249074   5.809   5.215   5.360  0.1808  0.1031 -0.9615
 9220TIP3    H149075   5.847   5.158   5.426  1.8515  0.8955 -1.1818
 9220TIP3    H249076   5.738   5.262   5.406  1.2368  0.5624  0.2546
 9221TIP3   OH249077   0.003   3.644   2.604 -0.0358 -0.1531  0.3473
 9221TIP3    H149078  -0.088   3.654   2.576  0.0593  0.4914  0.2716
 9221TIP3    H249079   0.003   3.563   2.656 -0.5844 -0.3270  0.0785
 9222TIP3   OH249080   6.021   3.239   2.350  0.1499  0.0835 -0.3374
 9222TIP3    H149081   6.100   3.279   2.386 -1.3263  1.6348  1.3924
 9222TIP3    H249082   6.012   3.277   2.263  0.8920  0.5108 -0.2336
 9223TIP3   OH249083   3.823   3.088  12.233  0.1730 -0.2967  0.0775
 9223TIP3    H149084   3.880   3.087  12.310 -2.2917  0.2349  2.0478
 9223TIP3    H249085   3.857   3.159  12.179  1.3829  0.0015  1.1696
 9224TIP3   OH249086   4.368   6.469  12.124 -0.6693 -1.3654  0.3087
 9224TIP3    H149087   4.458   6.460  12.090 -1.3137 -1.6120 -1.4359
 9224TIP3    H249088   4.312   6.442  12.051 -2.1935 -0.4726  1.0965
 9225TIP3   OH249089   6.690   1.113   6.140 -0.4341  0.6735  0.3815
 9225TIP3    H149090   6.712   1.186   6.082 -0.8061 -1.2941 -2.4905
 9225TIP3    H249091   6.771   1.092   6.186  0.3615  1.2650 -0.7213
 9226TIP3   OH249092   0.056   5.974  17.074 -0.3945  0.1840 -0.0842
 9226TIP3    H149093   0.096   5.907  17.019 -1.4978 -0.7476  0.1989
 9226TIP3    H249094   0.076   6.057  17.031  2.1303 -0.1837  0.2544
 9227TIP3   OH249095   3.658   0.711   4.267  0.1247  0.3745 -0.6270
 9227TIP3    H149096   3.610   0.655   4.206  1.4564  0.4835 -1.8397
 9227TIP3    H249097   3.612   0.795   4.263 -0.8495 -0.1127 -0.1064
 9228TIP3   OH249098   5.955   0.345  12.251 -0.5656 -0.0268 -0.0306
 9228TIP3    H149099   5.947   0.411  12.319 -1.6287  1.4752 -1.5400
 9228TIP3    H249100   6.026   0.377  12.194 -2.0136  0.6118 -1.5568
 9229TIP3   OH249101   5.174   5.256  12.654 -0.1700  0.6974 -0.0843
 9229TIP3    H149102   5.216   5.222  12.732 -0.5201  3.1568  1.2668
 9229TIP3    H249103   5.246   5.279  12.595  0.0782 -2.6415 -1.2939
 9230TIP3   OH249104   6.227   1.990  15.221  0.0060 -0.4397  0.2346
 9230TIP3    H149105   6.282   1.991  15.299  1.1917  1.3273 -0.5648
 9230TIP3    H249106   6.210   2.082  15.202  0.6194 -0.7369 -2.1625
 9231TIP3   OH249107   0.429   0.392   4.894  0.1943  0.0566  0.3829
 9231TIP3    H149108   0.515   0.371   4.930  0.5262 -0.8236 -0.8571
 9231TIP3    H249109   0.371   0.392   4.969  0.8865 -1.5911  0.9528
 9232TIP3   OH249110   1.696   1.367  13.366  0.1083  0.4658 -0.1695
 9232TIP3    H149111   1.685   1.455  13.402  1.2256  0.7793 -0.5362
 9232TIP3    H249112   1.764   1.377  13.299  0.9961 -0.8580  0.4887
 9233TIP3   OH249113   4.311   1.781   0.597  0.2919 -0.2308 -0.4969
 9233TIP3    H149114   4.392   1.760   0.551 -0.1359 -2.1199 -0.5032
 9233TIP3    H249115   4.260   1.832   0.534  0.6761 -0.7439 -1.2376
 9234TIP3   OH249116   6.282   0.389   5.299  0.2768 -0.1335 -0.0213
 9234TIP3    H149117   6.191   0.366   5.281 -0.4092  1.0126  1.6896
 9234TIP3    H249118   6.285   0.405   5.393  2.5981 -1.5025  0.2272
 9235TIP3   OH249119   5.178   4.341   5.432  0.1732  0.0477  0.4272
 9235TIP3    H149120   5.199   4.418   5.486 -2.0330  1.3597 -0.4567
 9235TIP3    H249121   5.233   4.352   5.354 -0.2494  0.8625  0.2300
 9236TIP3   OH249122   3.344   3.265   4.960  0.2227 -0.3128 -0.5360
 9236TIP3    H149123   3.381   3.215   5.033  0.1772  1.6256  0.8818
 9236TIP3    H249124   3.268   3.214   4.932  0.6191 -1.4144  0.3304
 9237TIP3   OH249125   4.431   3.802   5.978  0.1740  0.5205 -0.0977
 9237TIP3    H149126   4.506   3.827   5.924 -1.8293  2.6312 -2.1088
 9237TIP3    H249127   4.415   3.879   6.033 -1.2267  0.5837 -0.5641
 9238TIP3   OH249128   1.618   2.132  16.321  0.2123  0.1954 -0.7131
 9238TIP3    H149129   1.560   2.189  16.371  0.3471  0.8940 -1.3462
 9238TIP3    H249130   1.663   2.079  16.388 -0.5216  0.2432 -0.1745
 9239TIP3   OH249131   0.444   6.655  12.861 -0.0738  0.6426  0.2639
 9239TIP3    H149132   0.381   6.672  12.791  0.1940  0.0575 -0.1298
 9239TIP3    H249133   0.501   6.732  12.861  0.4362  0.2912 -0.7390
 9240TIP3   OH249134   6.214   0.867   4.347  0.5794 -0.8415  0.5836
 9240TIP3    H149135   6.268   0.942   4.373 -0.8257 -0.2336  1.8666
 9240TIP3    H249136   6.164   0.899   4.272  0.9164 -0.9234  0.3215
 9241TIP3   OH249137   1.580   0.614   5.137  0.2416  0.1910 -0.1846
 9241TIP3    H149138   1.582   0.659   5.221 -0.6945  1.6044 -0.8755
 9241TIP3    H249139   1.615   0.678   5.075 -0.1380 -0.4063 -1.0439
 9242TIP3   OH249140   6.628   4.881   3.542 -0.0556  0.4682 -0.1182
 9242TIP3    H149141   6.687   4.915   3.610 -0.1290  3.3857 -1.3751
 9242TIP3    H249142   6.681   4.884   3.462 -0.7249 -0.5928 -0.6121
 9243TIP3   OH249143   6.211   3.092   4.487  0.3170  0.2566  0.2358
 9243TIP3    H149144   6.200   3.036   4.563  1.5406  0.6818  0.7624
 9243TIP3    H249145   6.284   3.053   4.438 -0.5398 -0.0838 -0.7930
 9244TIP3   OH249146   6.336   1.222   3.832  0.0480  0.1433 -0.2376
 9244TIP3    H149147   6.322   1.191   3.922 -2.7572 -0.2761 -0.7406
 9244TIP3    H249148   6.264   1.283   3.816  0.2429 -0.1014 -2.3418
 9245TIP3   OH249149   3.778   5.852  12.681 -0.2231  0.2935 -0.2243
 9245TIP3    H149150   3.733   5.907  12.617 -0.6491  0.2648  0.0449
 9245TIP3    H249151   3.719   5.778  12.695 -0.0615  0.2191  0.0841
 9246TIP3   OH249152   2.704   1.685   5.883  0.2769 -0.2886  0.1330
 9246TIP3    H149153   2.646   1.625   5.929  0.4839 -1.2801 -0.8735
 9246TIP3    H249154   2.676   1.772   5.912 -1.1889 -0.7768  0.2631
 9247TIP3   OH249155   1.063   0.212   5.689 -0.3881  0.3371 -0.0061
 9247TIP3    H149156   1.140   0.268   5.688 -1.5596  2.1250  2.3009
 9247TIP3    H249157   0.991   0.269   5.661 -0.8760 -1.5173 -3.0107
 9248TIP3   OH249158   6.546   5.175   2.431 -0.2200 -0.3578  0.1955
 9248TIP3    H149159   6.569   5.093   2.386  1.3780 -0.9145  1.9191
 9248TIP3    H249160   6.594   5.243   2.384 -0.9393 -0.4920 -0.7618
 9249TIP3   OH249161   4.572   3.604  13.044  0.1475 -0.1514 -0.6238
 9249TIP3    H149162   4.512   3.672  13.013  0.0028  0.1303  0.2227
 9249TIP3    H249163   4.544   3.525  12.999  0.1515  0.2932 -1.4289
 9250TIP3   OH249164   2.087   0.098   0.815  0.5854 -0.3247  0.2948
 9250TIP3    H149165   2.064   0.016   0.772 -2.5998  0.2768  0.6467
 9250TIP3    H249166   2.068   0.165   0.749  2.9321  0.2308  0.0888
 9251TIP3   OH249167   1.752   6.625  14.007 -0.2987 -0.6418 -0.0296
 9251TIP3    H149168   1.736   6.643  14.100  2.4544 -0.3654  0.4598
 9251TIP3    H249169   1.675   6.575  13.979 -1.4885 -0.1912  2.2100
 9252TIP3   OH249170   0.142   1.028   0.459 -0.7425 -0.3810  0.2042
 9252TIP3    H149171   0.133   1.043   0.553 -1.9060  0.4126 -0.0150
 9252TIP3    H249172   0.220   1.078   0.434 -1.5248  0.9738  0.4246
 9253TIP3   OH249173   5.643   2.445  14.991  0.4401 -0.1334  0.1494
 9253TIP3    H149174   5.673   2.520  15.043  0.6534 -0.3823  0.3871
 9253TIP3    H249175   5.717   2.384  14.993  1.2680  0.6713 -2.0958
 9254TIP3   OH249176   2.687   4.850  13.165 -0.0653  0.8166  0.8266
 9254TIP3    H149177   2.593   4.868  13.164 -0.2223  0.0441  0.8389
 9254TIP3    H249178   2.704   4.802  13.084  0.0935 -0.0642  1.3583
 9255TIP3   OH249179   4.730   1.642   4.264 -0.2794 -0.0225  0.3339
 9255TIP3    H149180   4.760   1.659   4.353  0.3284 -0.9441  0.3210
 9255TIP3    H249181   4.659   1.579   4.273  0.4085 -0.8453  0.1192
 9256TIP3   OH249182   4.199   0.821  14.053  0.3432 -0.1255 -0.6454
 9256TIP3    H149183   4.277   0.787  14.009 -0.4085 -1.9460 -0.6668
 9256TIP3    H249184   4.228   0.840  14.142  1.0111  0.0478 -0.8955
 9257TIP3   OH249185   5.594   5.085   5.046 -0.3855  0.0915 -0.2304
 9257TIP3    H149186   5.580   5.125   5.132 -1.4017 -0.7514  0.0211
 9257TIP3    H249187   5.681   5.046   5.052 -0.7952 -0.7231  0.7478
 9258TIP3   OH249188   1.545   2.281   1.054 -0.1538  0.3374 -0.1959
 9258TIP3    H149189   1.640   2.286   1.058 -0.1326  1.3572 -1.3124
 9258TIP3    H249190   1.520   2.345   0.987 -1.5984 -0.1906 -0.2080
 9259TIP3   OH249191   2.204   1.995   1.590  0.0140  0.0367 -0.3711
 9259TIP3    H149192   2.155   1.943   1.526 -0.2052  1.1045 -1.1114
 9259TIP3    H249193   2.292   1.959   1.588 -0.0345 -0.0694 -1.1543
 9260TIP3   OH249194   3.577   3.257  10.593 -0.0010  0.4343 -0.8643
 9260TIP3    H149195   3.550   3.177  10.638 -0.4432  1.3841  0.6414
 9260TIP3    H249196   3.660   3.282  10.636 -0.7020  1.6417 -0.1335
 9261TIP3   OH249197   5.816   0.194  14.654  0.0613  0.2367  0.4721
 9261TIP3    H149198   5.777   0.250  14.588  0.7724  0.5097  0.2705
 9261TIP3    H249199   5.746   0.135  14.681 -0.0125 -0.4885 -1.1898
 9262TIP3   OH249200   1.433   4.813  15.412 -0.1893 -0.0737 -0.3710
 9262TIP3    H149201   1.348   4.774  15.434  0.6213 -1.8599 -0.2948
 9262TIP3    H249202   1.460   4.768  15.332  0.0753  1.4560 -1.1703
 9263TIP3   OH249203   5.302   4.519   2.650  0.2219  0.2132  0.2500
 9263TIP3    H149204   5.314   4.548   2.740  1.5144  2.0682 -0.4507
 9263TIP3    H249205   5.217   4.553   2.624  0.0919  0.1505  0.5957
 9264TIP3   OH249206   2.642   6.144  15.138  0.0981  1.1603  0.2890
 9264TIP3    H149207   2.611   6.231  15.111 -1.1873  0.7085  0.2503
 9264TIP3    H249208   2.564   6.100  15.173  0.6626 -0.0966  0.0215
 9265TIP3   OH249209   4.967   4.032  17.370 -0.0988 -0.1885  0.3855
 9265TIP3    H149210   4.988   4.119  17.336  2.1129 -0.1431  1.6686
 9265TIP3    H249211   5.036   3.976  17.335 -1.1323 -1.3181  0.1034
 9266TIP3   OH249212   3.906   3.594   2.170 -0.2148 -0.0605 -0.1525
 9266TIP3    H149213   3.991   3.551   2.183 -0.3643  0.2709  2.6458
 9266TIP3    H249214   3.924   3.687   2.184 -0.6771  0.3108 -1.8464
 9267TIP3   OH249215   2.386   6.414   4.498  0.2394  0.5239  0.1415
 9267TIP3    H149216   2.320   6.353   4.464  1.4099 -1.0779  0.5884
 9267TIP3    H249217   2.346   6.500   4.489 -0.7645 -0.0981 -2.2902
 9268TIP3   OH249218   1.422   5.595  15.133  0.2179 -0.0107 -0.4153
 9268TIP3    H149219   1.344   5.621  15.084  0.1386 -0.1495 -0.3637
 9268TIP3    H249220   1.389   5.573  15.220 -0.0253 -2.2080 -1.0091
 9269TIP3   OH249221   4.273   3.253   2.294  0.0137  0.1051 -0.2327
 9269TIP3    H149222   4.339   3.226   2.358  0.5027  0.4496 -0.5784
 9269TIP3    H249223   4.247   3.172   2.251  0.5863  0.0188 -0.4336
 9270TIP3   OH249224   3.158   1.789   0.889  0.4780 -0.0002 -0.1543
 9270TIP3    H149225   3.118   1.707   0.858  0.7943 -0.2922  0.2040
 9270TIP3    H249226   3.252   1.774   0.884  0.5490  0.5926 -0.7358
 9271TIP3   OH249227   2.553   5.203   3.914  0.1302 -0.3733  0.1222
 9271TIP3    H149228   2.490   5.138   3.882 -0.0036 -0.3663  0.3767
 9271TIP3    H249229   2.576   5.174   4.002  0.7824 -0.5955 -0.1155
 9272TIP3   OH249230   1.596   0.832   2.782  0.1508  0.2147 -0.5198
 9272TIP3    H149231   1.647   0.849   2.862  0.4869 -0.2161 -0.6410
 9272TIP3    H249232   1.531   0.767   2.808  0.2896  0.0403 -0.6050
 9273TIP3   OH249233   4.064   4.835   2.216 -0.1814  0.0585  0.3320
 9273TIP3    H149234   4.003   4.802   2.149  0.1441 -0.8522  0.4738
 9273TIP3    H249235   4.011   4.840   2.296 -0.1381 -0.5557  0.4103
 9274TIP3   OH249236   4.416   5.981  10.927 -0.1914 -0.4974 -0.1725
 9274TIP3    H149237   4.469   5.931  10.990 -1.0637 -2.9158 -1.2258
 9274TIP3    H249238   4.408   6.068  10.966  1.0545 -1.2789  2.0144
 9275TIP3   OH249239   2.118   4.508  13.168 -0.1568 -0.2785 -0.2014
 9275TIP3    H149240   2.124   4.432  13.225 -0.0966  0.1082  0.3147
 9275TIP3    H249241   2.130   4.473  13.080 -2.9487 -1.3171 -0.2780
 9276TIP3   OH249242   1.495   0.067   5.181 -0.2646  0.5188  0.0074
 9276TIP3    H149243   1.468   0.151   5.218 -2.6251  0.3505 -1.1555
 9276TIP3    H249244   1.562   0.090   5.115  0.9841  1.1772  1.4366
 9277TIP3   OH249245   0.632   1.163   2.278  0.4940 -0.2416  0.6106
 9277TIP3    H149246   0.591   1.232   2.227 -1.3571 -1.9654 -0.3532
 9277TIP3    H249247   0.570   1.090   2.276  1.1345 -1.0537  3.8419
 9278TIP3   OH249248   3.710   0.987   4.339 -0.1668  0.5241 -0.0703
 9278TIP3    H149249   3.648   1.008   4.270 -0.1722 -0.4511 -0.3755
 9278TIP3    H249250   3.766   1.065   4.345 -1.8133  1.7108  0.6908
 9279TIP3   OH249251   5.704   3.249   2.169  0.2729 -0.5085  0.3073
 9279TIP3    H149252   5.781   3.299   2.144  0.7471 -0.9650  0.8430
 9279TIP3    H249253   5.679   3.201   2.089  0.3946 -0.1757  0.0693
 9280TIP3   OH249254   4.979   3.927  16.741 -0.9159 -0.3868  0.2208
 9280TIP3    H149255   5.000   4.001  16.798 -1.5996 -0.7130  0.9101
 9280TIP3    H249256   4.967   3.966  16.654 -0.8450  0.2507  0.4924
 9281TIP3   OH249257   4.186   1.755   6.820 -0.2588 -0.4874 -0.0419
 9281TIP3    H149258   4.239   1.679   6.841 -2.0319 -1.1756  2.3833
 9281TIP3    H249259   4.190   1.762   6.724  1.1821 -2.6668 -0.2048
 9282TIP3   OH249260   0.537   2.959   0.648  0.3104  0.0464  0.0355
 9282TIP3    H149261   0.522   2.871   0.615 -2.4026  0.9698 -1.4691
 9282TIP3    H249262   0.580   3.005   0.576 -0.3989  0.5461 -0.0815
 9283TIP3   OH249263   4.202   2.275   3.509  0.0467 -0.2755  0.3218
 9283TIP3    H149264   4.177   2.368   3.506  2.0426  0.2919 -0.5113
 9283TIP3    H249265   4.194   2.251   3.601 -1.8105  0.2910  0.3644
 9284TIP3   OH249266   6.627   0.706   3.693  0.3437 -0.2682 -0.2323
 9284TIP3    H149267   6.703   0.713   3.635  0.5734  1.5147  0.2496
 9284TIP3    H249268   6.562   0.764   3.654 -0.0899 -0.3193  0.4081
 9285TIP3   OH249269   1.574   0.071   1.049 -0.2382 -0.1355 -0.2992
 9285TIP3    H149270   1.541   0.056   1.138 -0.3057 -1.0344 -0.4676
 9285TIP3    H249271   1.669   0.074   1.059 -0.2553 -0.0232 -0.1679
 9286TIP3   OH249272   4.394   5.427   5.814 -0.5492 -0.2249 -0.0496
 9286TIP3    H149273   4.299   5.434   5.804 -0.5463  0.5522  0.4384
 9286TIP3    H249274   4.407   5.342   5.856 -0.9714 -0.6661 -0.7778
 9287TIP3   OH249275   6.027   0.946  12.230 -0.6754 -0.1447  0.0671
 9287TIP3    H149276   5.938   0.970  12.255 -0.7448  1.2261 -1.3811
 9287TIP3    H249277   6.018   0.859  12.191 -0.9093 -1.2598  2.4301
 9288TIP3   OH249278   5.653   0.362   2.555 -0.1159 -0.1407 -0.2610
 9288TIP3    H149279   5.688   0.321   2.476  1.6226  0.9948 -0.1316
 9288TIP3    H249280   5.730   0.396   2.601 -1.3370  2.3221  0.1548
 9289TIP3   OH249281   0.305   2.219   2.443 -0.0159 -0.0028 -0.2587
 9289TIP3    H149282   0.214   2.236   2.422 -0.9791  0.8304  3.7011
 9289TIP3    H249283   0.345   2.306   2.451 -0.2684 -0.0608  2.7364
 9290TIP3   OH249284   2.642   4.179  12.436 -0.1901  0.0449  0.0610
 9290TIP3    H149285   2.632   4.226  12.518  0.6478  1.9643 -0.8788
 9290TIP3    H249286   2.725   4.132  12.445  0.6464  1.4170 -0.1889
 9291TIP3   OH249287   3.256   3.539   6.593 -0.4213  0.1424 -0.3165
 9291TIP3    H149288   3.236   3.467   6.653 -2.5430  2.2403  1.6666
 9291TIP3    H249289   3.352   3.547   6.596 -0.3015 -1.3356  0.9110
 9292TIP3   OH249290   2.311   1.310   6.188 -0.8541 -0.0460  0.1880
 9292TIP3    H149291   2.262   1.234   6.219  0.8957 -0.3674  2.3510
 9292TIP3    H249292   2.398   1.300   6.226 -0.5475  3.0140  0.5187
 9293TIP3   OH249293   6.391   6.146  14.410  0.1254 -0.0409  0.4129
 9293TIP3    H149294   6.448   6.151  14.333 -1.2886  0.7241 -0.6292
 9293TIP3    H249295   6.385   6.053  14.430  0.1527 -0.2902 -0.6883
 9294TIP3   OH249296   0.871   4.381   1.765  0.3387 -0.3999  0.6219
 9294TIP3    H149297   0.803   4.314   1.770  0.9004 -1.1109 -0.6660
 9294TIP3    H249298   0.949   4.339   1.801  0.8457 -0.6960 -0.7392
 9295TIP3   OH249299   5.004   6.379   4.012  0.4516 -0.6729 -0.3185
 9295TIP3    H149300   5.095   6.350   4.007  0.1547 -2.1300  1.5765
 9295TIP3    H249301   5.006   6.456   4.069  0.5064 -0.7200 -0.2561
 9296TIP3   OH249302   1.010   2.039   3.570 -0.0610  0.1215  0.5378
 9296TIP3    H149303   1.002   2.130   3.597  0.0410  0.4372 -0.4487
 9296TIP3    H249304   0.919   2.011   3.555 -0.1971 -0.3495  2.0727
 9297TIP3   OH249305   6.107   2.195  15.477  0.3132 -0.1576 -0.7258
 9297TIP3    H149306   6.035   2.192  15.541 -1.6972  0.5532 -2.8088
 9297TIP3    H249307   6.177   2.143  15.517 -1.4295 -1.0949  1.3198
 9298TIP3   OH249308   6.490   1.938  16.302 -0.3431 -0.3020  0.3935
 9298TIP3    H149309   6.585   1.926  16.306 -0.2085  0.8796  2.4964
 9298TIP3    H249310   6.464   1.902  16.217  2.2469  1.1599 -1.1331
 9299TIP3   OH249311   4.197   2.460   4.437  0.6537  0.0467  0.0760
 9299TIP3    H149312   4.136   2.523   4.475  0.3037 -0.2237 -0.0387
 9299TIP3    H249313   4.278   2.473   4.486  0.7440  0.9546 -0.3021
 9300TIP3   OH249314   0.143   1.486   4.315 -0.8523  0.2126 -0.3525
 9300TIP3    H149315   0.091   1.560   4.286 -1.6782 -0.0414  0.4337
 9300TIP3    H249316   0.084   1.435   4.370 -0.1741 -0.8118 -0.5477
 9301TIP3   OH249317   6.441   4.493   0.328  0.0361 -0.2481 -0.6549
 9301TIP3    H149318   6.479   4.466   0.411  0.8109  1.7229 -0.3087
 9301TIP3    H249319   6.510   4.479   0.264  0.6746  1.4006 -0.3680
 9302TIP3   OH249320   0.855   1.518  13.757 -0.2828  0.7297 -0.4260
 9302TIP3    H149321   0.815   1.562  13.832 -0.3553  0.6155 -0.3985
 9302TIP3    H249322   0.945   1.501  13.784 -0.4296  0.2965 -0.2009
 9303TIP3   OH249323   3.268   5.470   4.498  0.6444 -0.2454 -0.0848
 9303TIP3    H149324   3.236   5.382   4.478  3.4992 -1.7004  1.1240
 9303TIP3    H249325   3.278   5.512   4.412 -1.4227 -0.7581 -0.6452
 9304TIP3   OH249326   0.595   4.688  11.656  0.1340  0.1911 -0.3075
 9304TIP3    H149327   0.543   4.756  11.700  0.6456  0.7246 -0.5066
 9304TIP3    H249328   0.560   4.606  11.690  0.1491  0.5713  0.6909
 9305TIP3   OH249329   1.664   2.767  14.732  0.4161  0.0171  0.3172
 9305TIP3    H149330   1.677   2.833  14.800  1.7250 -0.9437  1.0389
 9305TIP3    H249331   1.690   2.684  14.773  0.1151 -0.7551 -0.9883
 9306TIP3   OH249332   4.473   3.543   2.916  0.6735 -0.5820 -0.2681
 9306TIP3    H149333   4.404   3.552   2.850  0.2546  0.0724  0.2549
 9306TIP3    H249334   4.506   3.631   2.929  0.5077 -0.6455  0.6543
 9307TIP3   OH249335   2.915   0.488   5.529  0.4615  0.3397  0.5356
 9307TIP3    H149336   2.975   0.554   5.567  0.8033  1.3200 -1.5611
 9307TIP3    H249337   2.844   0.540   5.492  0.0314 -0.5962  0.0421
 9308TIP3   OH249338   5.813   4.088  10.690 -0.1128  0.2106  0.2931
 9308TIP3    H149339   5.769   4.135  10.760 -0.2187 -0.8495  0.9628
 9308TIP3    H249340   5.748   4.081  10.620  0.1169  1.6079 -0.0978
 9309TIP3   OH249341   0.726   0.349  12.216 -0.0195  0.5468  0.4849
 9309TIP3    H149342   0.813   0.334  12.178 -1.1736 -1.0856 -1.7692
 9309TIP3    H249343   0.713   0.444  12.208  0.2566  0.4496 -2.4629
 9310TIP3   OH249344   3.814   0.253   3.592 -0.2116 -0.3735 -0.4059
 9310TIP3    H149345   3.810   0.343   3.562  0.9576 -0.1551  0.0577
 9310TIP3    H249346   3.856   0.205   3.521 -1.2745 -0.6604 -0.8581
 9311TIP3   OH249347   6.500   6.303  12.143  0.0318  0.6873  0.3510
 9311TIP3    H149348   6.463   6.339  12.224 -1.9009  0.1588 -0.2213
 9311TIP3    H249349   6.424   6.268  12.097  1.4001 -1.1361 -0.6224
 9312TIP3   OH249350   6.753   2.161  12.582 -0.0469 -0.0039  0.6286
 9312TIP3    H149351   6.774   2.185  12.672 -0.3917  1.5370  0.3203
 9312TIP3    H249352   6.672   2.208  12.562 -0.0549 -0.4386 -0.4413
 9313TIP3   OH249353   3.528   5.202   2.467  0.5116  0.3016 -0.2041
 9313TIP3    H149354   3.496   5.137   2.529  2.9073 -0.1437  0.6439
 9313TIP3    H249355   3.558   5.151   2.392  1.2750  0.5041 -0.0465
 9314TIP3   OH249356   3.286   4.027  12.164  0.3121  0.0209  0.1804
 9314TIP3    H149357   3.357   3.969  12.136  0.5060 -0.3304  1.3262
 9314TIP3    H249358   3.323   4.115  12.156  0.6812 -0.1284  0.1996
 9315TIP3   OH249359   0.881   0.862   5.282  0.0728 -0.3379 -0.0699
 9315TIP3    H149360   0.849   0.772   5.280 -1.5651  0.2029  0.6605
 9315TIP3    H249361   0.910   0.874   5.372  3.3406 -1.0854 -0.8760
 9316TIP3   OH249362   6.375   1.590   3.341  0.3625 -0.2614  0.2791
 9316TIP3    H149363   6.296   1.549   3.305  0.9528  0.3259 -1.8601
 9316TIP3    H249364   6.343   1.649   3.409 -1.1225  0.4556 -0.9909
 9317TIP3   OH249365   2.030   2.098  14.549 -0.0860  0.3643 -0.1582
 9317TIP3    H149366   2.103   2.080  14.490 -0.8393 -1.3520 -0.6162
 9317TIP3    H249367   1.994   2.012  14.569 -0.8636  1.0507  1.5223
 9318TIP3   OH249368   5.384   5.836   0.279 -0.0069 -0.3677  0.3241
 9318TIP3    H149369   5.351   5.802   0.196 -0.2532 -0.1288  0.3248
 9318TIP3    H249370   5.430   5.917   0.256  0.1480 -0.4379  0.3862
 9319TIP3   OH249371   3.521   1.673   1.466  0.1015 -0.0539  0.1779
 9319TIP3    H149372   3.459   1.601   1.455 -1.4007  1.3386 -0.8555
 9319TIP3    H249373   3.502   1.707   1.554 -0.8537  0.5493 -0.2409
 9320TIP3   OH249374   5.717   3.509   0.151  0.1247 -0.1793 -0.0803
 9320TIP3    H149375   5.771   3.527   0.074  1.5845 -1.0291  0.7014
 9320TIP3    H249376   5.705   3.594   0.192  0.7598  0.0414 -0.3380
 9321TIP3   OH249377   1.542   5.965  12.278 -0.1165 -0.1086  0.1730
 9321TIP3    H149378   1.544   5.870  12.266 -1.5716 -0.0949 -0.3410
 9321TIP3    H249379   1.449   5.987  12.280  0.1986  1.4091 -0.5219
 9322TIP3   OH249380   0.437   0.598  12.389  0.2404 -0.4787  0.7633
 9322TIP3    H149381   0.422   0.546  12.309 -0.9074  0.4966  0.3003
 9322TIP3    H249382   0.381   0.675  12.377  1.5897  0.6738  1.6113
 9323TIP3   OH249383   1.112   6.410   0.180 -0.0366  0.1763 -0.2561
 9323TIP3    H149384   1.138   6.483   0.124  1.6404 -0.1133  0.0998
 9323TIP3    H249385   1.074   6.346   0.120 -1.2294  1.1788 -0.6131
 9324TIP3   OH249386   6.164   6.495  11.284  0.0665  0.3115  0.0894
 9324TIP3    H149387   6.178   6.454  11.199 -0.8893 -0.7861  0.4397
 9324TIP3    H249388   6.102   6.566  11.267  1.4784  1.4699 -0.4591
 9325TIP3   OH249389   0.172   4.332   2.206  0.3196 -0.1200  0.0144
 9325TIP3    H149390   0.092   4.385   2.197  1.2154  1.1763 -0.5774
 9325TIP3    H249391   0.187   4.296   2.119  0.2568 -0.5607  0.1828
 9326TIP3   OH249392   1.581   0.578   0.453  0.4521  0.0298  0.8840
 9326TIP3    H149393   1.492   0.547   0.432 -0.3113  1.5320  1.7554
 9326TIP3    H249394   1.595   0.550   0.544  1.3416 -1.1605  0.4106
 9327TIP3   OH249395   1.237   1.295   0.217 -0.0477 -0.0704 -0.6630
 9327TIP3    H149396   1.267   1.383   0.196 -0.4713  0.3760  0.5148
 9327TIP3    H249397   1.280   1.273   0.299 -1.3492 -0.2115  0.0156
 9328TIP3   OH249398   6.097   5.185  12.909  0.4328  0.6215 -0.4631
 9328TIP3    H149399   6.125   5.228  12.990 -0.8045  0.1207  0.2536
 9328TIP3    H249400   6.167   5.122  12.890  1.6774  2.0430 -0.8712
 9329TIP3   OH249401   1.884   5.198   3.367  0.0391  0.4102  0.2003
 9329TIP3    H149402   1.875   5.103   3.357 -3.0222  0.6015  0.2787
 9329TIP3    H249403   1.927   5.210   3.451  1.3925 -0.8656 -0.2619
 9330TIP3   OH249404   0.546   6.315   3.730 -0.0229  0.0037 -0.2210
 9330TIP3    H149405   0.640   6.307   3.719  0.1175  0.5127  0.5119
 9330TIP3    H249406   0.513   6.335   3.643  0.2701 -2.3417 -0.9529
 9331TIP3   OH249407   1.195   4.007  13.696  0.3877  0.1877 -0.6251
 9331TIP3    H149408   1.105   3.992  13.665 -0.5059  0.1227  1.7955
 9331TIP3    H249409   1.194   4.097  13.728  0.7797 -0.2619  0.6891
 9332TIP3   OH249410   0.111   3.769   3.729 -0.8225  0.2408 -0.4588
 9332TIP3    H149411   0.089   3.783   3.821 -0.1022  2.1611 -0.5353
 9332TIP3    H249412   0.176   3.699   3.730 -1.0430  0.0364  0.4597
 9333TIP3   OH249413   6.633   2.350  13.641 -0.2718  0.2717 -0.0081
 9333TIP3    H149414   6.587   2.429  13.613  0.1555  0.6937  0.4704
 9333TIP3    H249415   6.600   2.333  13.729 -0.0007  0.2005  0.0800
 9334TIP3   OH249416   6.225   1.395   1.713  0.0279 -0.2038 -0.3656
 9334TIP3    H149417   6.148   1.452   1.721 -1.6063 -2.4888  1.6135
 9334TIP3    H249418   6.195   1.323   1.657  2.1090  0.7906 -2.9802
 9335TIP3   OH249419   4.729   1.970  12.637  0.2994  0.4975 -0.1118
 9335TIP3    H149420   4.646   1.959  12.591 -1.5500  0.8225  2.9058
 9335TIP3    H249421   4.753   2.061  12.620 -0.4607  0.6771 -0.2611
 9336TIP3   OH249422   0.696   0.263   5.270 -0.1581  0.1698 -0.3346
 9336TIP3    H149423   0.672   0.262   5.177  0.8022  0.2253 -0.5958
 9336TIP3    H249424   0.791   0.268   5.270 -0.1956  1.1936  0.6709
 9337TIP3   OH249425   2.396   6.237  14.945 -0.2235 -0.4988  0.2777
 9337TIP3    H149426   2.430   6.148  14.949  2.2867  0.1665 -2.3910
 9337TIP3    H249427   2.327   6.233  14.879  1.3725 -0.2059 -1.5185
 9338TIP3   OH249428   1.351   4.784  13.067  0.8064 -0.3938  0.0569
 9338TIP3    H149429   1.369   4.787  12.973  0.8644 -0.7927  0.0515
 9338TIP3    H249430   1.343   4.876  13.093  0.2946 -0.2956 -0.4294
 9339TIP3   OH249431   2.221   4.843   2.937  0.3630 -0.1169  0.3244
 9339TIP3    H149432   2.262   4.772   2.985  0.8359 -0.0749 -0.0143
 9339TIP3    H249433   2.154   4.877   2.996 -0.6557 -1.5848  0.0600
 9340TIP3   OH249434   4.775   0.157  11.475  0.9837  0.6051  0.7921
 9340TIP3    H149435   4.780   0.172  11.569  1.0872  0.7175  0.7697
 9340TIP3    H249436   4.770   0.245  11.436  2.6031  0.6559  0.6073
 9341TIP3   OH249437   3.550   4.261  14.184  0.3613 -0.0658  0.2043
 9341TIP3    H149438   3.580   4.346  14.153 -1.2367 -0.1831 -1.9005
 9341TIP3    H249439   3.599   4.198  14.130 -0.4741 -0.3706 -0.2113
 9342TIP3   OH249440   3.312   3.445   3.227  0.0167  0.5663 -0.8909
 9342TIP3    H149441   3.237   3.426   3.170  0.4061  1.6291 -1.7756
 9342TIP3    H249442   3.314   3.371   3.288 -2.8124  1.3386  0.3071
 9343TIP3   OH249443   3.491   5.901  11.641 -0.1612 -0.3380  0.6760
 9343TIP3    H149444   3.465   5.992  11.655  0.2892 -0.4644  2.6343
 9343TIP3    H249445   3.410   5.851  11.652 -0.1652 -0.2759  0.9304
 9344TIP3   OH249446   2.058   1.388   1.641  0.6035  0.0324  0.6627
 9344TIP3    H149447   2.011   1.326   1.585  0.8600  0.2414  0.2098
 9344TIP3    H249448   2.094   1.335   1.712  0.2665 -0.2332  0.6340
 9345TIP3   OH249449   0.363   3.264   6.546  0.1137 -0.0432 -0.0007
 9345TIP3    H149450   0.352   3.357   6.524  0.8561  0.1636  0.4732
 9345TIP3    H249451   0.277   3.225   6.529 -0.7453  1.0818  1.5081
 9346TIP3   OH249452   0.755   2.826  13.055  0.1353  0.2346  0.1121
 9346TIP3    H149453   0.670   2.870  13.052 -1.1599 -1.9847  1.6051
 9346TIP3    H249454   0.764   2.797  13.145  2.0866 -0.3975 -0.2356
 9347TIP3   OH249455   4.005   1.933   4.216  0.3550  0.1437  0.2811
 9347TIP3    H149456   4.021   2.022   4.248  1.4692  0.2141 -0.3995
 9347TIP3    H249457   4.014   1.877   4.293  1.3171  0.4694  0.4223
 9348TIP3   OH249458   4.106   1.694  11.996  0.0115 -0.2202 -0.0706
 9348TIP3    H149459   4.121   1.603  12.021 -0.3111 -0.4106 -0.5443
 9348TIP3    H249460   4.069   1.735  12.074 -1.6633 -0.9806 -0.4078
 9349TIP3   OH249461   0.350   1.149  16.784  0.7407 -0.6537 -0.0611
 9349TIP3    H149462   0.372   1.241  16.801  0.8902 -0.7990  0.5552
 9349TIP3    H249463   0.433   1.109  16.760  0.6016 -0.5403 -0.7549
 9350TIP3   OH249464   6.241   4.983  16.886  0.2398 -0.3098 -0.8023
 9350TIP3    H149465   6.165   5.027  16.924  0.8159 -0.2248  0.3294
 9350TIP3    H249466   6.211   4.895  16.866  0.4170 -1.1234  2.0129
 9351TIP3   OH249467   6.738   2.614   3.573 -0.2541 -0.4656  0.3461
 9351TIP3    H149468   6.722   2.553   3.502  2.4848 -1.0423  0.1025
 9351TIP3    H249469   6.808   2.573   3.625  1.9402  2.4720  0.0043
 9352TIP3   OH249470   0.049   2.709   2.114  0.3753  0.0618  0.1100
 9352TIP3    H149471   0.016   2.780   2.058 -0.8720  0.3695  1.1795
 9352TIP3    H249472   0.046   2.631   2.059 -2.7851 -0.0505  0.2776
 9353TIP3   OH249473   5.226   3.307   1.682 -0.1347 -1.0957 -0.9413
 9353TIP3    H149474   5.263   3.324   1.596  1.3836 -2.1189 -0.5323
 9353TIP3    H249475   5.302   3.297   1.740 -1.1221  0.5008  0.7371
 9354TIP3   OH249476   5.197   2.553  13.105 -0.1192  0.1012 -0.2528
 9354TIP3    H149477   5.288   2.574  13.084 -0.3099  1.7092  0.4239
 9354TIP3    H249478   5.150   2.636  13.093 -0.7837  0.4132  3.3779
 9355TIP3   OH249479   0.110   0.055   3.063 -0.7874  0.2646  0.2730
 9355TIP3    H149480   0.168   0.131   3.068  0.4070 -0.5900 -0.0717
 9355TIP3    H249481   0.106   0.022   3.153  3.3198 -2.5038 -0.2268
 9356TIP3   OH249482   5.139   3.835   1.128 -0.0435  0.2077 -0.3507
 9356TIP3    H149483   5.112   3.838   1.037 -2.4230 -1.9052  0.1569
 9356TIP3    H249484   5.193   3.756   1.134  1.2627  1.0985 -0.1709
 9357TIP3   OH249485   4.098   5.352   1.788  0.1395 -0.1549 -0.2745
 9357TIP3    H149486   4.038   5.320   1.721  1.3789 -2.0401 -0.5706
 9357TIP3    H249487   4.055   5.331   1.871 -1.8419  3.0426 -0.3407
 9358TIP3   OH249488   0.765   1.473  16.921 -0.0734  0.1186  0.2421
 9358TIP3    H149489   0.724   1.442  17.001  0.3969 -2.0529 -0.2982
 9358TIP3    H249490   0.858   1.481  16.943 -0.2860  2.0240  0.5938
 9359TIP3   OH249491   3.509   3.093   4.281  0.0280  0.8532  0.4544
 9359TIP3    H149492   3.429   3.077   4.232  0.7533 -1.5434 -0.0764
 9359TIP3    H249493   3.573   3.121   4.215  0.9301 -2.1188 -0.1071
 9360TIP3   OH249494   3.134   6.094   4.717 -0.1031 -0.8430  0.4372
 9360TIP3    H149495   3.096   6.114   4.802 -1.1284 -1.2099  0.0899
 9360TIP3    H249496   3.070   6.037   4.675  0.9219 -1.6132 -0.1335
 9361TIP3   OH249497   0.900   0.268   1.791 -0.4023 -0.1644 -0.0763
 9361TIP3    H149498   0.996   0.274   1.794 -0.4330  0.5163 -0.4036
 9361TIP3    H249499   0.883   0.185   1.745  0.0265 -0.2666 -0.0578
 9362TIP3   OH249500   5.857   2.569   6.253  0.4564 -0.4222  1.0983
 9362TIP3    H149501   5.787   2.580   6.187  0.9824  1.6310  0.8053
 9362TIP3    H249502   5.840   2.638   6.317  0.5597 -1.7452  2.6258
 9363TIP3   OH249503   0.280   0.997  10.291 -0.3661 -0.2951 -0.2543
 9363TIP3    H149504   0.309   0.929  10.230  0.7711  0.3428 -0.4517
 9363TIP3    H249505   0.356   1.012  10.348 -0.9139  0.1634  0.3737
 9364TIP3   OH249506   2.787   4.385  16.710 -0.3869  0.2541  0.2628
 9364TIP3    H149507   2.815   4.329  16.637 -0.2373 -0.3761  0.7957
 9364TIP3    H249508   2.701   4.417  16.683  0.5279  1.6796 -1.0918
 9365TIP3   OH249509   0.602   0.913   1.160 -0.3669 -0.2574 -0.4566
 9365TIP3    H149510   0.658   0.990   1.150 -0.8206 -0.0934 -1.9196
 9365TIP3    H249511   0.656   0.840   1.129 -1.0204 -0.0534 -2.1984
 9366TIP3   OH249512   1.856   0.759  10.229 -0.3046  0.5714  0.0685
 9366TIP3    H149513   1.867   0.840  10.279 -2.1187  0.8002  0.1429
 9366TIP3    H249514   1.765   0.733  10.243  0.7639 -2.8288  2.0372
 9367TIP3   OH249515   2.234   4.432  14.780  0.6700  0.1824 -0.1515
 9367TIP3    H149516   2.221   4.461  14.690  0.7828 -1.1180 -0.6082
 9367TIP3    H249517   2.297   4.494  14.817  2.4862 -0.6452 -1.7037
 9368TIP3   OH249518   0.315   3.904  14.268 -0.0397  0.3342  0.6125
 9368TIP3    H149519   0.270   3.906  14.352  2.6491  2.5950  2.1899
 9368TIP3    H249520   0.408   3.900  14.291  0.8102  1.3284 -2.2443
 9369TIP3   OH249521   1.188   5.268   2.862 -0.0686 -0.3204  0.1073
 9369TIP3    H149522   1.161   5.299   2.948 -0.6961 -2.0436  0.5577
 9369TIP3    H249523   1.130   5.313   2.801 -0.8072 -0.4341  0.7188
 9370TIP3   OH249524   5.485   5.194  17.143  0.5430  0.1107  0.6691
 9370TIP3    H149525   5.449   5.108  17.120  0.1981  0.4875 -0.2649
 9370TIP3    H249526   5.409   5.246  17.169  0.5923  0.4694  0.1173
 9371TIP3   OH249527   3.257   0.585   4.425  0.3525  0.4010 -0.2072
 9371TIP3    H149528   3.259   0.679   4.444 -0.6668  0.5453 -0.7557
 9371TIP3    H249529   3.340   0.552   4.458  1.9925  1.9795 -2.4234
 9372TIP3   OH249530   4.454   3.648   0.300 -0.1076 -0.2176 -0.5082
 9372TIP3    H149531   4.417   3.660   0.387  0.6282  0.4718 -0.2782
 9372TIP3    H249532   4.410   3.570   0.266 -1.4391  0.3218 -0.0879
 9373TIP3   OH249533   3.513   4.964   3.651 -0.4638  0.4173 -0.0507
 9373TIP3    H149534   3.520   4.872   3.677 -1.9744 -0.1079 -1.3011
 9373TIP3    H249535   3.487   4.961   3.559 -1.3324  2.0723  0.0979
 9374TIP3   OH249536   0.823   1.658  15.012 -0.4825  0.5427 -0.4811
 9374TIP3    H149537   0.838   1.566  15.031 -0.1925  0.5753 -0.5447
 9374TIP3    H249538   0.876   1.704  15.077  0.5970  0.6588 -1.4127
 9375TIP3   OH249539   2.964   2.426  10.684 -0.3048  0.0793  0.0869
 9375TIP3    H149540   3.046   2.377  10.679 -0.2563 -0.0757  1.9120
 9375TIP3    H249541   2.919   2.405  10.602  2.0601  1.2788 -1.6526
 9376TIP3   OH249542   1.428   3.048   5.984 -0.2576 -0.0883  0.2158
 9376TIP3    H149543   1.500   2.995   6.018  0.0714 -0.3823 -0.8880
 9376TIP3    H249544   1.353   3.024   6.037 -0.2745 -2.1540 -0.6514
 9377TIP3   OH249545   0.164   2.343   0.340 -0.4241  0.2420  0.2910
 9377TIP3    H149546   0.071   2.348   0.316 -0.6854 -0.6505  1.0075
 9377TIP3    H249547   0.204   2.419   0.300 -1.7471  1.4349  1.1425
 9378TIP3   OH249548   2.032   2.032   4.878 -0.4904  0.3089 -0.3710
 9378TIP3    H149549   2.016   2.125   4.894  0.5321  0.5739 -0.7554
 9378TIP3    H249550   2.074   2.030   4.792  0.4114 -0.4049  0.0688
 9379TIP3   OH249551   0.151   1.044   2.983 -0.0840 -0.8598 -0.3642
 9379TIP3    H149552   0.231   1.069   3.028 -1.3394  1.7787  0.6237
 9379TIP3    H249553   0.116   0.971   3.035  0.5738 -0.6033  0.4585
 9380TIP3   OH249554   6.198   1.570  11.807  0.2176 -0.1012 -0.0464
 9380TIP3    H149555   6.263   1.621  11.855 -0.5105 -0.2284  1.1227
 9380TIP3    H249556   6.197   1.485  11.851  1.5748 -1.2696 -2.0955
 9381TIP3   OH249557   3.401   3.317   2.479  0.1038  0.1294 -0.1913
 9381TIP3    H149558   3.414   3.239   2.535 -0.8166  1.0714  1.4090
 9381TIP3    H249559   3.418   3.285   2.390  0.8258 -1.6409  0.5232
 9382TIP3   OH249560   4.961   5.627  15.873 -0.2723 -0.0950  0.0091
 9382TIP3    H149561   4.939   5.591  15.787  0.4285 -1.4050  0.3491
 9382TIP3    H249562   4.988   5.717  15.855 -0.3529 -0.2782 -1.1077
 9383TIP3   OH249563   2.409   6.113  11.459  0.5524  0.4862 -0.0423
 9383TIP3    H149564   2.313   6.118  11.461  0.5496  1.3699 -0.9633
 9383TIP3    H249565   2.435   6.195  11.416  1.8147  1.0746  1.7450
 9384TIP3   OH249566   4.840   6.287   5.059  0.6244 -0.0143 -0.0560
 9384TIP3    H149567   4.900   6.272   4.985  0.9409 -1.3121  0.4380
 9384TIP3    H249568   4.802   6.201   5.076 -2.6415  1.0116 -1.3720
 9385TIP3   OH249569   3.637   5.624   2.611  0.9822 -0.0800 -0.2480
 9385TIP3    H149570   3.662   5.665   2.694 -1.5830  1.9989 -0.3724
 9385TIP3    H249571   3.668   5.685   2.544  0.2076 -0.0966 -0.6267
 9386TIP3   OH249572   6.234   1.900   4.153 -0.0641 -0.0407 -0.1599
 9386TIP3    H149573   6.239   1.971   4.216 -2.2811  0.7994 -0.8406
 9386TIP3    H249574   6.251   1.941   4.068 -1.8246 -0.1722 -0.6123
 9387TIP3   OH249575   2.345   0.163   0.641  0.6172 -0.0117  0.2262
 9387TIP3    H149576   2.344   0.101   0.568 -1.9008 -0.1871  0.3122
 9387TIP3    H249577   2.393   0.238   0.607  0.6821 -0.6299 -1.1359
 9388TIP3   OH249578   4.190   2.199   1.146 -0.3980  0.5664  0.2336
 9388TIP3    H149579   4.111   2.187   1.198  0.0656 -0.7811  0.6691
 9388TIP3    H249580   4.217   2.110   1.122  1.0068  0.9952  0.1174
 9389TIP3   OH249581   2.794   0.849  17.164  0.3744 -0.2793  0.0878
 9389TIP3    H149582   2.872   0.905  17.164 -1.1092  1.9416  0.0829
 9389TIP3    H249583   2.755   0.864  17.250 -0.9913  0.1165 -0.5790
 9390TIP3   OH249584   5.757   4.885  14.988  0.0312  0.0859 -0.6681
 9390TIP3    H149585   5.670   4.845  14.983 -0.4247  0.8588  0.5052
 9390TIP3    H249586   5.818   4.813  14.975 -0.7768 -0.4098 -1.8977
 9391TIP3   OH249587   3.129   3.231   0.010 -0.1370  0.0279 -0.4479
 9391TIP3    H149588   3.080   3.157   0.046  2.1500 -1.6099 -0.4981
 9391TIP3    H249589   3.104   3.305   0.066 -3.7522 -0.2626 -1.4071
 9392TIP3   OH249590   1.679   0.123  15.914 -0.1262  0.0789 -0.0894
 9392TIP3    H149591   1.646   0.213  15.910 -0.9700 -0.1765  0.8011
 9392TIP3    H249592   1.605   0.069  15.885  0.2143 -0.3703 -0.1409
 9393TIP3   OH249593   0.611   6.368  10.312 -0.1066  0.2044 -0.3482
 9393TIP3    H149594   0.680   6.319  10.267  2.5666  2.1638  1.3682
 9393TIP3    H249595   0.575   6.307  10.376  2.0746 -0.0398  0.6971
 9394TIP3   OH249596   3.215   5.981  13.823 -0.3860 -0.6157 -0.5014
 9394TIP3    H149597   3.251   5.959  13.737  2.5216 -1.3952  0.7555
 9394TIP3    H249598   3.263   5.924  13.883  1.3838  3.1958  2.1247
 9395TIP3   OH249599   3.884   4.067  11.428 -0.2461 -0.7566 -0.4856
 9395TIP3    H149600   3.976   4.073  11.400 -0.7255  1.0469 -1.9018
 9395TIP3    H249601   3.884   4.098  11.518  0.4037  0.3222 -0.8442
 9396TIP3   OH249602   4.544   3.504  12.003 -0.4480 -0.3010  0.9514
 9396TIP3    H149603   4.629   3.466  11.980 -0.7486  0.3775 -1.6313
 9396TIP3    H249604   4.562   3.558  12.080  0.9102 -1.9953  1.9162
 9397TIP3   OH249605   4.281   3.235  16.040 -0.1854  0.0155 -0.3697
 9397TIP3    H149606   4.229   3.160  16.070 -0.4868  0.7637  1.0591
 9397TIP3    H249607   4.370   3.215  16.070 -0.1535 -0.0597 -0.5186
 9398TIP3   OH249608   0.457   2.334   5.881  0.1918  0.3016 -0.0028
 9398TIP3    H149609   0.463   2.392   5.957  0.2642  2.4760 -1.5845
 9398TIP3    H249610   0.392   2.269   5.906 -1.1365  2.0306  1.2827
 9399TIP3   OH249611   3.552   5.221   4.531  0.3510 -0.3506 -0.4622
 9399TIP3    H149612   3.595   5.213   4.446  1.3070  0.0424 -0.0331
 9399TIP3    H249613   3.623   5.241   4.592 -0.6099  1.8217  0.0429
 9400TIP3   OH249614   4.562   3.256  16.125  0.1124 -0.1283  0.3085
 9400TIP3    H149615   4.648   3.258  16.082  0.8566 -4.8377  0.9820
 9400TIP3    H249616   4.582   3.254  16.218 -0.8442  0.4101  0.5289
 9401TIP3   OH249617   0.586   5.610   5.083 -0.2198 -0.3729  0.1987
 9401TIP3    H149618   0.612   5.630   5.173 -1.1671  0.2172  0.3612
 9401TIP3    H249619   0.506   5.662   5.069 -0.2432 -0.6683 -0.8898
 9402TIP3   OH249620   5.633   5.236  15.736 -0.3297  0.3680 -0.8934
 9402TIP3    H149621   5.561   5.176  15.754  0.2350  0.3329  1.5374
 9402TIP3    H249622   5.712   5.185  15.753  0.1945  1.3296 -0.3506
 9403TIP3   OH249623   0.089   5.348   1.816 -0.3172  0.4632  0.2672
 9403TIP3    H149624   0.162   5.288   1.798 -0.1623  0.6651  0.2119
 9403TIP3    H249625   0.093   5.411   1.744 -0.7654  0.2710  0.0702
 9404TIP3   OH249626   3.552   2.241  15.949 -0.5049 -0.3568 -0.2519
 9404TIP3    H149627   3.477   2.204  15.995 -1.5286  0.4733 -1.2000
 9404TIP3    H249628   3.523   2.248  15.858  0.6360  0.2014 -0.5855
 9405TIP3   OH249629   4.236   2.008  15.190  0.6889  0.4116 -0.0887
 9405TIP3    H149630   4.185   1.929  15.205  0.3197  0.4685 -0.9775
 9405TIP3    H249631   4.323   1.975  15.166  0.2040  0.2089 -1.7170
 9406TIP3   OH249632   0.712   5.011  16.644  1.0038 -0.6705 -1.0135
 9406TIP3    H149633   0.785   5.057  16.601 -1.0649  1.6269 -2.3126
 9406TIP3    H249634   0.645   5.078  16.654 -0.9017 -2.6716  0.2820
 9407TIP3   OH249635   3.635   4.190  15.627 -0.3214  0.0315 -0.0009
 9407TIP3    H149636   3.610   4.197  15.535 -1.8436 -2.5779  0.1245
 9407TIP3    H249637   3.701   4.259  15.639  0.7760 -0.2635 -3.2995
 9408TIP3   OH249638   5.336   6.190   4.865 -0.5745  0.5281  0.1645
 9408TIP3    H149639   5.301   6.178   4.777  1.9164  1.8187 -1.1286
 9408TIP3    H249640   5.376   6.278   4.863 -0.3120  0.5296  2.5388
 9409TIP3   OH249641   2.558   4.069  15.128  0.3649 -0.1093 -0.2666
 9409TIP3    H149642   2.533   4.135  15.064 -1.5337 -0.0988  0.4139
 9409TIP3    H249643   2.621   4.113  15.185 -1.3578  1.3888  0.5832
 9410TIP3   OH249644   1.313   6.290  14.844 -0.2131 -0.1258 -0.1745
 9410TIP3    H149645   1.254   6.215  14.851 -1.9089  1.1542 -0.0754
 9410TIP3    H249646   1.364   6.274  14.765 -1.2621 -0.8894 -0.7146
 9411TIP3   OH249647   2.908   0.771  16.018  0.2057 -0.5637 -0.0021
 9411TIP3    H149648   2.892   0.838  15.951  1.6025 -1.2131 -1.0383
 9411TIP3    H249649   2.860   0.802  16.095 -0.2253  0.9701 -0.8484
 9412TIP3   OH249650   1.929   5.005   5.126  0.7537 -0.1060 -0.4518
 9412TIP3    H149651   1.965   4.936   5.181  0.5101 -0.2938 -0.5311
 9412TIP3    H249652   2.000   5.027   5.065  1.4485  0.9076  0.6675
 9413TIP3   OH249653   4.653   3.072  14.130 -0.1447  0.0011  0.1775
 9413TIP3    H149654   4.666   2.977  14.139 -2.3428 -0.4059 -0.4046
 9413TIP3    H249655   4.634   3.102  14.219  1.7109  0.1308  0.5590
 9414TIP3   OH249656   4.285   2.657   3.706 -0.4873 -0.6198 -0.6840
 9414TIP3    H149657   4.211   2.633   3.763 -0.8866 -1.5090 -1.5427
 9414TIP3    H249658   4.360   2.664   3.765 -1.1661 -0.1250  0.1451
 9415TIP3   OH249659   1.232   4.813   4.863  0.4174 -0.2487 -0.0619
 9415TIP3    H149660   1.318   4.788   4.830  1.1746  2.0422  0.0043
 9415TIP3    H249661   1.200   4.735   4.907  1.2675 -2.0315 -2.3813
 9416TIP3   OH249662   3.876   6.175  14.609 -0.5470 -0.5968 -0.6304
 9416TIP3    H149663   3.879   6.081  14.623 -0.8913 -0.7959 -1.7841
 9416TIP3    H249664   3.918   6.189  14.524  0.4850  0.4216  0.0135
 9417TIP3   OH249665   3.734   0.479  15.145  0.1772  0.3996  0.0286
 9417TIP3    H149666   3.791   0.441  15.078 -1.1072  0.1702 -0.9750
 9417TIP3    H249667   3.714   0.406  15.203 -2.8016 -0.7966 -2.2478
 9418TIP3   OH249668   0.630   0.361  17.225 -0.0351 -0.0037 -0.1997
 9418TIP3    H149669   0.589   0.400  17.303 -1.5246 -0.0912 -0.9209
 9418TIP3    H249670   0.591   0.408  17.151 -0.3812 -1.4984 -0.9990
 9419TIP3   OH249671   2.089   2.276  15.684  0.1357 -0.0736  0.4401
 9419TIP3    H149672   2.111   2.294  15.592 -0.7800 -1.3009 -0.0398
 9419TIP3    H249673   1.996   2.251  15.682  0.6781 -2.4082  1.3503
 9420TIP3   OH249674   0.800   2.836   3.639 -0.0175  0.8078  0.0955
 9420TIP3    H149675   0.811   2.788   3.721  2.1523  2.7229  1.0251
 9420TIP3    H249676   0.857   2.791   3.577 -1.5324 -0.5398 -0.3984
 9421TIP3   OH249677   4.618   5.674  14.604  0.3107 -0.5066 -0.4243
 9421TIP3    H149678   4.631   5.769  14.606  2.5210 -0.7680 -0.1663
 9421TIP3    H249679   4.525   5.662  14.625  0.1506  1.5529  0.2364
 9422TIP3   OH249680   0.818   0.365  15.357 -0.1337  0.3747 -0.0270
 9422TIP3    H149681   0.906   0.401  15.349  1.1835 -2.1475  1.7741
 9422TIP3    H249682   0.792   0.384  15.447 -0.2282 -1.2672  0.3239
 9423TIP3   OH249683   1.507   5.117   5.917  0.4999 -0.5971  0.6803
 9423TIP3    H149684   1.526   5.058   5.989 -1.9571  0.1077  2.0260
 9423TIP3    H249685   1.472   5.196   5.959 -1.2393 -0.2419 -1.2360
 9424TIP3   OH249686   2.548   5.151   5.358 -0.7500  0.4729 -0.0364
 9424TIP3    H149687   2.556   5.175   5.450 -0.6321  0.5170 -0.0571
 9424TIP3    H249688   2.584   5.062   5.354 -1.0045  0.3680  0.0070
 9425TIP3   OH249689   1.189   6.001  13.902 -0.6343 -0.1024  0.0487
 9425TIP3    H149690   1.271   5.968  13.864  0.4146  0.3927  1.7849
 9425TIP3    H249691   1.213   6.084  13.942 -2.4411  1.0103 -1.0541
 9426TIP3   OH249692   4.938   6.080  13.187  0.5301 -0.5678  0.1023
 9426TIP3    H149693   4.847   6.075  13.159  0.8629 -0.7230 -0.9811
 9426TIP3    H249694   4.934   6.073  13.283 -0.7974  2.0132  0.3261
 9427TIP3   OH249695   0.386   1.961  11.409 -0.3847 -0.0785  0.1503
 9427TIP3    H149696   0.398   1.885  11.466  1.3314 -0.0281 -0.0990
 9427TIP3    H249697   0.347   2.028  11.465  0.2113 -0.4033  0.9600
 9428TIP3   OH249698   1.480   5.563  14.249  0.2606  0.1919  0.2371
 9428TIP3    H149699   1.574   5.550  14.255  0.2520 -0.1217 -0.2828
 9428TIP3    H249700   1.460   5.625  14.319  0.5851 -1.1335  1.5391
 9429TIP3   OH249701   0.176   1.961   2.698  0.5098  0.5419 -0.5688
 9429TIP3    H149702   0.212   1.919   2.776  0.2884  0.0446 -0.7250
 9429TIP3    H249703   0.141   2.044   2.729  0.0204  0.1509 -0.0500
 9430TIP3   OH249704   5.335   3.555   1.507 -0.7233 -0.0042 -0.6279
 9430TIP3    H149705   5.258   3.512   1.472 -1.0173  0.6578 -0.8204
 9430TIP3    H249706   5.326   3.647   1.479 -0.1488  0.1950 -0.1850
 9431TIP3   OH249707   3.589   2.522   3.065 -0.1675  0.2133 -0.4797
 9431TIP3    H149708   3.561   2.469   3.140  0.2961  1.0604  0.3228
 9431TIP3    H249709   3.630   2.459   3.005  3.9995 -0.0017  2.1661
 9432TIP3   OH249710   0.602   5.233   4.365 -0.4606 -0.7242  0.0610
 9432TIP3    H149711   0.547   5.310   4.380 -0.7482 -0.9892  0.3782
 9432TIP3    H249712   0.688   5.259   4.398 -0.0409  0.1609 -1.6262
 9433TIP3   OH249713   6.649   4.659   0.457  0.1109  0.5707  0.2954
 9433TIP3    H149714   6.701   4.708   0.521  0.2980 -0.0055  0.5857
 9433TIP3    H249715   6.595   4.726   0.414  0.9110  1.1445  0.1563
 9434TIP3   OH249716   3.360   0.799  12.839 -0.4563  0.4501  0.2703
 9434TIP3    H149717   3.429   0.791  12.906 -0.3800 -0.9957  0.0559
 9434TIP3    H249718   3.360   0.891  12.815  0.2410  0.7909  1.5093
 9435TIP3   OH249719   0.984   3.165   2.636  0.0130 -0.7462 -0.1505
 9435TIP3    H149720   0.956   3.085   2.680  1.3960 -1.2270 -0.0791
 9435TIP3    H249721   1.057   3.197   2.690  0.3018 -0.1455 -0.8760
 9436TIP3   OH249722   5.179   5.420  14.585 -0.6996 -0.1730 -0.3564
 9436TIP3    H149723   5.117   5.441  14.655 -0.3873  0.6440 -0.3140
 9436TIP3    H249724   5.133   5.444  14.504 -0.4607  0.4066 -0.3265
 9437TIP3   OH249725   2.920   6.732  14.706  0.2982  0.0882 -0.0386
 9437TIP3    H149726   2.886   6.724  14.617 -0.6562  0.5951  0.2810
 9437TIP3    H249727   2.870   6.803  14.746  0.3339 -0.4894  1.0792
 9438TIP3   OH249728   2.277   4.115  13.713 -0.3454 -0.1813  0.6632
 9438TIP3    H149729   2.246   4.158  13.793  1.9804  1.0826  0.9533
 9438TIP3    H249730   2.372   4.126  13.715 -0.1763 -0.5919 -2.0165
 9439TIP3   OH249731   2.091   4.696   2.287  0.4789  0.5410  0.3358
 9439TIP3    H149732   2.001   4.726   2.298  1.1576  3.4308 -0.9443
 9439TIP3    H249733   2.089   4.641   2.208 -0.4901 -1.4119  1.6511
 9440TIP3   OH249734   1.034   5.494   6.232 -0.0298  0.4316  0.2690
 9440TIP3    H149735   0.956   5.443   6.254  0.8761 -1.7722 -1.2373
 9440TIP3    H249736   1.016   5.528   6.144  1.4263 -1.9054 -1.0428
 9441TIP3   OH249737   4.096   3.248   3.393  0.4075  0.0803  0.4153
 9441TIP3    H149738   4.080   3.163   3.353 -1.6782  0.0411  1.1963
 9441TIP3    H249739   4.022   3.302   3.365  1.1957  1.3432  0.6932
 9442TIP3   OH249740   5.879   2.388  10.920  0.2841 -0.5377 -0.3363
 9442TIP3    H149741   5.946   2.319  10.927  1.7370  0.5984 -2.1679
 9442TIP3    H249742   5.876   2.408  10.827 -0.2139  1.7638  0.1321
 9443TIP3   OH249743   3.564   2.478   5.383  0.1255  0.2697  0.6153
 9443TIP3    H149744   3.481   2.494   5.337 -0.0300 -1.2422  0.3080
 9443TIP3    H249745   3.544   2.407   5.444  1.6365 -1.6130 -0.9266
 9444TIP3   OH249746   1.381   2.029   3.369  0.2995  0.0317  0.0745
 9444TIP3    H149747   1.423   1.964   3.426  2.5138 -0.0737 -1.5668
 9444TIP3    H249748   1.353   1.979   3.293  1.0913  0.8195 -0.7451
 9445TIP3   OH249749   5.299   5.782  14.652  0.3488 -0.7781 -0.0412
 9445TIP3    H149750   5.252   5.699  14.656 -0.9242 -0.0306  2.3602
 9445TIP3    H249751   5.321   5.793  14.559 -2.9312 -1.8818 -1.0934
 9446TIP3   OH249752   3.385   0.936  17.121  0.2802 -0.0291 -0.5791
 9446TIP3    H149753   3.446   0.996  17.079  1.3793 -1.1513 -0.6239
 9446TIP3    H249754   3.410   0.849  17.089 -1.8724 -0.4566 -1.2610
 9447TIP3   OH249755   3.190   5.678   5.384  0.0362  0.2070 -0.1130
 9447TIP3    H149756   3.233   5.686   5.469 -0.4523  0.6431  0.0986
 9447TIP3    H249757   3.262   5.670   5.322  0.3967 -0.1101  0.3372
 9448TIP3   OH249758   5.841   2.845  12.165  0.1174  0.1455 -1.2367
 9448TIP3    H149759   5.903   2.910  12.134  0.0719  1.1640  0.6487
 9448TIP3    H249760   5.815   2.876  12.252  2.1580 -3.7029  1.0522
 9449TIP3   OH249761   0.578   5.908   5.821  0.0449  0.0271 -0.2626
 9449TIP3    H149762   0.487   5.936   5.820  0.0563  0.2127  1.3645
 9449TIP3    H249763   0.605   5.915   5.913  1.6033 -0.3315 -0.6557
 9450TIP3   OH249764   1.579   5.157  16.934 -0.6872 -0.3021  0.2434
 9450TIP3    H149765   1.649   5.134  16.873 -0.2029  0.8171  0.3448
 9450TIP3    H249766   1.566   5.079  16.988 -0.6650 -1.0774 -0.8531
 9451TIP3   OH249767   6.488   5.070   1.413  0.0397 -0.6307 -0.2539
 9451TIP3    H149768   6.489   5.016   1.493 -0.6277 -3.1349 -1.8091
 9451TIP3    H249769   6.410   5.125   1.422  1.2275  0.8694  1.7955
 9452TIP3   OH249770   5.493   3.340  17.168  0.0544  0.6613  0.3477
 9452TIP3    H149771   5.546   3.372  17.094 -1.1768  1.1867 -0.3405
 9452TIP3    H249772   5.543   3.366  17.246  1.3633  0.1321 -0.2827
 9453TIP3   OH249773   2.008   6.133   4.718 -0.1366  0.0976 -0.1756
 9453TIP3    H149774   1.954   6.196   4.766 -2.3204 -2.6025  1.1956
 9453TIP3    H249775   1.989   6.151   4.626 -0.3473  1.6963  0.1491
 9454TIP3   OH249776   0.939   0.704  14.183  0.0860 -0.2760 -0.1134
 9454TIP3    H149777   0.972   0.698  14.273  1.8338  1.5122 -0.5642
 9454TIP3    H249778   0.846   0.727  14.193  0.5652  1.2820  1.2903
 9455TIP3   OH249779   4.126   5.598  15.493  0.3938 -0.4336  0.1562
 9455TIP3    H149780   4.056   5.570  15.552  0.0216  0.3170  0.0809
 9455TIP3    H249781   4.155   5.517  15.451  0.8501 -1.0212  1.5578
 9456TIP3   OH249782   5.613   6.134   0.751  0.1871  0.2595 -0.0494
 9456TIP3    H149783   5.643   6.217   0.787 -2.2117  1.1036  0.1927
 9456TIP3    H249784   5.535   6.111   0.803 -0.0926 -1.3580 -1.0911
 9457TIP3   OH249785   1.140   2.709  16.721  0.2852 -0.6774 -0.3875
 9457TIP3    H149786   1.207   2.672  16.663 -0.6444 -1.1142 -1.2043
 9457TIP3    H249787   1.160   2.671  16.807  1.0921 -0.7927 -0.6172
 9458TIP3   OH249788   0.525   5.217  16.564  0.0298 -0.1881  0.7539
 9458TIP3    H149789   0.529   5.254  16.652 -0.2934  2.6628 -0.3208
 9458TIP3    H249790   0.440   5.243  16.531  0.8942  0.5128 -1.0607
 9459TIP3   OH249791   4.790   0.280  12.158 -0.0355  0.3462 -0.3507
 9459TIP3    H149792   4.799   0.345  12.088  1.4503 -0.3478 -0.8357
 9459TIP3    H249793   4.706   0.238  12.140 -0.1583  0.8826 -1.0971
 9460TIP3   OH249794   3.783   4.471   5.206 -0.2994 -0.0471  0.2283
 9460TIP3    H149795   3.875   4.446   5.197 -0.0928  0.8355 -0.1994
 9460TIP3    H249796   3.770   4.484   5.300 -0.1873 -0.8899  0.3673
 9461TIP3   OH249797   2.193   3.856  13.141 -0.3463 -0.3524  0.2503
 9461TIP3    H149798   2.211   3.786  13.204 -0.7659 -1.4294 -0.7863
 9461TIP3    H249799   2.255   3.925  13.164  0.8765 -1.5169  0.6044
 9462TIP3   OH249800   4.122   3.414   4.232 -0.1735  0.0059 -0.3726
 9462TIP3    H149801   4.145   3.503   4.206  1.3298 -0.5241 -0.9754
 9462TIP3    H249802   4.079   3.424   4.318  1.4325  1.1809  0.3442
 9463TIP3   OH249803   0.219   5.484  12.448 -0.3221 -0.5389  0.2769
 9463TIP3    H149804   0.162   5.523  12.514  1.2916  1.5255  0.5877
 9463TIP3    H249805   0.160   5.437  12.389 -2.6460  2.8971 -0.4334
 9464TIP3   OH249806   0.065   5.565  13.875 -0.3307  0.3764 -0.6705
 9464TIP3    H149807   0.002   5.530  13.938  0.6142 -0.1454  0.0114
 9464TIP3    H249808   0.092   5.489  13.823  0.6461  0.3559 -0.1478
 9465TIP3   OH249809   0.342   1.269  17.138 -0.7236 -0.1565 -0.1018
 9465TIP3    H149810   0.283   1.217  17.084 -0.2944 -0.4020 -0.3347
 9465TIP3    H249811   0.403   1.205  17.176 -1.4199 -0.0753  1.1966
 9466TIP3   OH249812   6.161   4.918   2.667 -0.1398  0.2615  0.1800
 9466TIP3    H149813   6.134   4.937   2.757  1.2713  0.0796  0.6664
 9466TIP3    H249814   6.101   4.970   2.613 -0.3756  1.1526  1.2519
 9467TIP3   OH249815   5.996   3.861  16.041 -1.0374  0.1995  0.3342
 9467TIP3    H149816   5.990   3.891  15.950  1.7145 -1.2132 -0.4176
 9467TIP3    H249817   6.051   3.926  16.083  0.0227 -0.6167  0.2328
 9468TIP3   OH249818   3.170   2.203   4.676  0.7570 -0.1780  0.4088
 9468TIP3    H149819   3.210   2.265   4.737  2.1388 -1.5860  1.0053
 9468TIP3    H249820   3.240   2.182   4.615 -0.2521  0.2469 -0.9309
 9469TIP3   OH249821   5.142   6.161   0.673 -0.5317  0.2165 -0.2852
 9469TIP3    H149822   5.139   6.256   0.661  1.4518  0.7156  2.3938
 9469TIP3    H249823   5.171   6.127   0.588  1.5482  2.2805 -0.4894
 9470TIP3   OH249824   0.374   4.431  17.029  0.0849 -0.2978  0.2141
 9470TIP3    H149825   0.279   4.439  17.021 -0.0608 -0.6310  1.4640
 9470TIP3    H249826   0.400   4.378  16.954 -0.9227 -1.5163  0.6943
 9471TIP3   OH249827   6.070   4.273   1.637 -0.1514 -0.2075  0.6404
 9471TIP3    H149828   5.978   4.282   1.614 -0.4252  1.7420  2.2721
 9471TIP3    H249829   6.073   4.196   1.694 -0.8286 -0.0852  0.8465
 9472TIP3   OH249830   0.408   1.229  13.961 -0.4269  0.0165 -0.5263
 9472TIP3    H149831   0.406   1.295  13.892 -0.8351 -1.0486 -1.5693
 9472TIP3    H249832   0.495   1.189  13.955 -0.0889  0.5960  0.2651
 9473TIP3   OH249833   5.984   0.495   1.524 -0.5451  0.3661 -0.2178
 9473TIP3    H149834   5.998   0.437   1.449 -0.5030  0.4885 -0.3063
 9473TIP3    H249835   5.976   0.582   1.485  2.0896  0.8184  0.0966
 9474TIP3   OH249836   5.123   3.447  14.572 -0.3023 -0.5529 -0.0560
 9474TIP3    H149837   5.168   3.374  14.528  1.2828  0.2509  0.1666
 9474TIP3    H249838   5.082   3.407  14.649 -0.7855 -1.4695 -0.7607
 9475TIP3   OH249839   0.448   5.069   2.273 -0.0620 -0.1278  0.4456
 9475TIP3    H149840   0.436   5.133   2.203  1.5645 -1.0659 -0.7550
 9475TIP3    H249841   0.390   4.997   2.249  1.5582 -1.0767 -0.7932
 9476TIP3   OH249842   0.148   6.197   5.943  0.2831  0.0395 -0.2020
 9476TIP3    H149843   0.109   6.118   5.905 -0.0998 -0.8867  1.9509
 9476TIP3    H249844   0.077   6.237   5.993  0.9104  0.8422  0.0686
 9477TIP3   OH249845   0.444   0.998  12.381  0.1468  0.0724 -0.2787
 9477TIP3    H149846   0.516   0.989  12.319  0.1876 -2.2625 -0.0102
 9477TIP3    H249847   0.475   0.953  12.460 -0.7679  0.9797  0.6330
 9478TIP3   OH249848   3.054   5.200   0.275 -0.0897  0.4753 -0.2846
 9478TIP3    H149849   3.022   5.216   0.186  0.9999  0.6513 -0.6620
 9478TIP3    H249850   2.982   5.153   0.318  0.7883 -3.3012 -2.4751
 9479TIP3   OH249851   5.892   2.760   4.583 -0.2827  0.0957  0.6331
 9479TIP3    H149852   5.905   2.853   4.566 -2.2509  0.6665  1.9412
 9479TIP3    H249853   5.948   2.741   4.658  1.2371 -0.1747 -0.5236
 9480TIP3   OH249854   6.739   5.536  15.988 -0.8670  0.2965  0.2520
 9480TIP3    H149855   6.752   5.621  16.029  0.2227  0.3947 -0.2765
 9480TIP3    H249856   6.802   5.478  16.031 -1.3264 -0.1534  0.3320
 9481TIP3   OH249857   4.089   2.250   4.263  0.5248 -0.2007  0.3925
 9481TIP3    H149858   4.123   2.313   4.327  1.0836 -1.0255  0.9341
 9481TIP3    H249859   3.997   2.273   4.254 -0.0475 -1.1363  2.8830
 9482TIP3   OH249860   3.468   2.255  16.734  0.1743  0.0861 -0.4963
 9482TIP3    H149861   3.528   2.312  16.686  0.9962  1.5186  2.0665
 9482TIP3    H249862   3.489   2.270  16.826  0.7454 -4.7309  0.4147
 9483TIP3   OH249863   3.037   2.745  15.998  0.0979 -0.5143 -0.0433
 9483TIP3    H149864   3.028   2.654  15.972  0.7699 -0.7022  0.3534
 9483TIP3    H249865   3.063   2.741  16.091 -1.4946  0.1128  0.4635
 9484TIP3   OH249866   6.372   4.129  11.661  0.6444  0.6649 -0.2107
 9484TIP3    H149867   6.347   4.186  11.588 -1.2531  0.7515  0.4472
 9484TIP3    H249868   6.418   4.187  11.721 -1.5990  1.6916  0.6312
 9485TIP3   OH249869   2.936   6.003  13.511  0.6333  0.5125  0.6546
 9485TIP3    H149870   2.967   5.912  13.517  0.1279  0.3143  0.2704
 9485TIP3    H249871   2.903   6.011  13.422 -0.1495  0.8142  0.9656
 9486TIP3   OH249872   4.740   2.183   4.886  0.2728 -0.0649 -0.0538
 9486TIP3    H149873   4.708   2.097   4.914  1.2647 -0.7521 -0.9250
 9486TIP3    H249874   4.757   2.172   4.793  0.9320  0.9184 -0.0565
 9487TIP3   OH249875   0.646   1.042  11.058 -0.5213 -0.1359 -0.1637
 9487TIP3    H149876   0.698   1.067  11.134 -0.4198 -0.6674 -0.0526
 9487TIP3    H249877   0.702   0.983  11.008 -0.3613  0.6992 -0.9828
 9488TIP3   OH249878   6.414   2.301   4.809  0.2473 -0.4674  0.5993
 9488TIP3    H149879   6.508   2.305   4.791 -0.1221 -1.6728 -2.0787
 9488TIP3    H249880   6.387   2.392   4.816  1.3367 -0.0310 -0.4993
 9489TIP3   OH249881   6.181   4.152   3.799 -0.2076 -0.2814  0.0321
 9489TIP3    H149882   6.204   4.241   3.774  2.3320 -0.1584  2.3722
 9489TIP3    H249883   6.169   4.106   3.716  0.9138  1.6360 -1.2727
 9490TIP3   OH249884   5.862   4.864   3.781  0.5945  0.2839  0.3074
 9490TIP3    H149885   5.792   4.922   3.811  0.2366 -0.2788  0.5827
 9490TIP3    H249886   5.922   4.860   3.855  1.2955  1.3351 -0.1899
 9491TIP3   OH249887   4.969   6.627  12.024 -0.0141 -0.1876  0.3002
 9491TIP3    H149888   4.878   6.637  12.050 -0.3433  0.4298 -0.9921
 9491TIP3    H249889   5.018   6.678  12.088 -0.6032 -0.2299  0.7939
 9492TIP3   OH249890   5.403   2.555  15.248 -0.0448  0.0544 -0.3570
 9492TIP3    H149891   5.373   2.641  15.276  1.3269  0.1686  0.8977
 9492TIP3    H249892   5.496   2.566  15.231  0.1709 -1.1859 -0.0977
 9493TIP3   OH249893   5.578   3.274  12.671 -0.3743  0.5263 -0.0717
 9493TIP3    H149894   5.578   3.340  12.741 -1.1701  0.6027 -0.1399
 9493TIP3    H249895   5.507   3.301  12.612 -1.4015 -0.9438  0.4352
 9494TIP3   OH249896   0.643   0.989   3.216 -0.5466 -0.0141  1.0047
 9494TIP3    H149897   0.663   0.897   3.236 -2.1578 -0.3853  1.0660
 9494TIP3    H249898   0.591   1.019   3.290 -0.4452  0.8111  0.7519
 9495TIP3   OH249899   0.400   1.410  15.163  0.0169  0.2676 -0.0369
 9495TIP3    H149900   0.435   1.402  15.074 -1.7267 -1.0201 -0.6701
 9495TIP3    H249901   0.452   1.349  15.215 -0.5015 -0.8178 -0.7353
 9496TIP3   OH249902   5.536   3.953   6.173 -0.2792 -0.7874 -0.5003
 9496TIP3    H149903   5.514   3.879   6.116  0.0556 -0.6782 -0.7764
 9496TIP3    H249904   5.546   3.915   6.260  1.5694 -1.3667 -0.9152
 9497TIP3   OH249905   0.668   6.403   4.964 -0.1765 -0.0583  0.4553
 9497TIP3    H149906   0.609   6.368   5.031  1.0896 -0.5918  1.3201
 9497TIP3    H249907   0.720   6.328   4.936 -1.2196 -0.0260 -1.7524
 9498TIP3   OH249908   1.495   1.006  16.170  0.1944 -0.1068 -0.1738
 9498TIP3    H149909   1.556   1.049  16.230 -0.7724  0.4774  0.4267
 9498TIP3    H249910   1.516   0.913  16.178  0.7893  0.0546  0.2615
 9499TIP3   OH249911   5.700   4.163  11.292  0.2041  0.0232 -0.2402
 9499TIP3    H149912   5.697   4.255  11.266 -1.5195 -0.0241 -0.3193
 9499TIP3    H249913   5.775   4.127  11.244  2.0266  1.7452  1.1461
 9500TIP3   OH249914   0.601   4.922   4.766 -0.4023  0.4574  0.2504
 9500TIP3    H149915   0.611   4.983   4.839 -2.4956  0.7125  0.3729
 9500TIP3    H249916   0.544   4.853   4.800 -0.5156  0.0145 -0.8112
 9501TIP3   OH249917   2.706   4.540   3.123 -0.1368 -0.5817 -0.1301
 9501TIP3    H149918   2.640   4.508   3.185  1.8479 -1.2466  1.7434
 9501TIP3    H249919   2.790   4.512   3.159  1.5026  3.0102 -0.6614
 9502TIP3   OH249920   2.728   1.930  15.625 -0.3704  0.3180  0.2869
 9502TIP3    H149921   2.765   1.979  15.699 -0.2962  1.1144 -0.2587
 9502TIP3    H249922   2.787   1.856  15.613 -1.1928 -0.6753  1.9588
 9503TIP3   OH249923   0.562   6.689  11.324 -0.4262  0.1737 -0.2627
 9503TIP3    H149924   0.654   6.668  11.334 -0.4451 -0.1346 -0.7153
 9503TIP3    H249925   0.535   6.723  11.410 -0.2246 -0.9875  0.2767
 9504TIP3   OH249926   6.634   1.955  15.456 -0.7399  0.7431  0.0005
 9504TIP3    H149927   6.619   2.008  15.534  1.9822  2.3790 -0.4559
 9504TIP3    H249928   6.684   1.881  15.487 -2.4304 -0.3661  0.2348
 9505TIP3   OH249929   1.098   1.920  12.382  0.6230  0.4187 -0.6773
 9505TIP3    H149930   1.169   1.868  12.420  0.7926  1.1533  0.0456
 9505TIP3    H249931   1.053   1.859  12.323  0.9138 -0.5046  0.0215
 9506TIP3   OH249932   3.206   4.457   2.323  0.2162  0.4360 -0.0429
 9506TIP3    H149933   3.232   4.365   2.319 -0.8974  0.1099 -0.1330
 9506TIP3    H249934   3.125   4.457   2.374  0.4435  1.4290  0.3424
 9507TIP3   OH249935   0.028   5.764   2.883  0.6251 -0.3655 -0.3968
 9507TIP3    H149936  -0.020   5.834   2.928  1.4347 -0.3503  0.4682
 9507TIP3    H249937  -0.015   5.683   2.912  1.0070 -0.3434  0.2535
 9508TIP3   OH249938   6.149   1.249   4.397 -1.0389 -0.0506 -0.2857
 9508TIP3    H149939   6.122   1.174   4.449  0.4674 -0.4290 -0.0218
 9508TIP3    H249940   6.095   1.321   4.430 -1.9519 -0.8357 -0.0206
 9509TIP3   OH249941   6.510   0.481   4.453 -0.4457 -0.3177  0.0057
 9509TIP3    H149942   6.484   0.400   4.410 -3.0488  1.3504 -1.8307
 9509TIP3    H249943   6.453   0.486   4.530 -1.4440  0.4647 -0.7537
 9510TIP3   OH249944   2.656   0.496  16.867  0.0682 -0.7756  0.0400
 9510TIP3    H149945   2.641   0.402  16.879  1.4211 -0.6990  3.6201
 9510TIP3    H249946   2.651   0.532  16.956  1.1045  2.3137 -1.0349
 9511TIP3   OH249947   4.921   3.552   2.610  0.4886 -0.2525 -0.1149
 9511TIP3    H149948   4.978   3.531   2.684  0.4177 -1.1485 -0.3005
 9511TIP3    H249949   4.939   3.644   2.591  0.9689 -0.1885  0.6126
 9512TIP3   OH249950   5.895   2.760  13.427  0.3288  0.0046  0.1257
 9512TIP3    H149951   5.974   2.809  13.452  0.9768  0.4686 -2.4491
 9512TIP3    H249952   5.825   2.796  13.481  1.3558  1.6913  0.3899
 9513TIP3   OH249953   2.695   1.805  13.614 -0.2978  0.2050 -0.1994
 9513TIP3    H149954   2.684   1.710  13.610  1.7888 -0.0308 -2.8883
 9513TIP3    H249955   2.635   1.839  13.547 -0.6414  0.7715  0.3763
 9514TIP3   OH249956   5.729   1.641  10.421  0.3808  0.5108  0.0137
 9514TIP3    H149957   5.638   1.656  10.446  0.0119 -1.3267 -0.0769
 9514TIP3    H249958   5.757   1.723  10.382 -1.4637  0.9068 -0.5764
 9515TIP3   OH249959   4.073   5.417   4.792  0.3643  0.5527  0.0900
 9515TIP3    H149960   4.043   5.424   4.882 -0.1593 -0.2222 -0.0150
 9515TIP3    H249961   4.090   5.323   4.779  2.2165  0.8578 -0.0667
 9516TIP3   OH249962   1.104   5.260   2.014 -0.2865 -0.0283  0.1991
 9516TIP3    H149963   1.099   5.328   2.082 -0.6411 -1.2988  1.5120
 9516TIP3    H249964   1.168   5.294   1.951 -0.2851  1.4122  0.9232
 9517TIP3   OH249965   6.489   1.787  16.627  1.0335  0.0567  0.4277
 9517TIP3    H149966   6.511   1.742  16.709 -0.0372 -0.4467  0.4517
 9517TIP3    H249967   6.394   1.784  16.622  1.1129 -2.1715 -2.0583
 9518TIP3   OH249968   4.053   6.210   3.573  0.1939 -0.0779  0.7125
 9518TIP3    H149969   4.009   6.129   3.596  1.3730 -0.9073  0.1281
 9518TIP3    H249970   4.010   6.239   3.493 -0.3793  0.0129  1.0441
 9519TIP3   OH249971   6.231   6.230  11.712 -0.3163  0.1772 -0.0635
 9519TIP3    H149972   6.189   6.173  11.776  0.8089 -0.4512  0.1376
 9519TIP3    H249973   6.159   6.257  11.654 -0.9284 -1.2215 -0.0115
 9520TIP3   OH249974   3.206   5.365   0.989  0.2925  0.0216  0.2812
 9520TIP3    H149975   3.138   5.431   0.975 -1.4004 -1.4147  1.4880
 9520TIP3    H249976   3.234   5.342   0.900 -0.0208  1.3609 -0.2018
 9521TIP3   OH249977   1.444   2.193   4.503  0.0292  0.2087 -0.2909
 9521TIP3    H149978   1.452   2.114   4.557 -0.4283 -0.0465 -0.5913
 9521TIP3    H249979   1.350   2.212   4.503  0.3257  2.0801  1.6463
 9522TIP3   OH249980   5.954   2.371   6.010  0.2112  0.0145  0.4790
 9522TIP3    H149981   5.955   2.410   6.097 -0.1973  3.2901 -0.8321
 9522TIP3    H249982   5.880   2.414   5.966  1.1144 -0.6468 -1.8279
 9523TIP3   OH249983   0.795   4.859   0.250  0.2508 -1.0066 -0.3605
 9523TIP3    H149984   0.822   4.949   0.234 -2.4862  0.1432  0.8757
 9523TIP3    H249985   0.831   4.838   0.337  0.4560 -0.9268 -0.4262
 9524TIP3   OH249986   3.129   0.307   0.416 -0.3518 -0.2789  0.7612
 9524TIP3    H149987   3.072   0.276   0.487 -2.3999 -0.6212 -0.9236
 9524TIP3    H249988   3.100   0.257   0.339  1.5726  0.2974 -0.4031
 9525TIP3   OH249989   2.962   6.339   0.949 -0.0348 -0.3271 -0.0532
 9525TIP3    H149990   2.980   6.282   0.874  0.1447  1.1296 -1.1762
 9525TIP3    H249991   2.901   6.290   1.003  0.0326 -1.5322 -1.0302
 9526TIP3   OH249992   5.231   1.767  13.213  0.5831  0.5734 -0.4714
 9526TIP3    H149993   5.302   1.726  13.163  1.4317  0.6528  0.6262
 9526TIP3    H249994   5.267   1.777  13.301 -1.6827 -1.6836  0.8068
 9527TIP3   OH249995   5.672   3.016  14.882  0.1986 -0.3628  0.1776
 9527TIP3    H149996   5.624   3.069  14.946  1.9355 -0.2502  1.4819
 9527TIP3    H249997   5.730   3.079  14.838 -0.4037 -0.5797 -0.9680
 9528TIP3   OH249998   5.871   4.175   5.914  0.6317 -0.1404  0.1985
 9528TIP3    H149999   5.892   4.268   5.904  1.3799 -0.2815  0.3986
 9528TIP3    H250000   5.949   4.137   5.953 -0.1879 -0.5928  1.4677
 9529TIP3   OH250001   0.941   3.033   3.897  0.7239  0.1623  0.0229
 9529TIP3    H150002   0.954   2.961   3.959  0.5350 -0.8189 -1.0457
 9529TIP3    H250003   1.024   3.038   3.849  0.2752 -0.2660 -0.8257
 9530TIP3   OH250004   0.932   0.229   0.603  0.6055  0.4805 -0.5358
 9530TIP3    H150005   0.995   0.211   0.673  0.7888 -0.5235 -0.9332
 9530TIP3    H250006   0.977   0.290   0.545  0.1131  2.0445  0.6713
 9531TIP3   OH250007   2.526   0.610  14.267 -0.7306 -0.5650  0.4733
 9531TIP3    H150008   2.580   0.622  14.189 -3.6647  1.1584 -1.4730
 9531TIP3    H250009   2.563   0.533  14.309  2.2899 -0.3471 -1.4387
 9532TIP3   OH250010   2.297   2.207   6.351 -0.2072 -0.1527  0.7139
 9532TIP3    H150011   2.223   2.176   6.298  0.1319  0.4307 -0.1213
 9532TIP3    H250012   2.281   2.301   6.361 -0.6033 -0.3493  2.2190
 9533TIP3   OH250013   4.925   5.300   0.108 -0.2268 -0.1796 -0.3495
 9533TIP3    H150014   4.962   5.222   0.067  1.1533 -1.3927  2.8378
 9533TIP3    H250015   4.993   5.367   0.097  0.6157 -0.8077  0.7316
 9534TIP3   OH250016   5.723   0.929   5.166  0.0850 -0.2724  0.7930
 9534TIP3    H150017   5.723   0.904   5.258  1.6935 -1.2118  0.5837
 9534TIP3    H250018   5.809   0.970   5.152 -0.5081  0.7277 -0.0813
 9535TIP3   OH250019   3.366   3.607  11.888 -0.0112  0.1752 -0.3427
 9535TIP3    H150020   3.339   3.545  11.819 -0.2619 -0.0264 -0.0662
 9535TIP3    H250021   3.288   3.661  11.903  0.3233  0.8159 -0.8490
 9536TIP3   OH250022   0.419   1.445  12.254 -0.5519 -0.1365 -0.1275
 9536TIP3    H150023   0.511   1.424  12.237 -0.5397 -0.5506  0.4341
 9536TIP3    H250024   0.423   1.514  12.321 -0.6264  0.7228 -0.9820
 9537TIP3   OH250025   2.266   0.540  13.195  0.0671  0.5710  0.4881
 9537TIP3    H150026   2.284   0.473  13.129 -2.2402  0.8002 -0.4457
 9537TIP3    H250027   2.232   0.491  13.270 -2.2517  0.6449 -0.4304
 9538TIP3   OH250028   4.174   4.951   5.677  0.7935 -0.3699  0.2854
 9538TIP3    H150029   4.214   4.960   5.764  0.3906  0.6651  0.3757
 9538TIP3    H250030   4.091   4.907   5.694  0.9939 -0.7345  0.3397
 9539TIP3   OH250031   6.750   3.311  11.184 -0.6384  0.3055  0.5252
 9539TIP3    H150032   6.751   3.309  11.280 -1.2452  1.3982  0.5812
 9539TIP3    H250033   6.790   3.395  11.161  0.0165 -0.1950 -0.2087
 9540TIP3   OH250034   0.085   2.429  16.850 -0.4747 -0.0381  0.3793
 9540TIP3    H150035   0.129   2.344  16.852  0.6701  0.2673 -3.2604
 9540TIP3    H250036  -0.001   2.410  16.811 -0.3586  0.3706 -0.0967
 9541TIP3   OH250037   2.056   0.945   2.623 -0.0944 -0.0953 -0.5368
 9541TIP3    H150038   2.018   0.951   2.535 -0.4627 -0.0345 -0.3734
 9541TIP3    H250039   2.041   0.855   2.650  0.0004 -0.1086 -0.5281
 9542TIP3   OH250040   0.793   5.357  16.225 -0.1597 -0.2008 -0.0354
 9542TIP3    H150041   0.873   5.379  16.177 -0.8016 -0.6945 -1.3775
 9542TIP3    H250042   0.758   5.442  16.255  1.2061 -0.0314  1.1829
 9543TIP3   OH250043   3.614   5.411  11.467 -0.0732  0.3321 -0.3490
 9543TIP3    H150044   3.529   5.368  11.460 -0.5829  1.2797 -0.0692
 9543TIP3    H250045   3.618   5.443  11.557  2.1223 -2.8221  0.8607
 9544TIP3   OH250046   0.737   5.086  13.447 -0.3961 -0.7270 -0.1247
 9544TIP3    H150047   0.788   5.051  13.519 -0.8635 -0.5646  0.2889
 9544TIP3    H250048   0.666   5.023  13.435 -1.9936  0.6701  1.4724
 9545TIP3   OH250049   6.279   1.847   4.959  0.5763  0.2067  0.3896
 9545TIP3    H150050   6.357   1.796   4.980 -0.1171 -1.2901 -0.4878
 9545TIP3    H250051   6.307   1.938   4.964  2.4492 -0.2998 -0.1522
 9546TIP3   OH250052   4.179   3.670  16.141  0.3180  0.2513 -0.1534
 9546TIP3    H150053   4.238   3.740  16.116  2.1022 -1.6309 -1.5409
 9546TIP3    H250054   4.235   3.606  16.185 -0.2198 -2.3395 -2.9167
 9547TIP3   OH250055   2.729   4.442   1.966 -0.4315 -0.5342  0.3129
 9547TIP3    H150056   2.823   4.430   1.981 -0.4989 -0.1107  1.1422
 9547TIP3    H250057   2.724   4.499   1.889  0.0199  0.2122  0.8164
 9548TIP3   OH250058   5.225   5.973   3.359  0.0220 -0.0625  0.5452
 9548TIP3    H150059   5.241   6.057   3.316  2.9718 -0.9211 -0.3075
 9548TIP3    H250060   5.282   5.974   3.435 -1.0519 -0.7207  1.3814
 9549TIP3   OH250061   2.366   1.144   6.798 -0.3732 -0.5316 -0.5996
 9549TIP3    H150062   2.334   1.185   6.718  1.0340  2.8748  0.4070
 9549TIP3    H250063   2.452   1.108   6.773  0.0427  0.4813 -0.6736
 9550TIP3   OH250064   2.758   0.088   0.882 -0.0854 -0.7758  0.0840
 9550TIP3    H150065   2.671   0.073   0.917  0.2398 -0.7307  0.9175
 9550TIP3    H250066   2.811   0.116   0.957  0.6752 -0.9108 -0.3861
 9551TIP3   OH250067   1.756   2.421  12.421  0.4892 -0.3804  0.4307
 9551TIP3    H150068   1.756   2.517  12.425  0.7151 -0.4032  1.0799
 9551TIP3    H250069   1.710   2.401  12.339 -1.0502  0.2456  1.0895
 9552TIP3   OH250070   6.362   2.756  11.730 -0.1955  0.7440  0.2044
 9552TIP3    H150071   6.314   2.692  11.676 -0.7827  1.4892 -0.1683
 9552TIP3    H250072   6.409   2.702  11.794 -0.7511 -0.0620 -0.0482
 9553TIP3   OH250073   3.736   2.980  16.509  0.0323 -0.1166  0.3386
 9553TIP3    H150074   3.657   2.990  16.561 -0.2394  1.5123 -0.2986
 9553TIP3    H250075   3.731   3.051  16.444  1.3144 -0.8516 -0.6238
 9554TIP3   OH250076   2.836   0.228  15.891  0.0843  0.2525  0.3559
 9554TIP3    H150077   2.742   0.225  15.870  0.2481  0.4474 -0.4548
 9554TIP3    H250078   2.878   0.247  15.807  0.8523  0.1633  0.7149
 9555TIP3   OH250079   3.030   0.431   4.460 -0.1009 -1.0618  0.0052
 9555TIP3    H150080   3.085   0.509   4.450  1.0959 -1.6874  1.2913
 9555TIP3    H250081   2.946   0.465   4.492  0.5509 -0.3111  0.9877
 9556TIP3   OH250082   4.112   4.424   1.811 -0.0975 -0.4810  0.2230
 9556TIP3    H150083   4.198   4.432   1.854 -0.0836  1.0761 -0.0248
 9556TIP3    H250084   4.107   4.332   1.784  0.8709 -0.9423  1.5035
 9557TIP3   OH250085   0.906   2.716  13.543  0.4063  0.2859  0.1549
 9557TIP3    H150086   0.961   2.785  13.505  2.4204 -1.2836  0.0125
 9557TIP3    H250087   0.963   2.674  13.607 -0.4286 -1.8145 -0.4051
 9558TIP3   OH250088   2.348   2.582  11.077 -0.1330  0.4224 -0.2452
 9558TIP3    H150089   2.367   2.490  11.094 -0.9567  0.5536  1.6243
 9558TIP3    H250090   2.255   2.583  11.052  0.5434  0.4823 -3.0776
 9559TIP3   OH250091   4.525   6.396  11.037  0.3630 -0.1230 -0.2856
 9559TIP3    H150092   4.503   6.378  10.945  0.8932 -0.7531 -0.2942
 9559TIP3    H250093   4.445   6.434  11.073 -0.1661 -0.7523 -0.7656
 9560TIP3   OH250094   3.805   3.535   1.335 -0.3167 -0.2898 -0.2737
 9560TIP3    H150095   3.793   3.616   1.386 -2.4666 -0.6519 -0.0906
 9560TIP3    H250096   3.899   3.531   1.318 -0.1824  2.4915 -0.6966
 9561TIP3   OH250097   2.999   3.983  12.974  0.2923 -0.1278  0.0421
 9561TIP3    H150098   2.945   3.985  12.895  0.9099 -0.2976 -0.3925
 9561TIP3    H250099   3.087   4.005  12.943  0.9173 -2.0393  0.3727
 9562TIP3   OH250100   3.656   5.080  12.276  0.4146  0.3328 -0.4224
 9562TIP3    H150101   3.745   5.068  12.308  0.3005 -0.4141 -0.3681
 9562TIP3    H250102   3.656   5.167  12.235  0.9869  0.6185  0.1669
 9563TIP3   OH250103   1.091   3.258  11.329 -0.1401 -0.0400 -0.7780
 9563TIP3    H150104   1.005   3.216  11.324  0.0802 -0.5315 -0.4890
 9563TIP3    H250105   1.154   3.186  11.319  0.2596 -0.0399  1.2578
 9564TIP3   OH250106   2.560   2.226   5.993  0.0319  1.3272 -0.0646
 9564TIP3    H150107   2.600   2.311   5.974 -2.0780  2.4117  0.1269
 9564TIP3    H250108   2.468   2.236   5.968  0.2394 -1.8319 -2.8463
 9565TIP3   OH250109   5.869   5.799  13.596 -0.4493  0.7771 -0.3568
 9565TIP3    H150110   5.956   5.816  13.559  0.5241  0.1182  1.5301
 9565TIP3    H250111   5.834   5.886  13.616 -0.4736  1.0756 -1.5951
 9566TIP3   OH250112   3.463   4.753  12.900 -0.4111 -0.3667 -0.9261
 9566TIP3    H150113   3.543   4.705  12.879  1.8494  3.4332 -2.0348
 9566TIP3    H250114   3.420   4.765  12.815 -2.0801 -2.0775 -0.3794
 9567TIP3   OH250115   0.662   6.666  15.422 -0.1310 -0.1634 -0.1516
 9567TIP3    H150116   0.653   6.673  15.327 -0.0191 -1.5231 -0.2768
 9567TIP3    H250117   0.697   6.751  15.449  0.9058 -0.1320 -1.4702
 9568TIP3   OH250118   0.993   2.482  11.701  0.6391  0.0467 -0.6067
 9568TIP3    H150119   1.033   2.395  11.709 -0.6928 -0.5207  0.3406
 9568TIP3    H250120   0.912   2.466  11.652 -1.1408  0.1537  2.0556
 9569TIP3   OH250121   2.982   1.188   3.295  0.0842  0.5977 -0.1628
 9569TIP3    H150122   3.044   1.187   3.368 -1.2925  0.3177  1.0529
 9569TIP3    H250123   2.989   1.276   3.259 -0.3775  1.3186  1.3933
 9570TIP3   OH250124   3.228   5.166  11.907  0.1988 -1.1999 -0.5350
 9570TIP3    H150125   3.317   5.143  11.934  0.2494 -0.5035 -0.0850
 9570TIP3    H250126   3.196   5.088  11.862  0.2918 -2.2432  1.1221
 9571TIP3   OH250127   3.262   2.876   4.444 -0.0953  0.5965  0.5542
 9571TIP3    H150128   3.268   2.934   4.367 -1.3034 -0.5086 -0.4214
 9571TIP3    H250129   3.229   2.933   4.514 -0.1061  1.3555 -0.0519
 9572TIP3   OH250130   4.654   4.059   0.718 -0.4289 -0.5718 -0.2409
 9572TIP3    H150131   4.723   4.029   0.659  0.8142 -1.5305  1.5890
 9572TIP3    H250132   4.627   4.143   0.683  0.4571 -0.9745 -1.9929
 9573TIP3   OH250133   6.277   3.513   1.943  0.0033 -0.0853  0.1125
 9573TIP3    H150134   6.258   3.540   2.033  0.4828 -3.0349  1.2161
 9573TIP3    H250135   6.193   3.515   1.898 -0.5958 -0.4339  1.1932
 9574TIP3   OH250136   1.477   1.662   2.719  0.3119 -0.1230 -0.5693
 9574TIP3    H150137   1.507   1.719   2.790  4.0592  0.9174 -2.6930
 9574TIP3    H250138   1.423   1.720   2.664  1.2299  0.4197 -0.9182
 9575TIP3   OH250139   1.570   0.111  12.760  0.6175 -0.1742  0.5283
 9575TIP3    H150140   1.509   0.145  12.825  0.4578  2.3166 -0.7905
 9575TIP3    H250141   1.562   0.171  12.686  2.7894 -1.2723 -0.7002
 9576TIP3   OH250142   0.023   0.388   1.384 -0.3604  0.0803 -0.4977
 9576TIP3    H150143   0.115   0.409   1.400 -0.2902  0.4635 -1.3790
 9576TIP3    H250144  -0.013   0.466   1.342 -0.9032 -0.3414 -0.8255
 9577TIP3   OH250145   1.882   0.289  11.903  0.0309 -0.7425  0.2253
 9577TIP3    H150146   1.948   0.267  11.969 -1.1195  0.7024  1.9757
 9577TIP3    H250147   1.801   0.297  11.953 -0.6642  1.6600 -1.1549
 9578TIP3   OH250148   4.930   6.436  16.784 -0.6821  0.7884 -0.3223
 9578TIP3    H150149   4.863   6.368  16.800 -0.1249 -0.6190 -3.2698
 9578TIP3    H250150   4.893   6.515  16.822 -1.1549 -1.1032  3.8192
 9579TIP3   OH250151   4.744   5.558  12.740  0.5266  0.6095  0.0258
 9579TIP3    H150152   4.819   5.498  12.729  0.4386  0.2847  1.0794
 9579TIP3    H250153   4.682   5.530  12.673  1.0780  0.4505 -0.4311
 9580TIP3   OH250154   4.147   0.015   3.574  0.2920 -0.6551 -0.1669
 9580TIP3    H150155   4.133   0.109   3.567  1.2828 -0.5575 -1.1480
 9580TIP3    H250156   4.060  -0.022   3.592 -0.5804  0.2173 -2.2631
 9581TIP3   OH250157   6.428   2.509  14.717  0.4129 -0.5453 -0.1711
 9581TIP3    H150158   6.349   2.475  14.675 -1.0912 -0.1926  2.2063
 9581TIP3    H250159   6.396   2.553  14.796  2.8235  1.3497 -0.1457
 9582TIP3   OH250160   0.147   1.927  15.004 -0.9267 -0.1830 -0.0562
 9582TIP3    H150161   0.107   1.899  15.086 -1.2285 -0.7128 -0.3753
 9582TIP3    H250162   0.085   1.990  14.967 -0.1693  1.0519  0.7406
 9583TIP3   OH250163   6.396   1.130   0.067 -0.0398  0.4749 -0.2075
 9583TIP3    H150164   6.457   1.159   0.135  2.4722 -0.1057 -2.0172
 9583TIP3    H250165   6.356   1.051   0.101  1.3787  0.0395  0.5365
 9584TIP3   OH250166   4.402   3.945   3.965  0.4205  0.2913 -0.3829
 9584TIP3    H150167   4.417   3.865   4.015 -0.1802  0.2173 -0.3132
 9584TIP3    H250168   4.489   3.975   3.941  0.7369  0.4485  0.8950
 9585TIP3   OH250169   2.317   0.769   1.385  0.1781  0.1474 -0.1275
 9585TIP3    H150170   2.407   0.782   1.356  0.1993 -1.3559 -0.8013
 9585TIP3    H250171   2.311   0.820   1.466  1.9753 -0.5905  0.5280
 9586TIP3   OH250172   1.187   3.243   2.819 -0.2352  0.0840 -0.3494
 9586TIP3    H150173   1.233   3.313   2.772 -2.5875  2.6812  0.9520
 9586TIP3    H250174   1.212   3.254   2.910  1.7038 -2.8313 -0.3871
 9587TIP3   OH250175   3.665   6.254   0.744 -0.0611 -0.0200  0.0112
 9587TIP3    H150176   3.678   6.253   0.649  1.4333 -0.6379  0.1801
 9587TIP3    H250177   3.754   6.255   0.780 -0.4797 -2.6141  1.4046
 9588TIP3   OH250178   1.755   3.919  16.371  0.2231  0.1534  0.3184
 9588TIP3    H150179   1.702   3.976  16.316  1.2271 -0.1189 -1.0013
 9588TIP3    H250180   1.706   3.837  16.376  0.0416  0.2406 -0.0224
 9589TIP3   OH250181   4.297   4.370  14.669 -0.4058 -0.0021  0.0154
 9589TIP3    H150182   4.310   4.443  14.729 -0.3238  1.1072 -1.2897
 9589TIP3    H250183   4.386   4.344  14.643 -0.3740 -1.4398  1.4349
 9590TIP3   OH250184   0.137   1.708   2.378  0.6370 -0.1756  0.1993
 9590TIP3    H150185   0.133   1.766   2.303 -1.0986  0.6988  0.9220
 9590TIP3    H250186   0.072   1.640   2.360 -0.2104  0.3594  1.1250
 9591TIP3   OH250187   3.321   0.058   1.224  0.4684 -0.2422  0.0782
 9591TIP3    H150188   3.389   0.073   1.290 -0.2864 -1.3588  1.1568
 9591TIP3    H250189   3.263  -0.007   1.264 -0.1500 -0.7728 -1.6086
 9592TIP3   OH250190   2.025   5.699   5.041  0.1927 -0.2592  0.1783
 9592TIP3    H150191   2.069   5.725   5.122  0.4550  0.2905 -0.1346
 9592TIP3    H250192   1.933   5.689   5.066 -0.2819  2.7355 -0.0349
 9593TIP3   OH250193   1.237   5.174   0.755  0.4993  0.1443 -0.6121
 9593TIP3    H150194   1.205   5.115   0.687 -1.0583  0.3116 -0.0669
 9593TIP3    H250195   1.174   5.246   0.756  0.2077 -0.0659  1.2878
 9594TIP3   OH250196   5.546   3.724  16.884  0.3670  0.1253  0.0742
 9594TIP3    H150197   5.451   3.733  16.887  0.1109 -2.0930  0.1439
 9594TIP3    H250198   5.562   3.631  16.898  2.6607  0.6972  1.8374
 9595TIP3   OH250199   0.419   5.889   1.857 -0.2535 -0.3585 -0.5098
 9595TIP3    H150200   0.494   5.947   1.858 -0.3110 -0.2255 -1.6533
 9595TIP3    H250201   0.447   5.811   1.904  0.7632 -0.4845 -1.2882
 9596TIP3   OH250202   2.776   6.286  11.610  0.3074 -0.2720 -0.3429
 9596TIP3    H150203   2.840   6.350  11.640 -0.0347  0.2377 -0.6711
 9596TIP3    H250204   2.695   6.336  11.601  0.4476 -0.3138 -2.3333
 9597TIP3   OH250205   1.614   0.898   0.291 -0.0517 -0.4554 -0.0955
 9597TIP3    H150206   1.553   0.941   0.232 -0.3544 -2.9169 -1.7230
 9597TIP3    H250207   1.559   0.860   0.360  0.0240  0.1266  0.2945
 9598TIP3   OH250208   1.605   0.116   4.472  0.1607 -0.6946 -0.7846
 9598TIP3    H150209   1.626   0.108   4.565  0.6073  0.7353 -0.7458
 9598TIP3    H250210   1.688   0.101   4.427  0.9319  2.6831 -0.7300
 9599TIP3   OH250211   1.424   3.713  14.321 -0.5678 -0.1590 -0.7603
 9599TIP3    H150212   1.363   3.779  14.288 -0.6513 -0.1274 -0.5436
 9599TIP3    H250213   1.430   3.731  14.415  0.2806  0.2652 -0.8801
 9600TIP3   OH250214   6.553   4.639   3.277 -0.5169  0.3203 -0.1452
 9600TIP3    H150215   6.474   4.676   3.238 -0.0563 -0.3661 -1.8376
 9600TIP3    H250216   6.609   4.714   3.297 -0.9282  0.7175 -0.4887
 9601TIP3   OH250217   0.554   3.033  16.763 -0.4795 -0.2421  0.7257
 9601TIP3    H150218   0.641   3.024  16.799 -0.2512  2.4375  1.0368
 9601TIP3    H250219   0.502   3.071  16.833 -1.0984  1.0316 -0.3668
 9602TIP3   OH250220   4.718   0.703  11.588  0.2460 -0.5414 -0.2642
 9602TIP3    H150221   4.657   0.643  11.631  0.5333 -0.2614  0.5511
 9602TIP3    H250222   4.662   0.769  11.546 -0.0233 -0.3127  0.4383
 9603TIP3   OH250223   3.298   4.205   5.160  0.0507  0.4769 -0.1021
 9603TIP3    H150224   3.353   4.129   5.140 -0.8469  0.0207 -0.8757
 9603TIP3    H250225   3.358   4.280   5.152  0.4796  0.0322 -1.3638
 9604TIP3   OH250226   2.107   5.175  17.270  0.0096  0.3031 -0.1765
 9604TIP3    H150227   2.186   5.213  17.308  1.1977 -2.2819  0.1155
 9604TIP3    H250228   2.043   5.175  17.341  1.0147 -1.0549  0.7835
 9605TIP3   OH250229   2.035   5.775   5.322  0.0432 -0.4951  0.5380
 9605TIP3    H150230   2.117   5.753   5.366  0.1875  0.6691  0.8753
 9605TIP3    H250231   2.030   5.870   5.326  0.3130 -0.2694 -2.4331
 9606TIP3   OH250232   0.169   4.410  11.736 -0.1678 -0.2875 -0.1784
 9606TIP3    H150233   0.082   4.397  11.774 -0.6710 -0.8627 -1.4631
 9606TIP3    H250234   0.221   4.337  11.768 -0.6631 -0.9203 -0.7973
 9607TIP3   OH250235   1.324   4.833   2.560 -0.5119  0.4047 -0.2927
 9607TIP3    H150236   1.352   4.892   2.631 -1.3040  1.2541 -0.6656
 9607TIP3    H250237   1.305   4.892   2.486  1.3102 -0.5410 -1.5722
 9608TIP3   OH250238   2.364   3.556  12.554  0.0907  0.3866 -0.4268
 9608TIP3    H150239   2.350   3.497  12.629 -1.8740  0.8654 -0.3724
 9608TIP3    H250240   2.426   3.621  12.587  2.3063 -1.5668 -0.4825
 9609TIP3   OH250241   4.939   1.483  16.589 -0.4962  0.3777 -1.5345
 9609TIP3    H150242   4.958   1.406  16.642 -0.8685 -0.4131 -2.5228
 9609TIP3    H250243   5.019   1.496  16.537  0.1724  1.6141 -0.2836
 9610TIP3   OH250244   5.137   1.703  17.164  0.1367 -0.2205  0.0822
 9610TIP3    H150245   5.136   1.611  17.191  0.5960 -0.2617 -0.0251
 9610TIP3    H250246   5.184   1.748  17.234  0.5179 -0.1791 -0.1962
 9611TIP3   OH250247   0.672   0.783  15.934 -0.0620  0.1004 -0.0611
 9611TIP3    H150248   0.622   0.851  15.889  0.2055  1.0544  1.0254
 9611TIP3    H250249   0.648   0.793  16.026 -0.0199 -1.3022  0.1167
 9612TIP3   OH250250   5.576   4.658   0.104 -0.4196  0.4163 -0.3826
 9612TIP3    H150251   5.562   4.563   0.108 -0.7722  0.4408 -1.0142
 9612TIP3    H250252   5.509   4.695   0.161  1.2728  0.1712  1.9443
 9613TIP3   OH250253   6.577   2.513  11.163 -0.2339 -0.0765 -0.1959
 9613TIP3    H150254   6.608   2.601  11.185  1.2362 -0.7651  0.6286
 9613TIP3    H250255   6.654   2.468  11.129 -0.4511 -1.6213  1.2146
 9614TIP3   OH250256   1.907   2.142   4.006 -0.2620  0.0334 -0.0341
 9614TIP3    H150257   2.003   2.147   4.003 -0.1515 -1.0767  1.0434
 9614TIP3    H250258   1.880   2.163   3.917  0.9847  0.2407 -0.3903
 9615TIP3   OH250259   2.667   2.309   3.677  0.2607  0.5866 -0.1968
 9615TIP3    H150260   2.600   2.375   3.697  0.8396  1.1379 -0.0590
 9615TIP3    H250261   2.661   2.298   3.582 -0.7464 -0.1520 -0.0603
 9616TIP3   OH250262   3.575   6.205  14.244 -0.1305 -0.2078  0.1520
 9616TIP3    H150263   3.520   6.179  14.317  0.0804  0.9790  0.7425
 9616TIP3    H250264   3.515   6.206  14.169 -0.8001  0.5464  0.6817
 9617TIP3   OH250265   5.602   4.305  15.349  0.4203  0.1454 -0.1992
 9617TIP3    H150266   5.685   4.259  15.344  0.7365  0.5535  1.1103
 9617TIP3    H250267   5.624   4.398  15.341  0.1601  0.2951  0.7288
 9618TIP3   OH250268   1.192   5.689  15.000  0.2282  0.5255 -0.1943
 9618TIP3    H150269   1.238   5.768  14.972  1.1781  0.3731  0.8579
 9618TIP3    H250270   1.128   5.720  15.064 -0.5468  0.6271 -1.0003
 9619TIP3   OH250271   1.118   0.535  14.068  0.2207 -0.5133  0.1815
 9619TIP3    H150272   1.048   0.594  14.096  0.7584  0.6141 -0.7473
 9619TIP3    H250273   1.078   0.477  14.003  0.4351  1.1045 -1.4837
 9620TIP3   OH250274   2.094   2.576  14.442  0.4767  0.2835  0.1705
 9620TIP3    H150275   2.172   2.603  14.491  0.5793  1.0413 -0.3822
 9620TIP3    H250276   2.020   2.602  14.496  0.5800 -1.3701  1.1871
 9621TIP3   OH250277   4.998   2.246  11.506 -0.5731  0.2636 -0.0854
 9621TIP3    H150278   5.052   2.253  11.427 -0.2345  0.2330  0.1395
 9621TIP3    H250279   4.976   2.153  11.511  0.4977  0.0219  0.5604
 9622TIP3   OH250280   6.108   4.612   1.541  0.3403 -0.2512  0.4351
 9622TIP3    H150281   6.077   4.538   1.489  0.5896  1.1744 -1.9082
 9622TIP3    H250282   6.123   4.576   1.628  1.6411 -3.2353 -0.8877
 9623TIP3   OH250283   4.569   2.488   2.933  0.9643 -0.3615  0.5534
 9623TIP3    H150284   4.568   2.455   2.843 -0.8501  0.3187  0.2918
 9623TIP3    H250285   4.590   2.412   2.987  0.8982 -1.0296 -0.3456
 9624TIP3   OH250286   1.284   1.294  14.919  0.3894  0.5051  0.1913
 9624TIP3    H150287   1.214   1.346  14.880 -0.4323  1.8012  3.0996
 9624TIP3    H250288   1.322   1.351  14.986  2.3267 -1.1857  0.6418
 9625TIP3   OH250289   1.289   3.636   5.285 -0.1928 -0.3725  0.3798
 9625TIP3    H150290   1.369   3.590   5.260  0.0465  0.6709 -0.9180
 9625TIP3    H250291   1.318   3.707   5.342 -0.0819  0.3618 -0.5544
 9626TIP3   OH250292   3.689   3.009  11.217 -0.5808 -0.5293  0.2212
 9626TIP3    H150293   3.722   2.919  11.213  1.2383  0.1475 -2.2017
 9626TIP3    H250294   3.667   3.031  11.127  2.3943  2.5443  0.0451
 9627TIP3   OH250295   5.490   2.372   4.635 -0.1149 -0.9010  0.1785
 9627TIP3    H150296   5.493   2.449   4.692 -1.1705  0.8766 -2.0065
 9627TIP3    H250297   5.444   2.306   4.686 -1.1670  0.6573  1.3509
 9628TIP3   OH250298   3.943   5.921  11.162  0.2154 -0.5893  0.7775
 9628TIP3    H150299   3.885   5.932  11.087  0.5908  0.1268  0.5878
 9628TIP3    H250300   3.890   5.873  11.226  0.5361 -3.0579 -0.6709
 9629TIP3   OH250301   1.770   6.552   5.939  0.3294 -0.1542  0.3092
 9629TIP3    H150302   1.831   6.478   5.933  0.4718  0.0146 -0.4475
 9629TIP3    H250303   1.693   6.516   5.983  1.4346 -0.0522  2.4729
 9630TIP3   OH250304   0.466   0.638  11.310 -0.3262 -0.6586  0.3155
 9630TIP3    H150305   0.463   0.687  11.392  1.8042 -0.1948  0.1607
 9630TIP3    H250306   0.468   0.546  11.337  0.8482 -0.4972  0.8212
 9631TIP3   OH250307   1.318   0.498   2.801 -0.2081 -0.5655 -0.5316
 9631TIP3    H150308   1.397   0.492   2.747  2.0058 -1.5796  2.4949
 9631TIP3    H250309   1.286   0.408   2.806  0.0261 -0.6149  0.3139
 9632TIP3   OH250310   6.211   5.610  14.467 -0.0781 -0.0339 -0.4509
 9632TIP3    H150311   6.233   5.703  14.462 -0.2871  0.0713  0.3377
 9632TIP3    H250312   6.154   5.603  14.544  0.4662 -0.9023 -0.0995
 9633TIP3   OH250313   1.200   3.028  15.967  0.6312  0.4187 -0.5369
 9633TIP3    H150314   1.262   2.970  16.011 -1.2337 -1.6116 -0.4166
 9633TIP3    H250315   1.190   2.990  15.880 -1.3899 -0.0928 -0.1256
 9634TIP3   OH250316   3.023   1.051   3.924  0.4674 -0.4278 -0.6767
 9634TIP3    H150317   3.101   1.042   3.869  0.4826 -0.0557 -0.7191
 9634TIP3    H250318   2.950   1.050   3.862  0.3518 -1.9240 -0.5521
 9635TIP3   OH250319   6.295   1.194  14.963  0.9107 -0.2272 -0.1000
 9635TIP3    H150320   6.367   1.204  14.901  0.6942  0.6683 -0.2167
 9635TIP3    H250321   6.275   1.283  14.991  2.6616 -0.6973  3.1820
 9636TIP3   OH250322   4.240   2.562  15.906 -0.2560 -0.3704  0.3024
 9636TIP3    H150323   4.179   2.488  15.909 -1.0708  0.2739  0.0065
 9636TIP3    H250324   4.302   2.538  15.837 -0.0459 -1.1239  0.7443
 9637TIP3   OH250325   3.402   5.613   3.795  0.4607  0.2847  0.3851
 9637TIP3    H150326   3.430   5.700   3.823  0.4784  0.5854 -0.5354
 9637TIP3    H250327   3.374   5.569   3.876  1.9939  0.5630  1.0994
 9638TIP3   OH250328   4.317   0.268   5.744 -0.2436 -0.5786 -0.3528
 9638TIP3    H150329   4.394   0.324   5.733 -0.6105 -0.1176 -0.6190
 9638TIP3    H250330   4.328   0.229   5.830  1.1443 -1.8607 -1.0758
 9639TIP3   OH250331   3.964   2.597   2.364 -0.3688 -0.5541  0.5464
 9639TIP3    H150332   3.879   2.628   2.395 -0.3334  0.2717 -0.1599
 9639TIP3    H250333   4.027   2.640   2.421 -0.3935 -0.6415  0.6399
 9640TIP3   OH250334   6.553   3.704   2.942  0.0435  0.3979 -0.1012
 9640TIP3    H150335   6.619   3.752   2.893  0.8228 -0.0721  0.4574
 9640TIP3    H250336   6.603   3.639   2.992 -0.8666 -0.1365  0.1346
 9641TIP3   OH250337   5.139   5.544   4.680 -0.0438  0.2343 -0.0351
 9641TIP3    H150338   5.192   5.489   4.622  0.3887 -1.9085  2.2614
 9641TIP3    H250339   5.049   5.522   4.658  0.1140 -1.9028  1.1718
 9642TIP3   OH250340   6.749   0.270  12.400  0.8205 -0.2400  0.1681
 9642TIP3    H150341   6.749   0.176  12.417  0.7726  0.0254  1.6958
 9642TIP3    H250342   6.754   0.311  12.486  2.0873  1.1611 -0.5226
 9643TIP3   OH250343   1.081   1.555  15.207 -0.0030  0.2507 -0.2764
 9643TIP3    H150344   1.066   1.645  15.179 -1.0947 -0.3951 -1.8939
 9643TIP3    H250345   1.176   1.543  15.198  0.7813  2.2269  3.3237
 9644TIP3   OH250346   3.182   5.553   3.121  0.3076  0.0053  0.2760
 9644TIP3    H150347   3.247   5.552   3.190  1.4526 -1.0806 -0.7660
 9644TIP3    H250348   3.232   5.567   3.040 -0.9612  1.0259 -0.3759
 9645TIP3   OH250349   3.323   6.684   3.451 -0.1864 -0.4211  0.0838
 9645TIP3    H150350   3.271   6.706   3.529 -1.0563  0.7479 -0.7810
 9645TIP3    H250351   3.295   6.748   3.386 -2.3930 -3.5967 -2.4506
 9646TIP3   OH250352   2.340   5.897   4.693 -0.1450 -0.4701  0.1605
 9646TIP3    H150353   2.304   5.819   4.652 -1.2710  0.1258 -0.0335
 9646TIP3    H250354   2.318   5.888   4.786  0.2562 -0.6640  0.2383
 9647TIP3   OH250355   3.136   1.832  11.363 -0.0996  0.1544  0.0602
 9647TIP3    H150356   3.096   1.809  11.279  3.1089 -0.1071 -1.5582
 9647TIP3    H250357   3.187   1.754  11.387 -0.3486  0.5128  1.8934
 9648TIP3   OH250358   3.829   6.707   3.768  0.2574  0.7487 -0.0542
 9648TIP3    H150359   3.838   6.659   3.686 -0.2082  0.2510  0.1781
 9648TIP3    H250360   3.903   6.679   3.821 -0.9172 -1.0623  0.7316
 9649TIP3   OH250361   5.288   0.555  13.263 -0.3169  0.3917  0.1911
 9649TIP3    H150362   5.217   0.523  13.208  1.3840  0.0056 -1.9255
 9649TIP3    H250363   5.263   0.645  13.286 -2.0647 -0.1783  0.6151
 9650TIP3   OH250364   6.228   4.360  10.731  0.2850 -0.2454 -0.1710
 9650TIP3    H150365   6.255   4.278  10.690 -1.7687 -1.3395  0.5646
 9650TIP3    H250366   6.140   4.376  10.698  0.7641  1.8786 -0.5650
 9651TIP3   OH250367   1.435   0.867  12.151  0.0787 -0.4551  0.1394
 9651TIP3    H150368   1.480   0.922  12.216 -0.6834  1.5504 -0.9214
 9651TIP3    H250369   1.343   0.871  12.176  0.0161 -1.3220  0.0733
 9652TIP3   OH250370   4.170   4.067   4.025  0.1802  0.4401 -0.3920
 9652TIP3    H150371   4.257   4.040   3.994  0.4527  0.7392  0.1004
 9652TIP3    H250372   4.134   3.987   4.064  0.3577  0.3917 -0.3240
 9653TIP3   OH250373   4.488   1.049  11.547 -0.3051 -0.5002  0.2932
 9653TIP3    H150374   4.484   1.044  11.643  0.9837  1.7483  0.5610
 9653TIP3    H250375   4.496   0.959  11.518  1.1236 -1.1611  2.4586
 9654TIP3   OH250376   5.124   1.499   6.669  0.9312 -0.5784  0.6188
 9654TIP3    H150377   5.068   1.528   6.597  2.3087  4.0793  1.1116
 9654TIP3    H250378   5.063   1.464   6.734 -0.7262 -1.1226 -1.1433
 9655TIP3   OH250379   6.450   3.156  15.726  0.1156 -0.0543 -0.9557
 9655TIP3    H150380   6.405   3.126  15.806  1.4806  0.2311 -0.0427
 9655TIP3    H250381   6.527   3.099  15.720  0.6746  0.7378 -1.3884
 9656TIP3   OH250382   5.798   1.442   5.548  0.1570  0.4839  0.4456
 9656TIP3    H150383   5.724   1.404   5.502  0.5877  1.4327 -1.1052
 9656TIP3    H250384   5.870   1.382   5.532  0.6260  1.4486 -1.2810
 9657TIP3   OH250385   5.569   6.078   1.581 -0.0622 -0.1094 -0.3556
 9657TIP3    H150386   5.622   6.041   1.511 -2.0235 -0.2719 -1.8378
 9657TIP3    H250387   5.566   6.009   1.647  0.8038 -0.4345 -0.6356
 9658TIP3   OH250388   4.512   3.705   1.651 -0.1503 -0.6639 -0.1938
 9658TIP3    H150389   4.601   3.675   1.631  0.9096  1.2050  1.3867
 9658TIP3    H250390   4.501   3.783   1.597  0.2400  0.6491  1.5536
 9659TIP3   OH250391   4.797   5.185  12.417 -0.1145 -0.0189  0.0747
 9659TIP3    H150392   4.716   5.213  12.374  1.4054  0.2741 -2.8191
 9659TIP3    H250393   4.860   5.254  12.397  1.3309 -1.1143  0.7031
 9660TIP3   OH250394   1.701   2.010  11.104  0.7592  0.8969  0.0612
 9660TIP3    H150395   1.754   2.023  11.025  0.4254 -1.2817 -0.5990
 9660TIP3    H250396   1.611   2.007  11.072  0.6384 -0.2555  0.4557
 9661TIP3   OH250397   6.401   3.829   4.496 -0.1922 -0.2943  0.2664
 9661TIP3    H150398   6.420   3.887   4.570 -0.7585 -0.5013  0.5784
 9661TIP3    H250399   6.423   3.741   4.528  0.2348 -0.3128 -0.0559
 9662TIP3   OH250400   0.929   5.545  13.412  0.4018  0.2707 -0.1549
 9662TIP3    H150401   1.000   5.488  13.382 -1.3656 -1.4997 -1.1982
 9662TIP3    H250402   0.901   5.592  13.333  0.4804  1.0790  0.2816
 9663TIP3   OH250403   5.980   5.427   5.126  0.2408 -0.5819  0.1829
 9663TIP3    H150404   5.891   5.444   5.095  0.3293 -0.6274 -0.1040
 9663TIP3    H250405   6.036   5.450   5.051  0.5432  0.4264  0.7086
 9664TIP3   OH250406   0.604   3.706  13.458  0.4692  0.3492  0.1861
 9664TIP3    H150407   0.517   3.742  13.437  0.0696 -0.6788  0.0433
 9664TIP3    H250408   0.595   3.612  13.444  1.5404  0.2033  0.4326
 9665TIP3   OH250409   3.619   5.563  16.402 -0.2219 -0.0840 -0.1090
 9665TIP3    H150410   3.683   5.570  16.474  1.3302  2.9749 -1.5735
 9665TIP3    H250411   3.547   5.620  16.429 -0.5569 -0.4796 -0.1570
 9666TIP3   OH250412   3.491   5.833  13.284  0.1216 -0.6050  0.1420
 9666TIP3    H150413   3.563   5.795  13.334  0.2963  1.0194  1.1667
 9666TIP3    H250414   3.461   5.907  13.336 -0.5700  0.3488 -1.5343
 9667TIP3   OH250415   1.601   0.541   6.273  0.7564  0.1186  0.2452
 9667TIP3    H150416   1.642   0.531   6.187  0.3617  0.5635 -0.0018
 9667TIP3    H250417   1.674   0.539   6.334  1.1982  1.1846 -0.2101
 9668TIP3   OH250418   4.385   1.814  12.428  0.1847 -0.2812  0.4572
 9668TIP3    H150419   4.388   1.724  12.394  0.5186 -0.2853  0.4945
 9668TIP3    H250420   4.342   1.806  12.513 -1.4402 -0.1550 -0.3096
 9669TIP3   OH250421   4.642   2.504  15.170  0.0126 -0.3799 -0.0880
 9669TIP3    H150422   4.602   2.591  15.173  0.9152  0.1650 -2.1306
 9669TIP3    H250423   4.732   2.518  15.200  0.1032 -0.6449 -0.2316
 9670TIP3   OH250424   0.849   6.651   6.023 -0.0761 -0.7703 -0.1920
 9670TIP3    H150425   0.849   6.700   5.940 -2.8262  0.6413  0.5212
 9670TIP3    H250426   0.935   6.670   6.062 -0.3045  2.0472 -0.8271
 9671TIP3   OH250427   4.840   3.146   1.069 -0.6091 -0.5299 -0.5986
 9671TIP3    H150428   4.827   3.094   0.991  1.0524 -1.0573 -0.5717
 9671TIP3    H250429   4.930   3.127   1.096 -0.8641  0.2707  0.9658
 9672TIP3   OH250430   0.315   0.614   0.034 -0.6496 -0.5677 -0.3442
 9672TIP3    H150431   0.229   0.575   0.050 -0.8436 -1.0500 -2.3008
 9672TIP3    H250432   0.377   0.541   0.044 -0.5593 -0.4103  0.2390
 9673TIP3   OH250433   5.276   2.582   3.143 -0.0504 -0.0476 -0.0386
 9673TIP3    H150434   5.318   2.660   3.179 -0.6813  0.4090 -0.2515
 9673TIP3    H250435   5.206   2.617   3.087 -0.9231 -0.7775  0.5754
 9674TIP3   OH250436   5.334   2.347   3.257 -0.0368 -0.9053  0.3472
 9674TIP3    H150437   5.305   2.430   3.219  0.3756 -0.5829  0.7253
 9674TIP3    H250438   5.272   2.329   3.327  0.5998 -0.2608  1.0971
 9675TIP3   OH250439   6.660   5.024  16.070 -0.1814  0.5497  0.2178
 9675TIP3    H150440   6.642   4.973  15.990  1.0436 -1.4970  1.1516
 9675TIP3    H250441   6.575   5.058  16.096 -1.4990 -2.5590  0.4736
 9676TIP3   OH250442   0.818   3.213  12.053  0.4307 -0.1727 -0.0217
 9676TIP3    H150443   0.886   3.162  12.009 -0.4998 -0.4526 -1.2056
 9676TIP3    H250444   0.736   3.184  12.012 -0.2117  1.6483 -0.1495
 9677TIP3   OH250445   5.568   5.279   3.036 -0.4826 -0.0050  0.6995
 9677TIP3    H150446   5.504   5.341   3.001 -0.7689  0.2717  1.6965
 9677TIP3    H250447   5.640   5.282   2.974  0.1592  2.4221  1.4648
 9678TIP3   OH250448   5.427   5.763  12.900 -0.4021  0.1336 -0.1500
 9678TIP3    H150449   5.376   5.735  12.824 -0.9801 -0.0302  0.2842
 9678TIP3    H250450   5.442   5.683  12.950  1.1030  0.0275 -0.7350
 9679TIP3   OH250451   3.111   5.961  16.320 -0.1343  0.2140  0.4413
 9679TIP3    H150452   3.044   5.936  16.384 -0.3718  0.8893  0.4641
 9679TIP3    H250453   3.161   5.880  16.305  0.1384  0.1162  1.7312
 9680TIP3   OH250454   3.188   2.188   5.883 -0.0538  0.8693  0.1365
 9680TIP3    H150455   3.099   2.218   5.903 -0.3475  1.6511 -2.0975
 9680TIP3    H250456   3.239   2.268   5.872  0.4277  0.4792 -0.6031
 9681TIP3   OH250457   3.787   4.162  14.003  0.3290 -0.4264  0.0111
 9681TIP3    H150458   3.798   4.200  13.915 -0.9169  0.1970  0.0868
 9681TIP3    H250459   3.715   4.099  13.992  0.1320 -0.3062  0.5835
 9682TIP3   OH250460   0.997   4.363  16.157  0.3044 -0.3820 -0.1926
 9682TIP3    H150461   1.045   4.304  16.099 -0.1716  0.2747 -1.2922
 9682TIP3    H250462   1.060   4.386  16.225  0.7222 -1.5622 -0.1530
 9683TIP3   OH250463   0.577   1.958  12.155 -0.2388 -0.0923  0.0367
 9683TIP3    H150464   0.482   1.963  12.158 -0.2276  0.0668  0.1455
 9683TIP3    H250465   0.606   2.010  12.230 -0.0591  0.1383 -0.1915
 9684TIP3   OH250466   6.148   1.782  11.118 -0.1527 -0.3389  0.0452
 9684TIP3    H150467   6.105   1.867  11.120  0.1469 -0.1804 -0.1703
 9684TIP3    H250468   6.078   1.720  11.096 -0.4206 -0.1815  0.4512
 9685TIP3   OH250469   0.326   5.172  12.503  0.3650  0.1057 -0.0498
 9685TIP3    H150470   0.358   5.098  12.452  1.2348  0.6975 -0.4048
 9685TIP3    H250471   0.233   5.156  12.515  0.3043 -0.4353 -1.1623
 9686TIP3   OH250472   5.382   6.555  14.267 -0.1019  0.4272 -0.0952
 9686TIP3    H150473   5.403   6.637  14.223 -1.3998  0.2362 -1.1324
 9686TIP3    H250474   5.424   6.488  14.213  0.3048  0.3412  0.3191
 9687TIP3   OH250475   5.604   0.824  10.571  0.0984  0.1816 -0.3870
 9687TIP3    H150476   5.560   0.902  10.605 -0.4178 -0.5811  0.7661
 9687TIP3    H250477   5.535   0.776  10.524 -0.3157 -0.9049  1.2329
 9688TIP3   OH250478   3.911   5.146   2.391  0.0280  0.5008  0.1357
 9688TIP3    H150479   3.841   5.211   2.389  0.4036  0.9647  1.0521
 9688TIP3    H250480   3.991   5.198   2.403  0.5544 -0.0023 -1.0631
 9689TIP3   OH250481   6.719   3.628  13.184 -0.4887  0.4772  0.1579
 9689TIP3    H150482   6.783   3.613  13.253 -0.4126 -1.0865 -0.2234
 9689TIP3    H250483   6.759   3.591  13.105 -0.9938  1.3474 -0.5349
 9690TIP3   OH250484   1.485   3.418  13.268  0.0980  0.3480 -0.4300
 9690TIP3    H150485   1.426   3.405  13.342  2.0630  0.8856  1.3276
 9690TIP3    H250486   1.549   3.347  13.277  1.9114  1.9729  0.0434
 9691TIP3   OH250487   4.153   4.752   2.591  0.3040  0.2872 -0.2860
 9691TIP3    H150488   4.146   4.664   2.626 -0.2272  0.1440 -0.7505
 9691TIP3    H250489   4.068   4.770   2.550  1.1697  0.0975 -2.2902
 9692TIP3   OH250490   3.720   6.178  16.618  0.2229 -0.3076  0.4555
 9692TIP3    H150491   3.771   6.116  16.670  0.1066  1.4961  2.8525
 9692TIP3    H250492   3.785   6.239  16.583  0.1682 -0.8359 -0.6264
 9693TIP3   OH250493   3.923   4.337  11.264 -0.3466  0.1078  0.4007
 9693TIP3    H150494   3.951   4.340  11.173  0.1229  3.4146  0.5000
 9693TIP3    H250495   4.004   4.324  11.314 -0.5405 -1.2369  0.3808
 9694TIP3   OH250496   0.735   2.582  17.310  0.4817 -0.5210  0.0631
 9694TIP3    H150497   0.679   2.512  17.340  0.0919 -0.5151 -0.6257
 9694TIP3    H250498   0.797   2.597  17.382  1.2841 -2.3125 -0.2159
 9695TIP3   OH250499   2.368   4.630  11.066  0.0969  0.3220 -0.9087
 9695TIP3    H150500   2.463   4.639  11.061  0.7207 -3.2155  1.0805
 9695TIP3    H250501   2.350   4.544  11.029 -2.6005  1.4557 -2.5286
 9696TIP3   OH250502   5.928   0.552  11.274  0.1002  0.0813 -0.6957
 9696TIP3    H150503   5.921   0.589  11.363 -0.2179  0.4828 -0.8857
 9696TIP3    H250504   5.964   0.464  11.288 -2.1664 -0.7928  0.0545
 9697TIP3   OH250505   0.067   1.129   5.076  0.3984  0.7466  0.2218
 9697TIP3    H150506   0.050   1.191   5.147 -1.7864  0.7740 -0.2656
 9697TIP3    H250507   0.149   1.160   5.037 -0.0771  2.6966  0.6517
 9698TIP3   OH250508   4.713   3.878   4.237 -0.0527 -0.2878 -0.1316
 9698TIP3    H150509   4.706   3.799   4.291 -3.6221 -1.7375 -2.3337
 9698TIP3    H250510   4.694   3.950   4.297 -0.2177 -1.4527  1.2664
 9699TIP3   OH250511   1.323   6.449   1.828 -0.0670 -0.6722  0.0771
 9699TIP3    H150512   1.274   6.393   1.768  0.2001 -1.9169  0.9919
 9699TIP3    H250513   1.398   6.396   1.854  0.1639  0.0997  1.0128
 9700TIP3   OH250514   1.549   2.620   4.299  0.5991  0.2367 -0.1645
 9700TIP3    H150515   1.462   2.584   4.288  1.9830 -3.0359 -1.6443
 9700TIP3    H250516   1.548   2.703   4.250 -1.5778  0.1692 -0.2901
 9701TIP3   OH250517   1.835   1.950   4.482 -0.0350  0.3165  0.0801
 9701TIP3    H150518   1.898   1.897   4.531 -0.7587 -0.1751  0.4957
 9701TIP3    H250519   1.749   1.925   4.517 -0.5324  0.3341 -1.0839
 9702TIP3   OH250520   5.498   3.944  14.406  0.2677 -0.6364  0.6532
 9702TIP3    H150521   5.552   3.912  14.477 -0.1952 -0.5863  1.0362
 9702TIP3    H250522   5.411   3.955  14.445 -0.5349 -2.6190 -0.4045
 9703TIP3   OH250523   1.657   4.667   1.703  0.6717  0.5356 -0.2241
 9703TIP3    H150524   1.734   4.641   1.652  1.8443  2.4001  0.4803
 9703TIP3    H250525   1.594   4.597   1.688  2.9472 -1.7630  0.2354
 9704TIP3   OH250526   0.120   6.390  17.054  0.2673  0.4834 -0.8558
 9704TIP3    H150527   0.195   6.438  17.089 -0.8475  2.6691 -1.3490
 9704TIP3    H250528   0.077   6.355  17.132  0.2589  1.5719 -0.3506
 9705TIP3   OH250529   0.831   2.102  14.492  0.0266 -0.2924  0.3300
 9705TIP3    H150530   0.798   2.167  14.555 -0.4336  1.2736 -1.4182
 9705TIP3    H250531   0.754   2.073  14.445  0.6230  0.6974 -1.3710
 9706TIP3   OH250532   0.801   2.403  15.847  0.7777 -0.9119 -0.0741
 9706TIP3    H150533   0.835   2.460  15.916  3.2433 -1.2151 -0.9243
 9706TIP3    H250534   0.849   2.321  15.859 -1.0522 -2.0468 -0.2659
 9707TIP3   OH250535   4.427   0.010  12.949  0.1894 -0.6396  0.7921
 9707TIP3    H150536   4.355   0.041  13.005  0.7436 -0.1574  1.2458
 9707TIP3    H250537   4.446  -0.078  12.980  0.3909 -0.4307  1.2632
 9708TIP3   OH250538   5.155   1.453  14.361  0.5044 -0.4552 -0.2383
 9708TIP3    H150539   5.185   1.451  14.270  2.4428  0.0239  0.3415
 9708TIP3    H250540   5.164   1.362  14.391  1.7674 -0.2750  0.0077
 9709TIP3   OH250541   2.309   1.124   4.717 -0.1679  0.3388  0.3858
 9709TIP3    H150542   2.300   1.199   4.776  0.4247 -0.2189  1.2251
 9709TIP3    H250543   2.282   1.049   4.770  0.1282 -0.1477 -0.1343
 9710TIP3   OH250544   5.008   3.147  14.199 -0.8519  0.4777 -0.5103
 9710TIP3    H150545   4.918   3.170  14.176 -0.7195  1.0550 -0.4624
 9710TIP3    H250546   5.022   3.060  14.159 -1.8561 -0.2224  0.6131
 9711TIP3   OH250547   1.037   5.949   0.583  0.1842  0.5397 -0.3159
 9711TIP3    H150548   1.004   5.955   0.493 -0.5740  0.5249 -0.0498
 9711TIP3    H250549   0.958   5.947   0.637  0.5366 -1.8154  0.2284
 9712TIP3   OH250550   1.838   3.235  17.147 -0.2378  0.4244  0.1038
 9712TIP3    H150551   1.830   3.311  17.204  0.7097  0.9522 -0.4488
 9712TIP3    H250552   1.909   3.257  17.088 -0.7300 -0.4145 -0.8218
 9713TIP3   OH250553   1.674   1.777  14.570  0.1211 -0.0035  0.2281
 9713TIP3    H150554   1.723   1.852  14.535 -1.3679  1.5017  1.2251
 9713TIP3    H250555   1.584   1.792  14.542  0.0610 -2.4508 -1.1462
 9714TIP3   OH250556   4.547   0.370   5.063 -0.1328  0.0056  0.0733
 9714TIP3    H150557   4.571   0.286   5.102  0.0344 -0.1593 -0.3788
 9714TIP3    H250558   4.508   0.347   4.978 -0.3847  0.3652  0.0889
 9715TIP3   OH250559   5.231   2.052  17.070  0.1729  0.1112 -0.1416
 9715TIP3    H150560   5.271   2.056  17.157 -0.4451 -0.1424  0.1602
 9715TIP3    H250561   5.148   2.007  17.084 -0.4249  1.0256 -0.6940
 9716TIP3   OH250562   0.082   0.819  15.724 -0.2382 -0.5878 -0.0702
 9716TIP3    H150563   0.005   0.783  15.679 -0.4021 -0.6869  0.2756
 9716TIP3    H250564   0.155   0.766  15.693 -0.1121  0.2811 -1.3096
 9717TIP3   OH250565   5.569   2.860   2.369  0.4337  0.1865 -0.6349
 9717TIP3    H150566   5.493   2.916   2.352  1.0012  1.4811  0.8098
 9717TIP3    H250567   5.643   2.908   2.332  0.9005  0.3226  0.4247
 9718TIP3   OH250568   0.403   1.501   3.937  0.0245  0.8489  0.5703
 9718TIP3    H150569   0.348   1.526   3.862  0.2272  0.3695  0.2527
 9718TIP3    H250570   0.364   1.547   4.011  0.0236  1.6050  0.1150
 9719TIP3   OH250571   1.395   0.339  12.847 -0.3381  0.0932  0.1609
 9719TIP3    H150572   1.348   0.372  12.769  0.3758 -1.1919 -0.8563
 9719TIP3    H250573   1.465   0.403  12.861  0.7140 -0.6118 -1.4708
 9720TIP3   OH250574   5.890   3.089  13.765 -0.0207 -0.2948  0.1260
 9720TIP3    H150575   5.937   3.016  13.724  0.7711  0.3704 -0.1831
 9720TIP3    H250576   5.887   3.067  13.858 -0.5657 -1.1325 -0.0762
 9721TIP3   OH250577   1.206   5.859  12.376 -0.0194 -0.3878 -0.2995
 9721TIP3    H150578   1.169   5.819  12.297 -0.0671 -0.3309 -0.3064
 9721TIP3    H250579   1.206   5.953  12.357 -0.1473 -0.3647 -0.1812
 9722TIP3   OH250580   5.921   3.389   4.373  0.5340 -0.0772  0.5594
 9722TIP3    H150581   5.870   3.329   4.319  0.1900 -1.9313  2.8213
 9722TIP3    H250582   6.007   3.392   4.330  0.1170 -1.0306 -0.3908
 9723TIP3   OH250583   5.657   4.178   5.165 -0.5419 -0.1775  0.5125
 9723TIP3    H150584   5.613   4.263   5.170 -1.0927 -0.4105 -0.1352
 9723TIP3    H250585   5.588   4.117   5.138  0.2386 -0.4956 -0.8543
 9724TIP3   OH250586   4.833   5.603  13.900  0.6196  0.6800 -0.1686
 9724TIP3    H150587   4.900   5.535  13.887 -0.1735 -0.4950  1.4950
 9724TIP3    H250588   4.880   5.685  13.886  1.9429 -0.1665 -0.9428
 9725TIP3   OH250589   2.884   2.315  17.117  0.1016 -0.1978 -1.1089
 9725TIP3    H150590   2.912   2.346  17.031 -0.1506  0.3926 -0.9874
 9725TIP3    H250591   2.958   2.266  17.151 -0.6018 -2.4862 -2.6280
 9726TIP3   OH250592   4.149   0.213   3.262  0.9165 -0.4722 -0.3940
 9726TIP3    H150593   4.179   0.197   3.351  3.3374 -2.5507 -1.4699
 9726TIP3    H250594   4.098   0.294   3.268  0.0891 -1.0883  3.0104
 9727TIP3   OH250595   0.974   1.780   1.441 -0.0664 -0.1936 -0.0386
 9727TIP3    H150596   0.928   1.696   1.446  0.8033 -0.7379 -0.8047
 9727TIP3    H250597   1.014   1.791   1.527 -0.8031 -0.1819  0.3164
 9728TIP3   OH250598   2.932   0.471  15.401 -0.0700  0.0998  0.3513
 9728TIP3    H150599   2.899   0.487  15.312  2.6875  0.0216 -0.7914
 9728TIP3    H250600   2.937   0.557  15.440  0.1352  0.3112 -0.1292
 9729TIP3   OH250601   6.084   6.697   5.246 -0.2717  0.2783  0.4076
 9729TIP3    H150602   6.156   6.754   5.222 -1.1651  1.4888  0.4961
 9729TIP3    H250603   6.008   6.734   5.201 -0.6345 -1.7294 -0.7660
 9730TIP3   OH250604   0.785   5.104  14.650  0.2468  0.4103 -0.2024
 9730TIP3    H150605   0.846   5.047  14.697 -0.4040  0.0321  0.1939
 9730TIP3    H250606   0.723   5.133  14.716  0.5957  1.6525 -0.3787
 9731TIP3   OH250607   3.780   0.194  14.666  0.5128 -0.1840  0.0525
 9731TIP3    H150608   3.811   0.231  14.584  0.0104 -2.0577 -1.0413
 9731TIP3    H250609   3.853   0.142  14.698 -0.1991 -1.6694 -0.6561
 9732TIP3   OH250610   6.561   2.378  15.143  0.9491  0.6189  0.4563
 9732TIP3    H150611   6.562   2.468  15.175  0.5508  1.1444 -0.9559
 9732TIP3    H250612   6.636   2.336  15.187  1.5673  1.8260  0.5953
 9733TIP3   OH250613   1.351   5.436   0.046 -0.0436  0.0663  0.0399
 9733TIP3    H150614   1.392   5.521   0.030 -1.0227  0.3440 -1.0959
 9733TIP3    H250615   1.263   5.456   0.077 -0.0349 -0.5399  0.4873
 9734TIP3   OH250616   4.867   0.306   1.068  0.3929 -0.4569  0.3679
 9734TIP3    H150617   4.834   0.319   1.157  1.6731 -0.8588  0.9182
 9734TIP3    H250618   4.878   0.211   1.060 -3.4331 -0.9333 -1.6275
 9735TIP3   OH250619   1.161   5.948   1.387  0.6597  0.0025 -0.0522
 9735TIP3    H150620   1.071   5.952   1.355  0.3696 -0.6400  0.6479
 9735TIP3    H250621   1.215   5.950   1.308  0.0630  0.9751 -0.4572
 9736TIP3   OH250622   6.576   5.555  11.081 -0.5215  0.2396  0.0987
 9736TIP3    H150623   6.581   5.639  11.126  0.0041  1.1888 -1.6624
 9736TIP3    H250624   6.486   5.550  11.050 -1.4972 -1.3274  2.7998
 9737TIP3   OH250625   1.275   3.962   3.278 -0.1955  0.2429 -0.2290
 9737TIP3    H150626   1.310   4.045   3.245 -1.0386  1.0322  0.8183
 9737TIP3    H250627   1.234   3.984   3.361  0.4394 -1.4130  0.5755
 9738TIP3   OH250628   3.507   4.828  15.760  0.3066  0.5883  0.3171
 9738TIP3    H150629   3.498   4.920  15.786  0.0532  1.2971 -2.0296
 9738TIP3    H250630   3.440   4.816  15.692 -1.2844 -2.0298  2.1559
 9739TIP3   OH250631   1.857   1.647   2.396 -0.5693 -0.7229  0.0064
 9739TIP3    H150632   1.784   1.709   2.402 -0.1715 -0.2495 -0.0605
 9739TIP3    H250633   1.878   1.626   2.487 -0.8242 -0.9052  0.0252
 9740TIP3   OH250634   5.865   4.184  15.372 -0.4725  0.2885 -0.0077
 9740TIP3    H150635   5.928   4.254  15.351  0.9513 -0.5518  1.2302
 9740TIP3    H250636   5.851   4.139  15.289  0.3878  0.6662 -0.3739
 9741TIP3   OH250637   0.286   4.159   0.383  0.0435 -0.1611  0.1400
 9741TIP3    H150638   0.302   4.117   0.298 -1.6081 -0.1472 -0.2155
 9741TIP3    H250639   0.222   4.228   0.363  1.2165  1.2611  1.0502
 9742TIP3   OH250640   2.780   5.751   2.950 -0.1799 -0.2474  0.0481
 9742TIP3    H150641   2.825   5.728   3.032  0.4177  0.4244 -0.0810
 9742TIP3    H250642   2.711   5.685   2.941 -0.3388 -0.2537  1.1598
 9743TIP3   OH250643   1.218   4.017  11.588 -0.5533 -0.4307  0.9320
 9743TIP3    H150644   1.306   3.982  11.573 -0.2079  0.5493  0.5869
 9743TIP3    H250645   1.207   4.016  11.683 -0.1457 -0.5061  0.9801
 9744TIP3   OH250646   2.835   4.074  15.441  0.3394 -0.1876  0.2116
 9744TIP3    H150647   2.797   4.085  15.528 -0.6032  1.4921 -0.3635
 9744TIP3    H250648   2.828   3.981  15.423 -1.0804 -0.3124  1.2427
 9745TIP3   OH250649   3.786   1.265  13.129  0.1078  0.3451  0.6466
 9745TIP3    H150650   3.837   1.293  13.205  1.9924  0.3800 -0.5830
 9745TIP3    H250651   3.805   1.331  13.062 -0.7758 -0.2039 -0.1665
 9746TIP3   OH250652   2.896   1.755   5.405 -0.0812 -0.0305 -0.7545
 9746TIP3    H150653   2.866   1.727   5.491  0.3802 -0.0622 -0.6013
 9746TIP3    H250654   2.923   1.846   5.418  1.9011 -0.6261 -0.3715
 9747TIP3   OH250655   5.144   6.507   3.740  0.2220  0.0247 -0.2564
 9747TIP3    H150656   5.216   6.546   3.690  0.6016  0.1844  0.4045
 9747TIP3    H250657   5.074   6.572   3.734  0.4027  0.2223 -0.2517
 9748TIP3   OH250658   5.992   3.700   5.811  0.6466 -0.1686 -0.5923
 9748TIP3    H150659   6.015   3.793   5.816  2.4697 -0.5671 -0.7824
 9748TIP3    H250660   5.973   3.675   5.901  0.3790  0.3258 -0.5063
 9749TIP3   OH250661   0.920   5.833   2.717  0.3192 -0.1810 -0.4540
 9749TIP3    H150662   0.836   5.806   2.755 -0.8338  2.1261 -1.1794
 9749TIP3    H250663   0.986   5.789   2.771 -1.3164 -2.5755 -0.2531
 9750TIP3   OH250664   5.476   1.882   0.193 -0.1117  0.3746  0.2816
 9750TIP3    H150665   5.546   1.947   0.198  0.4642 -0.2597  0.7165
 9750TIP3    H250666   5.398   1.932   0.171  0.1299  1.3494  1.5427
 9751TIP3   OH250667   0.712   3.320   4.088  0.4329  0.1989 -0.0351
 9751TIP3    H150668   0.772   3.265   4.138 -0.6863 -0.2041  0.9172
 9751TIP3    H250669   0.678   3.382   4.152  0.3206  0.8268 -0.7019
 9752TIP3   OH250670   0.656   0.207  16.575  0.2771 -0.3560  0.2472
 9752TIP3    H150671   0.718   0.263  16.622 -0.2512  0.5441 -0.1080
 9752TIP3    H250672   0.691   0.201  16.487  0.2563 -0.4723  0.2464
 9753TIP3   OH250673   4.082   1.382  11.349 -0.4547  0.4186  0.3920
 9753TIP3    H150674   4.172   1.353  11.337 -0.6579  0.0290 -0.1875
 9753TIP3    H250675   4.073   1.457  11.290 -0.9988 -0.5682 -0.8238
 9754TIP3   OH250676   4.365   1.527  12.607  0.1145 -0.3436 -0.2112
 9754TIP3    H150677   4.371   1.439  12.643  1.1614  0.3221  1.3536
 9754TIP3    H250678   4.379   1.515  12.513  0.9093 -1.7906  0.0587
 9755TIP3   OH250679   1.934   2.424   0.257 -0.1804  0.3853  0.6513
 9755TIP3    H150680   1.842   2.412   0.232 -0.0375  0.6508 -0.0354
 9755TIP3    H250681   1.968   2.485   0.191  1.3869 -2.3464 -1.2720
 9756TIP3   OH250682   5.105   0.586   1.772 -0.1131  0.1266 -0.0812
 9756TIP3    H150683   5.126   0.499   1.738 -0.5916  0.8575 -2.4509
 9756TIP3    H250684   5.176   0.642   1.740  0.0685  0.7003  1.2283
 9757TIP3   OH250685   4.659   6.168  14.855 -0.3553  0.5640 -0.0498
 9757TIP3    H150686   4.743   6.148  14.897 -0.9208 -1.0925  0.3415
 9757TIP3    H250687   4.661   6.263  14.842  0.7542  0.8196  1.7061
 9758TIP3   OH250688   0.064   0.982   5.683 -0.3382  0.0004  0.0099
 9758TIP3    H150689  -0.030   0.996   5.674 -0.3503  0.0861  0.2658
 9758TIP3    H250690   0.075   0.955   5.774  0.2173  2.8430  0.8824
 9759TIP3   OH250691   5.495   1.295   3.059 -0.4943  1.0433 -1.1047
 9759TIP3    H150692   5.501   1.207   3.022  1.6506  0.5827  0.1629
 9759TIP3    H250693   5.405   1.321   3.044 -1.4612 -1.7439 -0.7195
 9760TIP3   OH250694   1.373   2.097   1.524  0.1424 -0.2500 -0.0859
 9760TIP3    H150695   1.380   2.002   1.537 -0.8680 -0.3529 -0.1832
 9760TIP3    H250696   1.453   2.132   1.562  1.4853 -1.2968 -1.7797
 9761TIP3   OH250697   1.611   4.100  16.236  0.1565  0.3789 -0.2037
 9761TIP3    H150698   1.535   4.110  16.293 -0.2972 -2.2243 -0.1907
 9761TIP3    H250699   1.577   4.118  16.148 -0.5303 -0.6915 -0.1906
 9762TIP3   OH250700   0.574   4.184  12.969 -0.2562 -0.1422  0.1438
 9762TIP3    H150701   0.618   4.099  12.960  0.7364  0.3101  0.5646
 9762TIP3    H250702   0.620   4.241  12.906 -1.6861 -0.1925 -1.0015
 9763TIP3   OH250703   2.141   5.781  11.819 -0.0186  0.2317  0.0020
 9763TIP3    H150704   2.166   5.818  11.734 -1.9287 -0.3375 -0.8532
 9763TIP3    H250705   2.199   5.705  11.829 -0.3972 -0.2385 -1.2421
 9764TIP3   OH250706   1.569   2.982   0.503 -0.4419  0.0096 -0.2093
 9764TIP3    H150707   1.504   3.011   0.439 -1.7156 -0.6950  0.7210
 9764TIP3    H250708   1.596   2.895   0.472  0.5697  0.5559 -0.9378
 9765TIP3   OH250709   4.621   3.825   2.524 -0.2141 -0.4757 -0.1076
 9765TIP3    H150710   4.698   3.786   2.565 -0.3700  0.4611  1.1208
 9765TIP3    H250711   4.654   3.866   2.444  0.5869 -0.0289  0.4373
 9766TIP3   OH250712   4.181   1.838   3.752  0.6139  0.2582 -0.1897
 9766TIP3    H150713   4.168   1.745   3.770  0.4785  0.3662  0.2836
 9766TIP3    H250714   4.145   1.883   3.829  1.9475  0.6501  0.2416
 9767TIP3   OH250715   2.661   0.560   3.795 -0.0813 -0.2942 -0.2296
 9767TIP3    H150716   2.662   0.636   3.736  1.0378  1.5864  2.0327
 9767TIP3    H250717   2.569   0.538   3.806 -0.3785  0.2831 -1.4800
 9768TIP3   OH250718   3.594   4.948   1.440 -1.2249  0.0117  0.4674
 9768TIP3    H150719   3.632   5.002   1.371  1.1137  0.7579  2.1870
 9768TIP3    H250720   3.502   4.938   1.416 -0.9193  1.8139 -1.7348
 9769TIP3   OH250721   0.334   1.437   3.173  0.2246 -0.5810  0.1325
 9769TIP3    H150722   0.283   1.489   3.234  0.8400 -0.3829  0.4855
 9769TIP3    H250723   0.313   1.473   3.087 -2.3648 -2.2793 -0.0567
 9770TIP3   OH250724   1.597   4.296   4.384  0.8216 -0.0312 -0.0366
 9770TIP3    H150725   1.690   4.275   4.391  0.6080 -0.7963  0.8056
 9770TIP3    H250726   1.564   4.236   4.317  0.9480  0.2947 -0.3920
 9771TIP3   OH250727   1.150   1.938  14.712  0.5585  0.4100 -0.3237
 9771TIP3    H150728   1.112   2.002  14.653 -1.0171 -1.8701 -1.9031
 9771TIP3    H250729   1.080   1.918  14.774  0.2722 -1.2793 -1.1429
 9772TIP3   OH250730   2.005   3.584   0.768  0.2036  0.1896 -0.5113
 9772TIP3    H150731   2.069   3.518   0.743  0.4751 -0.5818  1.9429
 9772TIP3    H250732   2.027   3.660   0.713  1.4987 -0.9189 -1.6058
 9773TIP3   OH250733   3.399   4.412  11.231 -0.6755 -0.5497 -0.0357
 9773TIP3    H150734   3.491   4.419  11.206 -0.8080  0.5831 -0.2784
 9773TIP3    H250735   3.401   4.413  11.327 -0.4341 -0.5929 -0.0388
 9774TIP3   OH250736   2.619   6.173   0.464  0.3830  0.1011 -0.1101
 9774TIP3    H150737   2.710   6.191   0.444  0.3850  0.0829 -0.1174
 9774TIP3    H250738   2.572   6.251   0.434  0.1628 -0.6593 -1.8546
 9775TIP3   OH250739   0.706   3.958   6.526  0.0592  0.1452 -0.1172
 9775TIP3    H150740   0.675   3.991   6.611 -0.4378 -0.4387 -0.0631
 9775TIP3    H250741   0.773   4.021   6.499 -0.0426  0.5454  0.5314
 9776TIP3   OH250742   0.252   6.137   4.966 -0.0887 -0.1311  0.0453
 9776TIP3    H150743   0.160   6.113   4.979 -0.0735 -0.1252  0.1647
 9776TIP3    H250744   0.280   6.174   5.050  0.3301 -1.1522  0.3744
 9777TIP3   OH250745   2.186   1.319  13.624  0.2835 -0.6504  0.3147
 9777TIP3    H150746   2.202   1.235  13.582  1.1951 -0.7335  0.8137
 9777TIP3    H250747   2.135   1.369  13.560  0.7853 -1.1387 -0.4792
 9778TIP3   OH250748   3.068   3.365  11.756  0.1235 -0.3879 -0.5454
 9778TIP3    H150749   2.998   3.429  11.741  0.2286 -0.3872 -1.0772
 9778TIP3    H250750   3.028   3.281  11.736 -0.3573 -0.6265  1.3068
 9779TIP3   OH250751   2.433   2.472   0.696  0.4837 -0.3165 -0.2531
 9779TIP3    H150752   2.404   2.411   0.764  0.4803 -0.5347 -0.4479
 9779TIP3    H250753   2.433   2.420   0.615  1.5796 -0.3770 -0.2291
 9780TIP3   OH250754   2.774   4.162   6.204  1.1357  0.7249  0.3890
 9780TIP3    H150755   2.816   4.118   6.130 -0.0118 -0.8530  0.6317
 9780TIP3    H250756   2.769   4.095   6.272  0.2183  1.5219  1.1302
 9781TIP3   OH250757   3.000   6.572   2.586  0.0973 -0.1106 -0.0877
 9781TIP3    H150758   3.006   6.656   2.632  0.0120  1.9718 -3.5294
 9781TIP3    H250759   3.091   6.541   2.582  0.5894  1.3919 -1.3569
 9782TIP3   OH250760   2.670   3.608  14.742 -0.1504  0.0899 -0.9484
 9782TIP3    H150761   2.661   3.594  14.836  1.4056  0.5156 -0.7198
 9782TIP3    H250762   2.601   3.671  14.721  0.7027  1.5050  0.2889
 9783TIP3   OH250763   1.249   5.662  15.884  0.0674  0.5287 -0.4857
 9783TIP3    H150764   1.281   5.658  15.794 -0.6785  1.1320 -0.7880
 9783TIP3    H250765   1.174   5.721  15.880  0.3666  1.0143  0.6315
 9784TIP3   OH250766   0.859   4.039   3.508  0.1574  0.7962 -0.1227
 9784TIP3    H150767   0.839   4.121   3.462 -1.1139  0.3128 -0.4734
 9784TIP3    H250768   0.880   3.977   3.438  0.9321  0.7563  0.1325
 9785TIP3   OH250769   6.412   4.256  12.253  0.3734 -0.1066 -0.1082
 9785TIP3    H150770   6.489   4.201  12.265 -0.2654 -0.8210  0.8752
 9785TIP3    H250771   6.344   4.215  12.308 -0.0074  1.8877  1.0255
 9786TIP3   OH250772   3.028   5.419   5.958  0.5630  0.4719  1.0624
 9786TIP3    H150773   2.940   5.454   5.975  0.3591  0.5060  0.0172
 9786TIP3    H250774   3.042   5.354   6.027 -0.5252  0.0498  0.9125
 9787TIP3   OH250775   5.140   5.529   5.763 -0.5409  0.3043  0.0383
 9787TIP3    H150776   5.050   5.552   5.739 -0.4685  0.7653  0.1873
 9787TIP3    H250777   5.137   5.435   5.780 -1.4669  0.6489  2.0640
 9788TIP3   OH250778   2.621   1.547   2.660  0.1716  0.9766 -0.0858
 9788TIP3    H150779   2.654   1.581   2.743 -0.3789  0.3987  0.3776
 9788TIP3    H250780   2.592   1.624   2.612  1.2376  1.3989 -0.0863
 9789TIP3   OH250781   2.205   1.680  12.550  0.4625  0.0689 -0.4105
 9789TIP3    H150782   2.157   1.751  12.593 -0.2999 -1.0647  0.6707
 9789TIP3    H250783   2.194   1.605  12.608  0.4228 -1.2124 -2.0045
 9790TIP3   OH250784   1.932   3.614   5.217  0.4779  0.1863  0.1415
 9790TIP3    H150785   1.897   3.587   5.302 -1.1415  0.3885 -0.4171
 9790TIP3    H250786   1.863   3.669   5.179  1.5436  0.8410 -0.9286
 9791TIP3   OH250787   3.360   4.018  16.696 -0.5308 -0.2172  0.7720
 9791TIP3    H150788   3.426   4.042  16.762 -1.3674  1.1713  1.1358
 9791TIP3    H250789   3.285   4.073  16.716 -1.3226 -0.7991 -0.4913
 9792TIP3   OH250790   0.890   2.741   2.455  0.9967 -0.2315  0.4141
 9792TIP3    H150791   0.818   2.784   2.501  0.4435 -1.6303  0.9414
 9792TIP3    H250792   0.861   2.735   2.364  1.7716  1.8790 -0.0158
 9793TIP3   OH250793   3.301   2.536   5.821  0.2529 -0.2601  0.1573
 9793TIP3    H150794   3.327   2.615   5.774  0.0597 -0.9104 -1.0771
 9793TIP3    H250795   3.365   2.469   5.795 -1.5392 -1.4263 -1.6167
 9794TIP3   OH250796   3.907   0.185   5.371 -0.7063  0.0035  0.0804
 9794TIP3    H150797   3.831   0.238   5.393 -1.0975 -0.5944  0.2109
 9794TIP3    H250798   3.929   0.140   5.453 -0.8591 -0.6213 -0.2176
 9795TIP3   OH250799   1.253   0.131  16.238 -0.3277 -0.1750 -0.8891
 9795TIP3    H150800   1.197   0.131  16.316 -3.1632  1.3312 -2.7691
 9795TIP3    H250801   1.197   0.098  16.168  2.2495 -1.8590 -2.3367
 9796TIP3   OH250802   1.820   1.638  15.710  0.0406  1.1019  0.5072
 9796TIP3    H150803   1.835   1.676  15.624  2.6559 -2.0413 -0.6636
 9796TIP3    H250804   1.727   1.618  15.712 -0.0135  0.9228 -1.7802
 9797TIP3   OH250805   4.324   6.445   4.799  0.4508 -0.2007  0.2153
 9797TIP3    H150806   4.396   6.463   4.860  0.7735 -1.5566  0.2766
 9797TIP3    H250807   4.342   6.356   4.767 -0.1299  0.1832 -1.2704
 9798TIP3   OH250808   1.841   0.137  15.540 -0.5487  0.2706 -0.1767
 9798TIP3    H150809   1.911   0.072  15.538 -0.0053  0.8481 -0.5882
 9798TIP3    H250810   1.885   0.218  15.566 -0.7898  0.9431 -1.7412
 9799TIP3   OH250811   6.622   3.273   0.823  0.3541 -0.1441 -0.0629
 9799TIP3    H150812   6.578   3.243   0.902 -0.7913  0.0509 -0.6022
 9799TIP3    H250813   6.572   3.234   0.751 -0.6239  2.2338 -0.7660
 9800TIP3   OH250814   5.486   5.780   6.577 -0.2732 -0.0292  0.3541
 9800TIP3    H150815   5.500   5.698   6.624  0.4525  0.1687  0.4998
 9800TIP3    H250816   5.544   5.842   6.620 -1.4234  0.7771  0.7820
 9801TIP3   OH250817   3.359   5.808   0.897 -1.0464  0.0675  0.8764
 9801TIP3    H150818   3.331   5.784   0.985 -0.2657  2.6278  1.9127
 9801TIP3    H250819   3.287   5.780   0.840 -1.7301 -1.2975  2.3462
 9802TIP3   OH250820   6.021   2.620  17.056  0.0931  0.2866 -0.2002
 9802TIP3    H150821   5.967   2.542  17.052  0.9854 -0.3917  0.4140
 9802TIP3    H250822   6.010   2.652  17.146  0.5870  0.2191 -0.1098
 9803TIP3   OH250823   3.822   2.813  14.654  0.9459 -0.1493 -0.2669
 9803TIP3    H150824   3.818   2.786  14.746  1.1972 -0.6687 -0.4087
 9803TIP3    H250825   3.843   2.907  14.658 -2.2385  0.6638  0.2815
 9804TIP3   OH250826   6.074   1.753   0.630 -0.4807  0.5094  0.2565
 9804TIP3    H150827   5.996   1.805   0.646 -0.3076  1.0345 -0.5469
 9804TIP3    H250828   6.090   1.762   0.536  2.3314  2.9691  0.8257
 9805TIP3   OH250829   1.875   6.404  11.253 -0.0576  0.6086  0.1231
 9805TIP3    H150830   1.850   6.433  11.165  3.0103  1.7277 -0.5105
 9805TIP3    H250831   1.916   6.319  11.239 -2.0327 -0.5367  0.9302
 9806TIP3   OH250832   1.203   1.251   5.828  0.0139  0.1101 -0.6784
 9806TIP3    H150833   1.267   1.294   5.885  0.9618 -1.4406 -0.5350
 9806TIP3    H250834   1.151   1.324   5.792  0.2558  1.2144  1.0985
 9807TIP3   OH250835   3.198   2.366   4.274 -0.2737 -0.4793 -0.1743
 9807TIP3    H150836   3.152   2.323   4.201 -0.3789 -0.7326  0.0404
 9807TIP3    H250837   3.158   2.330   4.352 -0.6399  0.3147  0.0142
 9808TIP3   OH250838   3.236   5.496  12.505  0.0515 -0.2769 -0.1699
 9808TIP3    H150839   3.304   5.561  12.487 -0.1797 -0.1097 -0.4441
 9808TIP3    H250840   3.191   5.485  12.421 -0.7578  0.1857  0.1968
 9809TIP3   OH250841   2.868   3.963  11.313 -0.2404  0.8954 -0.2718
 9809TIP3    H150842   2.903   3.884  11.271  0.6524 -0.1231  2.1842
 9809TIP3    H250843   2.782   3.938  11.346  1.2887 -0.3149  3.3776
 9810TIP3   OH250844   6.558   4.901  11.451 -0.0321  0.3691 -0.1256
 9810TIP3    H150845   6.566   4.852  11.368 -0.6690  1.3798 -0.8019
 9810TIP3    H250846   6.537   4.990  11.424  2.2756  1.3403  1.0256
 9811TIP3   OH250847   4.609   1.319   1.897  0.6810  0.1397  0.0573
 9811TIP3    H150848   4.584   1.256   1.966 -0.9822 -1.9279 -2.2616
 9811TIP3    H250849   4.532   1.375   1.887  0.3072 -0.5632 -1.1223
 9812TIP3   OH250850   0.080   1.998   2.436 -0.3145  0.3521 -0.5915
 9812TIP3    H150851   0.148   1.936   2.410  1.1412  2.2719 -1.6631
 9812TIP3    H250852   0.095   2.013   2.529 -1.0410 -1.2481 -0.1822
 9813TIP3   OH250853   5.742   4.848  13.392  0.0037 -0.1831 -0.0122
 9813TIP3    H150854   5.712   4.896  13.469  1.5958  0.7790  0.0452
 9813TIP3    H250855   5.804   4.784  13.427 -0.5349 -0.9066 -0.3356
 9814TIP3   OH250856   5.888   0.571  12.474 -0.4674 -0.1276  0.4458
 9814TIP3    H150857   5.981   0.590  12.478 -0.5590  0.3030  0.6132
 9814TIP3    H250858   5.868   0.527  12.557 -0.4607  0.0022  0.5161
 9815TIP3   OH250859   5.878   2.991   3.328 -0.2656 -0.7458  0.2386
 9815TIP3    H150860   5.831   2.912   3.352  0.1255 -1.4399 -1.1959
 9815TIP3    H250861   5.960   2.960   3.290  0.1341  0.3566  0.1703
 9816TIP3   OH250862   1.238   3.869  16.861  0.2541  0.7999 -0.2447
 9816TIP3    H150863   1.300   3.931  16.821  1.1015  0.3330  0.2975
 9816TIP3    H250864   1.163   3.922  16.886  1.1180  1.6787  0.5320
 9817TIP3   OH250865   0.235   3.576  13.771 -0.1540  0.3245 -0.6722
 9817TIP3    H150866   0.156   3.548  13.819  0.3188 -1.3544 -0.7966
 9817TIP3    H250867   0.226   3.671  13.764 -1.9901  0.2176 -0.3723
 9818TIP3   OH250868   0.854   6.537   0.417  0.0030 -0.8235 -0.1113
 9818TIP3    H150869   0.879   6.619   0.459 -4.0000  1.5221 -1.7939
 9818TIP3    H250870   0.877   6.549   0.325 -2.4229 -0.6375 -0.7522
 9819TIP3   OH250871   6.751   4.330   2.549  0.1517 -0.0010 -0.0479
 9819TIP3    H150872   6.721   4.392   2.481 -0.2132 -0.3355 -0.1969
 9819TIP3    H250873   6.847   4.335   2.545  0.1252  0.9358  0.2946
 9820TIP3   OH250874   3.672   3.914  15.569 -0.5637 -0.3184  0.2242
 9820TIP3    H150875   3.601   3.898  15.508  2.7674  0.4389 -4.3557
 9820TIP3    H250876   3.658   4.004  15.599 -2.1696 -0.6490  0.5920
 9821TIP3   OH250877   1.816   0.606  15.817  0.0189 -0.1264  0.2018
 9821TIP3    H150878   1.852   0.623  15.730  0.7904  0.1442  0.5655
 9821TIP3    H250879   1.721   0.608  15.804  0.1033  1.1729 -0.3960
 9822TIP3   OH250880   0.561   4.751   6.254  0.1448  0.4359  0.1963
 9822TIP3    H150881   0.643   4.723   6.295 -0.2282  1.5456  1.8009
 9822TIP3    H250882   0.549   4.841   6.285 -1.1139  0.6756 -0.9281
 9823TIP3   OH250883   4.127   5.711   3.903 -0.2770  0.1952  0.0229
 9823TIP3    H150884   4.141   5.698   3.997  1.8307  0.2879 -0.2327
 9823TIP3    H250885   4.089   5.628   3.872 -0.5156 -0.0161  0.8613
 9824TIP3   OH250886   4.334   5.097   4.110  0.4223 -0.3104  0.3017
 9824TIP3    H150887   4.241   5.109   4.096  0.5543 -2.3420 -3.7920
 9824TIP3    H250888   4.341   5.013   4.156  0.2166 -0.1718  0.5803
 9825TIP3   OH250889   2.255   2.795  14.587 -0.8403 -0.1460  0.3840
 9825TIP3    H150890   2.256   2.890  14.578 -1.8852 -0.1706 -0.0545
 9825TIP3    H250891   2.259   2.780  14.681 -1.9680  0.3760  0.5343
 9826TIP3   OH250892   1.127   2.764  17.217 -0.4252 -0.6663 -0.3239
 9826TIP3    H150893   1.050   2.716  17.186  0.0133 -0.1608 -2.3370
 9826TIP3    H250894   1.165   2.707  17.284 -1.9011 -1.4595 -0.1286
 9827TIP3   OH250895   3.981   0.045  11.316  0.0615  0.3205  0.4326
 9827TIP3    H150896   3.913   0.104  11.282  1.9614  2.4521  0.1463
 9827TIP3    H250897   4.002  -0.012  11.242 -0.6750  0.3262  0.2098
 9828TIP3   OH250898   1.857   2.844   1.904 -0.0134 -0.1751 -0.0000
 9828TIP3    H150899   1.836   2.751   1.916 -0.3963 -0.3828 -1.9870
 9828TIP3    H250900   1.794   2.890   1.960  0.4631 -1.0931  1.3441
 9829TIP3   OH250901   5.008   1.671  13.654  0.5371 -0.5794 -0.3704
 9829TIP3    H150902   4.993   1.666  13.559 -0.9377 -1.6087 -0.1175
 9829TIP3    H250903   5.099   1.643  13.665  1.5557  1.8555 -1.6538
 9830TIP3   OH250904   1.753   6.514  11.704  0.2066 -0.4299 -0.2024
 9830TIP3    H150905   1.817   6.578  11.736  0.7224 -0.7636 -0.5536
 9830TIP3    H250906   1.671   6.538  11.748  0.2613  0.7831 -0.7245
 9831TIP3   OH250907   5.476   0.442  15.040  0.0179  0.5791 -0.0359
 9831TIP3    H150908   5.437   0.430  14.953  1.1067 -2.2168 -0.2332
 9831TIP3    H250909   5.565   0.409  15.031  0.3532  0.8329  1.9900
 9832TIP3   OH250910   0.285   5.923   0.974  0.3817  0.0148  0.2330
 9832TIP3    H150911   0.259   5.844   1.023 -2.3298  1.5395  1.4839
 9832TIP3    H250912   0.350   5.965   1.030  0.2610 -0.2566  0.5831
 9833TIP3   OH250913   6.597   4.981   4.284  0.1626  0.0053  0.0172
 9833TIP3    H150914   6.510   4.962   4.249  0.4128 -0.5407 -0.3257
 9833TIP3    H250915   6.656   4.971   4.209  0.3861  1.5813 -0.0406
 9834TIP3   OH250916   2.165   5.898   3.070  0.8620 -0.0378 -0.0978
 9834TIP3    H150917   2.129   5.891   2.981  0.2801  1.1154  0.0335
 9834TIP3    H250918   2.227   5.970   3.066 -0.3129  1.0730  0.7721
 9835TIP3   OH250919   6.385   0.134   5.230  0.7932  0.1336 -0.0674
 9835TIP3    H150920   6.448   0.119   5.301  1.3640  0.7818 -0.4323
 9835TIP3    H250921   6.358   0.225   5.241  2.3726  0.8768 -1.8345
 9836TIP3   OH250922   1.191   0.394   1.826 -0.7757 -0.0766 -0.0469
 9836TIP3    H150923   1.218   0.452   1.755  0.9623 -0.2942  0.4065
 9836TIP3    H250924   1.138   0.450   1.883 -1.3910  0.3383 -1.0011
 9837TIP3   OH250925   5.395   2.978   5.968 -0.4306 -0.3476  0.0116
 9837TIP3    H150926   5.474   2.991   6.021 -0.9258  0.1186  0.6564
 9837TIP3    H250927   5.352   2.902   6.006  0.0327 -1.0054 -0.7549
 9838TIP3   OH250928   4.986   3.560  12.350  0.7530 -0.2308  0.4551
 9838TIP3    H150929   4.921   3.588  12.286  0.1400 -0.6079  0.8997
 9838TIP3    H250930   5.006   3.470  12.326  0.3859 -0.4338  0.8914
 9839TIP3   OH250931   6.643   4.611   2.046 -0.1238  0.0734  0.6238
 9839TIP3    H150932   6.564   4.660   2.067 -0.2334 -0.3438  1.2079
 9839TIP3    H250933   6.695   4.613   2.126 -0.2523 -0.9747  0.7541
 9840TIP3   OH250934   4.799   4.611  11.812  0.0559  0.7358  0.0527
 9840TIP3    H150935   4.709   4.640  11.794  0.6291  1.0899 -2.8330
 9840TIP3    H250936   4.797   4.517  11.792  0.4624  0.9051 -0.8555
 9841TIP3   OH250937   3.476   3.344  12.642  0.2728 -0.0011 -0.0495
 9841TIP3    H150938   3.538   3.417  12.648 -0.0675  0.2515  0.4082
 9841TIP3    H250939   3.410   3.373  12.580 -0.0956  0.2617  0.4536
 9842TIP3   OH250940   5.414   0.016   5.527 -0.0138 -0.3787 -0.4536
 9842TIP3    H150941   5.450  -0.042   5.595  1.5644  0.5108 -0.4892
 9842TIP3    H250942   5.413  -0.038   5.448  0.3618 -0.7030 -0.2398
 9843TIP3   OH250943   6.554   1.081   5.676 -0.2869  0.2626 -0.2008
 9843TIP3    H150944   6.522   1.016   5.614 -0.0158 -0.8235  0.7798
 9843TIP3    H250945   6.526   1.049   5.762 -1.8882  2.4286  0.2030
 9844TIP3   OH250946   2.226   4.161  11.084 -0.2727  0.0530  0.4741
 9844TIP3    H150947   2.249   4.233  11.026  0.3780  0.8744  1.7038
 9844TIP3    H250948   2.310   4.119  11.105 -0.3980  0.2661  1.4380
 9845TIP3   OH250949   6.383   2.732   4.999  0.1541  0.1940  0.5016
 9845TIP3    H150950   6.354   2.667   4.935 -0.1657  0.0187  0.8218
 9845TIP3    H250951   6.411   2.681   5.075  1.1435  0.3696  0.2663
 9846TIP3   OH250952   6.429   3.936   1.406 -0.1247  0.4815  0.7260
 9846TIP3    H150953   6.452   3.961   1.316 -2.3942 -2.4197 -0.8616
 9846TIP3    H250954   6.495   3.871   1.430 -0.3618  0.1677  0.5379
 9847TIP3   OH250955   4.595   0.478   0.138 -0.0776  0.0465 -0.2884
 9847TIP3    H150956   4.677   0.444   0.103 -0.7764 -0.6709 -1.2717
 9847TIP3    H250957   4.600   0.572   0.123  1.2726  0.2642  1.2039
 9848TIP3   OH250958   5.005   5.924  14.442  0.4244 -0.3676 -0.3231
 9848TIP3    H150959   5.066   5.990  14.407 -0.1113  0.5614  0.4410
 9848TIP3    H250960   4.996   5.946  14.535 -0.1189 -1.2546 -0.1513
 9849TIP3   OH250961   4.873   4.110  10.941  0.2616 -0.4184  0.2190
 9849TIP3    H150962   4.871   4.097  10.847 -1.0642 -1.9300  0.4238
 9849TIP3    H250963   4.966   4.124  10.961  0.5498  0.0048 -1.2933
 9850TIP3   OH250964   4.321   0.165   2.123 -0.7857 -0.1846 -0.4813
 9850TIP3    H150965   4.394   0.227   2.121  0.2097 -1.3285 -0.5970
 9850TIP3    H250966   4.247   0.217   2.157  0.1408  0.9174 -0.0592
 9851TIP3   OH250967   5.811   0.596  13.037 -0.1166 -0.7108  0.5190
 9851TIP3    H150968   5.732   0.568  13.083  0.8132  0.1378  2.7745
 9851TIP3    H250969   5.861   0.515  13.025  0.0208 -0.8600  1.8838
 9852TIP3   OH250970   5.715   6.175  13.139  0.4349  0.0289  0.4997
 9852TIP3    H150971   5.715   6.093  13.188 -0.7514  0.1462  0.7098
 9852TIP3    H250972   5.666   6.156  13.059  3.0780 -0.4171 -1.1720
 9853TIP3   OH250973   4.441   3.111   2.467  0.0121  0.2999 -0.4855
 9853TIP3    H150974   4.507   3.161   2.420 -0.4897 -0.5085 -2.1281
 9853TIP3    H250975   4.445   3.023   2.429 -1.6267  0.0798 -0.2468
 9854TIP3   OH250976   5.079   3.435  13.538 -0.0007  0.2685 -0.9104
 9854TIP3    H150977   5.050   3.344  13.531 -0.1756  0.2408  0.0433
 9854TIP3    H250978   5.043   3.465  13.621  1.3962  0.7254 -0.4425
 9855TIP3   OH250979   2.232   5.538   2.152  0.4629  0.5491 -0.7699
 9855TIP3    H150980   2.179   5.499   2.083  1.3731 -2.4366  0.0955
 9855TIP3    H250981   2.184   5.518   2.233  1.2942  0.6837 -0.2373
 9856TIP3   OH250982   6.220   3.481  13.298 -0.1229 -0.1842  0.1042
 9856TIP3    H150983   6.277   3.518  13.230 -1.2464  1.2535 -0.1098
 9856TIP3    H250984   6.175   3.557  13.335 -0.6003 -1.1019  1.4807
 9857TIP3   OH250985   3.129   3.683  17.046 -0.0533 -0.2427 -0.4235
 9857TIP3    H150986   3.220   3.713  17.046  0.4639 -1.7253 -1.2788
 9857TIP3    H250987   3.122   3.627  17.123 -0.0957 -0.5722 -0.6694
 9858TIP3   OH250988   6.476   6.698   5.042 -0.0720  0.2644  0.4056
 9858TIP3    H150989   6.406   6.646   5.002  0.1018  0.1487  0.2482
 9858TIP3    H250990   6.432   6.750   5.109 -0.3264  0.2702  0.2369
 9859TIP3   OH250991   4.245   4.304  12.741  0.0706  0.2079  0.1363
 9859TIP3    H150992   4.257   4.323  12.834 -0.6454 -0.7795  0.4443
 9859TIP3    H250993   4.332   4.317  12.702  0.7002 -0.6977  1.1833
 9860TIP3   OH250994   6.290   2.242  12.833 -0.2618 -0.4414 -0.4242
 9860TIP3    H150995   6.235   2.268  12.907  1.8651  0.8043  0.8282
 9860TIP3    H250996   6.380   2.260  12.862  0.6853  0.0060 -3.2568
 9861TIP3   OH250997   4.280   0.579   2.697 -0.3211  0.2436 -0.5030
 9861TIP3    H150998   4.375   0.578   2.697 -0.3090  0.7977 -1.2714
 9861TIP3    H250999   4.255   0.537   2.615 -0.7596 -0.5208  0.0048
 9862TIP3   OH251000   3.038   2.893   1.904  0.1275 -0.1618  0.1239
 9862TIP3    H151001   2.965   2.955   1.911  0.0540 -0.1328 -0.8155
 9862TIP3    H251002   3.115   2.944   1.928 -0.1679 -0.2481  1.3360
 9863TIP3   OH251003   4.646   6.342   1.255  0.3306  0.3032 -0.3941
 9863TIP3    H151004   4.589   6.278   1.212  1.1652  1.3811 -3.4110
 9863TIP3    H251005   4.726   6.341   1.202  0.9497  2.7015  0.3850
 9864TIP3   OH251006   3.087   3.836  11.073 -0.8616  0.7876 -0.4858
 9864TIP3    H151007   3.056   3.912  11.025 -1.7805  1.3534  0.9500
 9864TIP3    H251008   3.143   3.872  11.142 -0.1924  0.0551 -0.6348
 9865TIP3   OH251009   1.906   4.209   0.940 -0.5006 -0.2276  0.1765
 9865TIP3    H151010   1.965   4.238   1.009  1.1285 -3.4542  0.3339
 9865TIP3    H251011   1.961   4.155   0.882 -2.8449 -1.7610 -0.7907
 9866TIP3   OH251012   1.554   3.290   1.982 -0.6233  0.0903  0.4291
 9866TIP3    H151013   1.484   3.338   1.937 -1.6166 -2.6149 -1.1588
 9866TIP3    H251014   1.529   3.198   1.974  2.6122 -0.9379  0.6876
 9867TIP3   OH251015   1.693   3.495  13.022  0.7876 -0.2530 -0.1190
 9867TIP3    H151016   1.626   3.556  12.992 -2.2021 -2.9647  0.4691
 9867TIP3    H251017   1.771   3.549  13.035 -1.4594  3.2918 -0.0591
 9868TIP3   OH251018   4.707   3.162   2.382 -0.2936  0.1560  0.1949
 9868TIP3    H151019   4.756   3.094   2.429  0.5092  0.7454  0.2473
 9868TIP3    H251020   4.704   3.235   2.444  2.1051  1.5118 -1.1170
 9869TIP3   OH251021   6.617   4.522   2.420 -0.2239 -0.5218  0.1468
 9869TIP3    H151022   6.579   4.558   2.500  1.3623 -0.2642  0.8197
 9869TIP3    H251023   6.543   4.517   2.359 -1.0963  1.1160  0.9843
 9870TIP3   OH251024   5.903   2.544   0.815  0.1866  0.3926  0.3162
 9870TIP3    H151025   5.866   2.491   0.886 -1.5355 -0.4744 -1.1619
 9870TIP3    H251026   5.995   2.553   0.838 -0.3560  0.3758  2.7934
 9871TIP3   OH251027   3.352   6.484  14.472  0.5868  0.0768  0.6072
 9871TIP3    H151028   3.350   6.549  14.402 -0.2203 -0.7208 -0.1324
 9871TIP3    H251029   3.284   6.511  14.533  0.3766  0.0331  0.3927
 9872TIP3   OH251030   4.714   1.864   6.686 -0.2496 -0.1512 -0.1716
 9872TIP3    H151031   4.715   1.897   6.596  0.4901 -0.5108 -0.3038
 9872TIP3    H251032   4.642   1.911   6.728  1.2411  2.2765 -0.1188
 9873TIP3   OH251033   4.434   4.857   1.936  0.0602  0.1277  0.0436
 9873TIP3    H151034   4.359   4.878   1.880  1.5836  0.3623 -2.0283
 9873TIP3    H251035   4.400   4.793   1.998 -1.8715  0.2877 -0.7678
 9874TIP3   OH251036   0.830   6.186  10.369  0.0165 -0.3824 -0.3911
 9874TIP3    H151037   0.892   6.118  10.346  0.6286 -0.0390  0.2143
 9874TIP3    H251038   0.748   6.139  10.388  0.4861 -0.9690  0.2229
 9875TIP3   OH251039   3.984   5.935  10.816  1.0638  0.2724 -0.1922
 9875TIP3    H151040   3.973   6.017  10.767  0.8861 -0.2020 -0.9709
 9875TIP3    H251041   3.912   5.936  10.879 -0.3403 -0.3068 -1.6892
 9876TIP3   OH251042   6.648   0.684   0.166 -0.0684 -0.4061  0.4279
 9876TIP3    H151043   6.681   0.763   0.209  0.3770 -0.4013  0.0822
 9876TIP3    H251044   6.554   0.699   0.157  0.0949  0.3219 -0.1320
 9877TIP3   OH251045   2.087   2.784   1.436 -0.6432  0.1248  0.0434
 9877TIP3    H151046   2.098   2.819   1.524 -0.1596 -3.4112  1.5576
 9877TIP3    H251047   1.998   2.808   1.412 -1.4955 -0.4811  2.3469
 9878TIP3   OH251048   0.105   3.645  15.236  0.4119 -0.5969 -1.3480
 9878TIP3    H151049   0.038   3.680  15.295  0.5693 -1.4256 -0.6441
 9878TIP3    H251050   0.186   3.684  15.267  0.3969 -0.4673 -1.4748
 9879TIP3   OH251051   4.307   6.727   3.788  0.0346  0.1130  0.1960
 9879TIP3    H151052   4.238   6.741   3.854  0.7683  0.2089  0.9625
 9879TIP3    H251053   4.263   6.741   3.704 -1.1291 -0.8943  0.6207
 9880TIP3   OH251054   5.696   0.071   4.272  0.3387 -0.6237  0.7021
 9880TIP3    H151055   5.671   0.151   4.227 -1.3736 -0.7184  1.4285
 9880TIP3    H251056   5.758   0.099   4.340 -2.6754  0.6806  3.1405
 9881TIP3   OH251057   4.960   4.057  17.018 -0.0922  0.2313  0.5987
 9881TIP3    H151058   5.039   4.084  17.064  0.0521  0.1075  0.4246
 9881TIP3    H251059   4.938   3.972  17.056  0.7173 -0.4511 -0.3915
 9882TIP3   OH251060   4.999   0.043  11.606  0.2486  0.2975 -0.4076
 9882TIP3    H151061   4.931   0.069  11.667  0.2585 -0.0316 -0.2546
 9882TIP3    H251062   4.958   0.052  11.519  0.1759  0.5837 -0.3440
 9883TIP3   OH251063   5.664   4.319   2.458 -0.9489  0.2275  0.1771
 9883TIP3    H151064   5.685   4.380   2.529  0.3238 -1.6862  1.5518
 9883TIP3    H251065   5.569   4.317   2.455 -1.0697 -0.0646  2.2936
 9884TIP3   OH251066   4.985   4.397   1.413 -0.3414 -0.2703 -0.4964
 9884TIP3    H151067   4.929   4.319   1.408  0.7392 -1.2051  0.9869
 9884TIP3    H251068   5.068   4.364   1.447  0.1831  1.5320  0.0606
 9885TIP3   OH251069   4.215   5.669   2.231 -0.4868 -0.1537  0.8824
 9885TIP3    H151070   4.170   5.738   2.279 -1.5487  0.2526 -0.6277
 9885TIP3    H251071   4.261   5.715   2.160  2.1862 -0.5798  2.2189
 9886TIP3   OH251072   0.053   3.339   4.669 -0.0515  0.3958  0.4019
 9886TIP3    H151073   0.012   3.392   4.601 -0.7867  0.5948  0.9821
 9886TIP3    H251074   0.069   3.400   4.741 -0.5752 -0.0797  0.9391
 9887TIP3   OH251075   5.190   2.091   5.943 -0.4680  0.4028  0.2121
 9887TIP3    H151076   5.234   2.167   5.982  0.7900 -0.0926 -0.1690
 9887TIP3    H251077   5.097   2.110   5.951 -0.1971  1.3927  1.2927
 9888TIP3   OH251078   5.792   5.866  14.181 -0.1818  0.1641 -0.1409
 9888TIP3    H151079   5.736   5.944  14.183 -2.3293 -1.2983  1.1291
 9888TIP3    H251080   5.822   5.861  14.091  0.2401  2.5682 -0.2081
 9889TIP3   OH251081   1.159   6.457   5.818  0.1359 -0.1049  0.0205
 9889TIP3    H151082   1.161   6.372   5.863 -0.3092  1.3058  2.9794
 9889TIP3    H251083   1.197   6.518   5.881  0.5162  1.9201 -2.0357
 9890TIP3   OH251084   4.703   0.180  15.646  0.3858 -0.0388 -0.0248
 9890TIP3    H151085   4.772   0.114  15.644 -0.8877 -1.4229 -0.0791
 9890TIP3    H251086   4.662   0.169  15.732  0.4613  1.0297  0.1622
 9891TIP3   OH251087   3.226   3.233   1.859  0.0678  0.1670  0.2684
 9891TIP3    H151088   3.286   3.291   1.812 -1.0374  0.5288 -0.7335
 9891TIP3    H251089   3.284   3.172   1.906  1.2137  0.4952 -0.6622
 9892TIP3   OH251090   3.742   5.817  14.349 -0.2074 -0.2990  0.0409
 9892TIP3    H151091   3.674   5.760  14.312 -0.9047  0.0262  0.7776
 9892TIP3    H251092   3.792   5.847  14.273 -2.6424  1.7246 -0.9134
 9893TIP3   OH251093   3.391   5.932   3.527 -0.2494 -0.0073  0.3753
 9893TIP3    H151094   3.430   5.891   3.450  0.1199 -0.6174  0.8726
 9893TIP3    H251095   3.461   5.989   3.561  0.1868 -0.9710  1.1689
 9894TIP3   OH251096   1.128   3.355   5.713 -0.0520 -0.0711 -0.0865
 9894TIP3    H151097   1.099   3.440   5.746  0.9065 -0.7304  2.6889
 9894TIP3    H251098   1.214   3.341   5.753  0.1444 -2.0601 -1.0454
 9895TIP3   OH251099   3.511   4.554  14.409  0.2384  0.3425 -0.0728
 9895TIP3    H151100   3.541   4.514  14.328 -0.6322  0.7777 -0.6199
 9895TIP3    H251101   3.586   4.606  14.439  0.9311 -0.6447 -0.0250
 9896TIP3   OH251102   2.074   2.813   3.342  0.1635  0.1157  0.2992
 9896TIP3    H151103   2.008   2.883   3.341 -0.3909 -0.3984 -0.7756
 9896TIP3    H251104   2.031   2.742   3.390  0.1404 -0.0278  0.0652
 9897TIP3   OH251105   5.844   1.904  16.385  0.4456  0.5796  0.0039
 9897TIP3    H151106   5.773   1.884  16.446 -0.3282  1.1083 -0.7184
 9897TIP3    H251107   5.881   1.986  16.418  0.2352  0.6992 -0.0578
 9898TIP3   OH251108   5.930   2.499  11.280 -0.3395 -0.1191  0.3176
 9898TIP3    H151109   5.996   2.561  11.308  0.5509 -1.0727  0.3748
 9898TIP3    H251110   5.958   2.415  11.315 -0.6483 -0.8552 -1.1060
 9899TIP3   OH251111   2.498   4.869  15.993  0.3520 -0.0634 -0.0302
 9899TIP3    H151112   2.471   4.940  16.050 -2.3305  0.4899 -1.8358
 9899TIP3    H251113   2.585   4.895  15.961 -0.2732  2.0602 -0.1139
 9900TIP3   OH251114   2.433   1.448  12.881 -0.6262 -0.5362  0.1258
 9900TIP3    H151115   2.513   1.448  12.828 -0.6662 -0.3966  0.0670
 9900TIP3    H251116   2.426   1.357  12.912 -0.0860 -0.3915  0.6780
 9901TIP3   OH251117   2.464   1.761   2.514  0.2673  0.6168 -0.6340
 9901TIP3    H151118   2.516   1.841   2.508  0.3308  0.6283  0.0358
 9901TIP3    H251119   2.403   1.767   2.441 -0.9442  2.1522  0.4371
 9902TIP3   OH251120   0.828   6.739   4.448 -0.2548  0.5437 -0.2983
 9902TIP3    H151121   0.732   6.740   4.456 -0.2016  1.1229  0.4335
 9902TIP3    H251122   0.858   6.705   4.532  0.1769 -0.1894 -0.7395
 9903TIP3   OH251123   4.206   2.544  12.065 -0.5900  0.0618  0.4196
 9903TIP3    H151124   4.235   2.484  11.996  0.3957 -0.6946  1.4637
 9903TIP3    H251125   4.123   2.507  12.095 -1.6219  1.0315 -1.1009
 9904TIP3   OH251126   4.817   6.635  15.662 -0.3352 -0.1783  0.0411
 9904TIP3    H151127   4.897   6.684  15.681  0.8731 -2.2404  0.5495
 9904TIP3    H251128   4.772   6.629  15.746 -0.2702 -0.3276  0.0638
 9905TIP3   OH251129   4.203   1.721   4.180  0.0137 -0.2136  0.0776
 9905TIP3    H151130   4.139   1.702   4.248 -0.5370 -0.8358 -0.6145
 9905TIP3    H251131   4.209   1.817   4.180 -0.1483 -0.1929  0.8374
 9906TIP3   OH251132   6.076   2.122   4.035 -0.4241 -0.7726  0.2383
 9906TIP3    H151133   6.055   2.191   4.098  1.7676 -0.0807  0.2674
 9906TIP3    H251134   6.164   2.141   4.005 -0.5491 -2.3749 -1.3838
 9907TIP3   OH251135   4.646   2.108   0.036  0.1529  0.0514  0.5084
 9907TIP3    H151136   4.617   2.199   0.046 -1.1169 -0.2982  0.2332
 9907TIP3    H251137   4.729   2.114  -0.010 -0.4821  1.0346 -0.5670
 9908TIP3   OH251138   5.305   2.814  15.086 -0.1848 -0.3638  0.3037
 9908TIP3    H151139   5.393   2.783  15.067 -0.2702 -0.5177  0.1514
 9908TIP3    H251140   5.313   2.909  15.092 -0.1396 -0.3111 -0.4547
 9909TIP3   OH251141   4.575   6.602  14.612  0.0036 -0.4076 -0.0042
 9909TIP3    H151142   4.520   6.529  14.584 -1.0979  0.2379  0.4402
 9909TIP3    H251143   4.514   6.671  14.636  1.0212  0.6251 -0.2697
 9910TIP3   OH251144   5.119   1.021  17.032 -0.0880 -0.4658 -0.0547
 9910TIP3    H151145   5.181   1.017  17.104 -0.0063 -0.3279 -0.1176
 9910TIP3    H251146   5.169   1.056  16.959 -0.5194  0.7282  0.2014
 9911TIP3   OH251147   1.524   6.356  15.463 -0.5020 -0.2301 -0.2290
 9911TIP3    H151148   1.555   6.415  15.395  1.4652 -0.3983  0.4548
 9911TIP3    H251149   1.571   6.383  15.542 -1.1327 -1.3773  0.5737
 9912TIP3   OH251150   6.224   5.564  16.633 -0.4440 -0.7953 -0.3965
 9912TIP3    H151151   6.224   5.521  16.719  1.2262 -1.1171 -0.5114
 9912TIP3    H251152   6.291   5.632  16.642 -0.6200 -0.4987 -1.2997
 9913TIP3   OH251153   2.117   1.503   4.892 -0.1156 -0.1608  0.0732
 9913TIP3    H151154   2.051   1.439   4.864 -0.0507 -0.9544  1.6202
 9913TIP3    H251155   2.098   1.581   4.840 -1.5031 -0.7655 -0.3843
 9914TIP3   OH251156   0.806   4.023   4.443 -0.5100 -0.4656  0.2109
 9914TIP3    H151157   0.775   4.009   4.353  1.2869  1.0123 -0.7221
 9914TIP3    H251158   0.898   3.997   4.440 -0.6383 -1.1871  1.8814
 9915TIP3   OH251159   2.733   4.281   6.974  0.0420 -0.2261 -0.0907
 9915TIP3    H151160   2.828   4.274   6.980  0.1520  0.7623 -0.5106
 9915TIP3    H251161   2.701   4.193   6.993  1.0182 -0.4671  0.4742
 9916TIP3   OH251162   6.376   0.028  10.836 -0.2437 -0.5429  0.3104
 9916TIP3    H151163   6.342   0.010  10.748  1.0475  0.9054 -0.5363
 9916TIP3    H251164   6.445   0.093  10.822  0.1212 -0.4200  2.3908
 9917TIP3   OH251165   1.277   3.488  14.556 -0.0500 -0.0526 -0.6502
 9917TIP3    H151166   1.356   3.542  14.561  0.2963 -0.5355 -0.8159
 9917TIP3    H251167   1.256   3.484  14.462 -0.2931  0.1077 -0.6021
 9918TIP3   OH251168   5.964   6.375  15.855  0.0186  0.2939  0.3195
 9918TIP3    H151169   6.001   6.321  15.924 -0.8477 -0.0267  0.5386
 9918TIP3    H251170   5.887   6.328  15.825 -0.5209  1.2037  0.2273
 9919TIP3   OH251171   4.409   3.004  11.866  0.0833  0.1853 -0.3247
 9919TIP3    H151172   4.502   2.992  11.881 -0.0428  1.2677  1.7343
 9919TIP3    H251173   4.372   3.018  11.953 -1.7409  1.5397 -1.2364
 9920TIP3   OH251174   1.589   3.342  11.113  0.3103  0.5019  0.6153
 9920TIP3    H151175   1.651   3.270  11.125  2.6957  2.7028  2.3751
 9920TIP3    H251176   1.620   3.388  11.035 -0.8511  0.0457 -0.1471
 9921TIP3   OH251177   2.887   4.518   0.319  0.7325  0.0582  0.2403
 9921TIP3    H151178   2.829   4.442   0.317  1.8610 -0.8402 -0.0529
 9921TIP3    H251179   2.864   4.568   0.241 -1.4194  1.1659  1.4829
 9922TIP3   OH251180   6.041   6.723   5.842  0.1726 -0.3054 -0.1247
 9922TIP3    H151181   6.018   6.801   5.791 -2.2627 -0.8208  0.0894
 9922TIP3    H251182   5.985   6.654   5.807  0.7935 -1.4780  1.0932
 9923TIP3   OH251183   0.847   4.502   3.123  0.3511 -0.2827 -0.2311
 9923TIP3    H151184   0.877   4.416   3.091  1.5764  0.2974 -0.7115
 9923TIP3    H251185   0.759   4.511   3.087  1.0470 -0.4012 -2.1191
 9924TIP3   OH251186   4.426   3.086  13.978 -0.0359  0.3026 -0.0169
 9924TIP3    H151187   4.512   3.076  14.019  0.6773  1.6213 -1.0642
 9924TIP3    H251188   4.386   3.160  14.024  0.6871  1.6608 -1.4507
 9925TIP3   OH251189   5.451   6.756  14.094  0.7543 -0.2636 -0.6458
 9925TIP3    H151190   5.395   6.833  14.101  2.6305  1.1863 -0.6640
 9925TIP3    H251191   5.422   6.711  14.015 -1.3395 -0.4249  0.1628
 9926TIP3   OH251192   1.374   4.338  14.932 -0.0911  0.1035 -0.2158
 9926TIP3    H151193   1.464   4.321  14.904 -0.4577 -0.5675 -1.0378
 9926TIP3    H251194   1.343   4.408  14.875 -0.2072  0.0885 -0.1718
 9927TIP3   OH251195   3.314   2.895  12.448  0.6578 -0.1434  0.7463
 9927TIP3    H151196   3.257   2.955  12.399 -2.5477 -1.4345  2.5455
 9927TIP3    H251197   3.306   2.811  12.402  0.4058 -0.5308  1.4763
 9928TIP3   OH251198   5.994   1.535   1.794 -0.2601 -0.1619  0.2949
 9928TIP3    H151199   5.923   1.545   1.858 -1.3408 -1.5304 -0.6399
 9928TIP3    H251200   5.953   1.556   1.710  0.8874  0.6350 -0.0905
 9929TIP3   OH251201   3.341   1.049   4.139 -0.6799 -0.0976 -0.2959
 9929TIP3    H151202   3.391   1.041   4.057  0.0155 -4.6009  0.3090
 9929TIP3    H251203   3.259   1.004   4.121 -1.0679  0.0171  1.0861
 9930TIP3   OH251204   5.032   5.847   2.225 -0.7372  0.4379  0.2876
 9930TIP3    H151205   5.001   5.808   2.143  0.7717  1.4877 -0.8337
 9930TIP3    H251206   5.003   5.938   2.222 -2.2078  0.0628  1.7873
 9931TIP3   OH251207   0.767   5.457  12.201  0.3722  0.0005 -0.2595
 9931TIP3    H151208   0.702   5.492  12.141 -0.9070 -0.1526  0.9759
 9931TIP3    H251209   0.839   5.429  12.145 -0.2332  1.0131 -1.5924
 9932TIP3   OH251210   6.600   3.588  10.971 -0.3582 -0.1334  0.2015
 9932TIP3    H151211   6.667   3.584  11.038 -0.2648 -1.4667  0.0527
 9932TIP3    H251212   6.645   3.561  10.891 -0.9758 -0.6571  0.0261
 9933TIP3   OH251213   5.555   6.547   0.170  0.1173  0.0925  0.1200
 9933TIP3    H151214   5.548   6.546   0.074  3.7097  0.2511 -0.2596
 9933TIP3    H251215   5.577   6.638   0.192  2.9482 -0.6348  0.6360
 9934TIP3   OH251216   0.408   3.321   5.678 -0.1130 -0.0034 -0.1855
 9934TIP3    H151217   0.418   3.248   5.616  1.6142  0.1555 -0.1232
 9934TIP3    H251218   0.425   3.399   5.626 -0.3745  0.2529  0.1125
 9935TIP3   OH251219   2.754   3.790   5.757  0.5460  0.6848  0.4603
 9935TIP3    H151220   2.687   3.791   5.688  0.4992 -0.1213  0.4847
 9935TIP3    H251221   2.728   3.718   5.814  0.1999  1.7626  1.7210
 9936TIP3   OH251222   5.622   5.941   3.588  0.0496 -0.1336  0.2310
 9936TIP3    H151223   5.529   5.950   3.610  0.0678  1.2873 -0.2063
 9936TIP3    H251224   5.641   6.014   3.529  0.8767 -1.8006 -1.6678
 9937TIP3   OH251225   4.247   5.834  10.778 -0.1175 -0.4575  0.1047
 9937TIP3    H151226   4.166   5.882  10.762  1.0533  1.2557 -1.0609
 9937TIP3    H251227   4.302   5.896  10.826  0.2472 -1.8840  1.6388
 9938TIP3   OH251228   4.538   0.134   4.570  0.1147 -0.2542 -0.1884
 9938TIP3    H151229   4.496   0.054   4.539 -2.3478  0.5032  0.9059
 9938TIP3    H251230   4.520   0.199   4.502  1.5635 -0.4230 -0.7786
 9939TIP3   OH251231   0.234   5.620  11.389 -0.3690 -0.0151 -0.4151
 9939TIP3    H151232   0.231   5.669  11.307  0.8153 -0.2403 -0.6051
 9939TIP3    H251233   0.143   5.619  11.419 -0.4816  2.1868 -0.4686
 9940TIP3   OH251234   6.440   3.016   5.415 -0.5832  0.0203 -0.0126
 9940TIP3    H151235   6.409   3.037   5.503 -1.0700 -0.3965 -0.0778
 9940TIP3    H251236   6.362   2.985   5.369 -0.2749 -0.0386 -0.5054
 9941TIP3   OH251237   4.378   3.382   4.738  0.1574 -0.6937  0.6541
 9941TIP3    H151238   4.465   3.416   4.721  0.1837 -1.4318 -0.7860
 9941TIP3    H251239   4.383   3.347   4.827  0.5729  1.5407  1.5684
 9942TIP3   OH251240   3.921   6.556   3.542 -0.2830  1.0031  0.0452
 9942TIP3    H151241   3.979   6.486   3.512  1.7365  1.7936  1.8796
 9942TIP3    H251242   3.910   6.613   3.465  0.9396  0.5319 -0.4959
 9943TIP3   OH251243   5.937   5.917  12.869 -0.2461 -0.2419  0.1998
 9943TIP3    H151244   5.855   5.876  12.895  0.0214 -0.9798 -0.1030
 9943TIP3    H251245   6.003   5.874  12.924  0.0813 -0.4814 -0.3687
 9944TIP3   OH251246   0.515   1.589   0.789 -0.7402 -0.0056 -0.5217
 9944TIP3    H151247   0.505   1.509   0.738 -1.4280  0.0904 -0.5489
 9944TIP3    H251248   0.610   1.604   0.792 -0.6608 -0.3113 -1.2982
 9945TIP3   OH251249   3.137   2.184   0.976  0.0497  0.2857 -0.1381
 9945TIP3    H151250   3.216   2.139   1.006  0.0332 -0.3270 -1.0009
 9945TIP3    H251251   3.095   2.122   0.917 -1.6305  0.1846  1.0987
 9946TIP3   OH251252   4.828   4.639  14.338  0.5072 -0.3627 -0.9541
 9946TIP3    H151253   4.814   4.578  14.412  2.1362 -3.0345 -2.6801
 9946TIP3    H251254   4.743   4.642  14.294 -0.2678  0.6388  0.5426
 9947TIP3   OH251255   0.433   2.445  10.921 -0.9819 -0.4530 -0.6634
 9947TIP3    H151256   0.513   2.491  10.896 -1.9545  1.8331  0.0710
 9947TIP3    H251257   0.450   2.353  10.901  0.6489  0.3405 -3.4134
 9948TIP3   OH251258   6.396   4.367   5.987 -0.3395 -0.0071  0.4271
 9948TIP3    H151259   6.338   4.351   5.913 -0.4321  0.1921  0.4561
 9948TIP3    H251260   6.364   4.448   6.026  0.5510  0.6193 -0.1342
 9949TIP3   OH251261   3.749   5.082  14.292  0.4821  0.0005 -0.2536
 9949TIP3    H151262   3.728   5.089  14.199 -1.7448  0.5734  0.2212
 9949TIP3    H251263   3.776   4.991  14.304 -1.4697 -0.7486 -1.1000
 9950TIP3   OH251264   2.058   2.330   5.237  0.4659  0.0183 -0.8677
 9950TIP3    H151265   2.085   2.412   5.279 -1.2249 -0.1143  0.6117
 9950TIP3    H251266   2.074   2.262   5.303 -0.6601 -0.4289 -1.0181
 9951TIP3   OH251267   1.402   2.616  12.948  0.2596 -0.0062  0.3959
 9951TIP3    H151268   1.495   2.598  12.938  0.4284  0.7689  0.5436
 9951TIP3    H251269   1.359   2.546  12.899  0.9347  0.0825 -0.3379
 9952TIP3   OH251270   3.273   2.201   1.718  0.7353 -0.0329 -0.2517
 9952TIP3    H151271   3.185   2.207   1.682  0.3190  0.8127  0.8626
 9952TIP3    H251272   3.289   2.107   1.726 -0.7407 -0.2144  1.0934
 9953TIP3   OH251273   1.335   5.195   1.409 -0.4146  0.0011 -0.1976
 9953TIP3    H151274   1.240   5.194   1.400 -0.3872  0.4086 -0.6168
 9953TIP3    H251275   1.364   5.113   1.368 -0.6873 -0.9469  1.4472
 9954TIP3   OH251276   2.191   5.767  15.147 -0.1327 -0.4641  0.5786
 9954TIP3    H151277   2.135   5.842  15.126  1.8463  1.1471  0.7772
 9954TIP3    H251278   2.194   5.765  15.242 -0.4352 -1.0195  0.5809
 9955TIP3   OH251279   2.339   6.075  15.496  0.0184  0.1341  0.0538
 9955TIP3    H151280   2.347   6.036  15.583 -0.6311 -2.8280 -1.1028
 9955TIP3    H251281   2.395   6.152  15.499  1.4699 -0.9149  2.5395
 9956TIP3   OH251282   5.749   2.388   5.235  0.3139 -0.1726  0.1998
 9956TIP3    H151283   5.798   2.313   5.201  0.2481  0.0285 -0.3585
 9956TIP3    H251284   5.815   2.441   5.282  0.2876 -0.7545  0.9037
 9957TIP3   OH251285   0.511   0.978   2.532 -0.4891 -0.0562 -0.7482
 9957TIP3    H151286   0.598   0.982   2.572 -0.0075  1.6914 -1.8560
 9957TIP3    H251287   0.511   0.897   2.481 -0.5134 -1.4484  1.3465
 9958TIP3   OH251288   1.251   6.379  15.582 -0.3534  0.3962 -0.2914
 9958TIP3    H151289   1.339   6.356  15.550 -0.4496  1.1027 -1.0643
 9958TIP3    H251290   1.266   6.455  15.638 -0.3501 -0.1106  0.4207
 9959TIP3   OH251291   1.930   3.540  14.534 -0.8002 -0.5895 -0.4737
 9959TIP3    H151292   1.929   3.479  14.607  0.4340  1.4504  1.3428
 9959TIP3    H251293   1.946   3.485  14.457  2.1821 -2.4549  1.2763
 9960TIP3   OH251294   1.800   4.894  14.378 -0.0620 -0.1213 -0.5354
 9960TIP3    H151295   1.848   4.891  14.461 -4.1430 -0.5027  2.0714
 9960TIP3    H251296   1.800   4.803  14.347 -0.2977 -0.3559  0.1551
 9961TIP3   OH251297   0.545   5.964  12.741  0.2317 -0.4493 -0.0561
 9961TIP3    H151298   0.563   5.881  12.786 -0.7679 -0.7272 -0.1577
 9961TIP3    H251299   0.586   6.031  12.796 -1.6823 -0.6724  1.7744
 9962TIP3   OH251300   6.004   1.170  13.131 -0.4056  0.2168  0.3068
 9962TIP3    H151301   6.060   1.248  13.123 -1.7599  1.2221  0.2594
 9962TIP3    H251302   6.047   1.104  13.076  2.4905 -0.1667  2.7999
 9963TIP3   OH251303   0.624   0.854  10.068  0.2341  0.1414 -0.5651
 9963TIP3    H151304   0.648   0.930  10.122  3.1328 -1.0033 -0.0163
 9963TIP3    H251305   0.531   0.841  10.084 -0.7057  4.2970 -1.7080
 9964TIP3   OH251306   3.262   2.753   1.785  0.2104 -0.0743  0.2288
 9964TIP3    H151307   3.193   2.791   1.839  0.0673 -1.0622  0.7760
 9964TIP3    H251308   3.337   2.745   1.845  0.6727  0.5933 -0.2443
 9965TIP3   OH251309   0.329   3.518  17.313  0.2629  0.3474  0.0164
 9965TIP3    H151310   0.311   3.435  17.357  0.8295 -0.0837 -0.5486
 9965TIP3    H251311   0.344   3.580  17.385  0.8067 -0.2634  0.4456
 9966TIP3   OH251312   0.761   0.796   0.451  0.4181 -0.3413  0.3709
 9966TIP3    H151313   0.824   0.725   0.439  0.5072 -0.2947  0.5583
 9966TIP3    H251314   0.678   0.752   0.467  0.4608 -0.4050  0.4219
 9967TIP3   OH251315   6.738   0.269   4.215 -0.3850 -0.6801  0.3456
 9967TIP3    H151316   6.739   0.337   4.149  0.7307 -0.5587  0.4831
 9967TIP3    H251317   6.764   0.189   4.168  0.5259 -0.5702  0.6531
 9968TIP3   OH251318   2.003   0.691   2.740 -0.2787 -0.0966  0.2010
 9968TIP3    H151319   2.034   0.683   2.831  0.6993  0.8174 -0.0281
 9968TIP3    H251320   1.919   0.646   2.739 -1.3887  1.7274  2.1269
 9969TIP3   OH251321   2.904   2.354   2.602  0.0823  0.4750  0.1291
 9969TIP3    H151322   2.954   2.378   2.525  0.5619  1.7547  0.8086
 9969TIP3    H251323   2.968   2.314   2.661  0.1414  1.3514  0.6662
 9970TIP3   OH251324   6.028   6.265   4.914  0.4856 -0.4769 -0.5254
 9970TIP3    H151325   6.097   6.329   4.894  1.6774 -1.5707 -0.0947
 9970TIP3    H251326   6.034   6.253   5.009 -1.9442  1.1666 -0.0665
 9971TIP3   OH251327   0.422   6.550  14.453  0.1397 -0.2807 -0.4358
 9971TIP3    H151328   0.421   6.473  14.510  1.2384 -0.7034 -0.9495
 9971TIP3    H251329   0.330   6.571  14.438 -0.1862 -0.0726  1.5991
 9972TIP3   OH251330   2.690   3.675   2.663  0.0397  0.3687  0.2958
 9972TIP3    H151331   2.724   3.721   2.586  1.2795  0.1209  0.6749
 9972TIP3    H251332   2.649   3.595   2.628 -0.5045  0.8555 -0.1992
 9973TIP3   OH251333   3.786   3.018   2.407  0.1011 -0.2930 -0.8370
 9973TIP3    H151334   3.694   3.001   2.383 -0.3297 -0.9944  1.1174
 9973TIP3    H251335   3.809   3.097   2.359 -1.6446  0.0726 -1.1433
 9974TIP3   OH251336   6.453   5.290  13.534  0.1029 -0.4156 -0.3531
 9974TIP3    H151337   6.369   5.326  13.563  0.4849 -0.0267  0.2838
 9974TIP3    H251338   6.464   5.210  13.586  0.1487 -0.4464 -0.4098
 9975TIP3   OH251339   2.536   1.998  14.221  0.0508  0.4169  0.1794
 9975TIP3    H151340   2.461   2.057  14.224  0.5914  1.1413 -0.2530
 9975TIP3    H251341   2.544   1.975  14.128 -0.5086 -0.8139  0.4118
 9976TIP3   OH251342   2.239   0.124  13.500 -0.0760  0.1281  0.1957
 9976TIP3    H151343   2.244   0.030  13.484  1.3027  0.0856  0.7415
 9976TIP3    H251344   2.326   0.148  13.532 -0.7591  1.3705  1.2363
 9977TIP3   OH251345   2.277   0.490   1.426 -0.0807 -0.1842  0.2254
 9977TIP3    H151346   2.274   0.585   1.429 -2.7907 -0.1839 -0.3745
 9977TIP3    H251347   2.315   0.465   1.511  0.6652  1.3819  0.4014
 9978TIP3   OH251348   5.961   6.371   1.987 -0.1452 -0.4856 -0.6313
 9978TIP3    H151349   5.990   6.355   1.898  0.7138 -0.2521 -0.4064
 9978TIP3    H251350   6.029   6.428   2.025 -1.4420  0.9631 -0.4022
 9979TIP3   OH251351   3.912   5.784  16.955 -0.0617  1.1731 -0.3228
 9979TIP3    H151352   3.856   5.717  16.917  0.3455  1.8288 -2.2010
 9979TIP3    H251353   3.969   5.737  17.015 -1.2790  0.2032  0.1232
 9980TIP3   OH251354   4.375   4.543  11.396 -0.1522  0.4346  0.0548
 9980TIP3    H151355   4.330   4.506  11.321  0.3477 -1.1820  0.5057
 9980TIP3    H251356   4.385   4.469  11.457 -0.6432  1.7027  1.7684
 9981TIP3   OH251357   1.756   0.618  14.383  0.0181 -0.2250 -0.9801
 9981TIP3    H151358   1.684   0.624  14.320  1.0058 -0.5164 -2.1753
 9981TIP3    H251359   1.761   0.705  14.422 -0.4813  0.0253 -1.4555
 9982TIP3   OH251360   5.478   4.178   3.118  0.1285  0.6391  0.4105
 9982TIP3    H151361   5.543   4.122   3.160 -0.0267 -1.0056 -1.4065
 9982TIP3    H251362   5.398   4.163   3.168  0.2321 -0.3409  0.3006
 9983TIP3   OH251363   0.473   2.390   5.155  0.6415  0.0505  0.1201
 9983TIP3    H151364   0.394   2.357   5.111  0.7937  1.1152 -0.9887
 9983TIP3    H251365   0.441   2.426   5.237  0.1630 -0.6993  0.2809
 9984TIP3   OH251366   1.540   6.612   4.818  0.3943  0.0946 -0.2758
 9984TIP3    H151367   1.487   6.634   4.895  1.8786 -0.3149  0.9114
 9984TIP3    H251368   1.506   6.528   4.789 -0.3957  0.4058 -0.2882
 9985TIP3   OH251369   5.534   5.004  13.213 -0.3967  0.3698 -0.0230
 9985TIP3    H151370   5.540   5.031  13.121 -3.7305 -2.2275 -1.2017
 9985TIP3    H251371   5.616   4.955  13.229 -0.8471 -1.4168 -2.5528
 9986TIP3   OH251372   4.238   1.033   1.056  0.0959  0.1226 -0.3544
 9986TIP3    H151373   4.319   1.078   1.031  0.3313  0.0234  0.2048
 9986TIP3    H251374   4.189   1.098   1.107  0.5016 -0.2778  0.5817
 9987TIP3   OH251375   2.642   4.092  13.319  0.5478  0.3314 -0.4881
 9987TIP3    H151376   2.720   4.063  13.271  0.0832  0.2637 -1.2112
 9987TIP3    H251377   2.664   4.077  13.411  0.7077 -1.3869 -0.7712
 9988TIP3   OH251378   5.037   4.099   4.274 -0.5443 -0.2653  0.2230
 9988TIP3    H151379   5.042   4.029   4.209 -0.2304 -0.8012  0.8091
 9988TIP3    H251380   5.110   4.082   4.334 -0.1199  0.8882  0.0686
 9989TIP3   OH251381   2.021   0.942  11.318 -0.3099  0.2830  0.1573
 9989TIP3    H151382   2.024   0.889  11.398  0.1042  0.3728  0.2046
 9989TIP3    H251383   2.072   1.020  11.338 -0.8652  0.6768  0.0645
 9990TIP3   OH251384   3.284   0.630   2.943  0.2575 -0.0948  0.6203
 9990TIP3    H151385   3.250   0.555   2.993 -1.1963  0.0237 -0.1320
 9990TIP3    H251386   3.207   0.685   2.929  0.7782  0.2432 -1.0904
 9991TIP3   OH251387   3.429   6.386  15.015 -0.3011  0.2154  0.8183
 9991TIP3    H151388   3.435   6.440  15.094 -1.7900  1.5243  0.0790
 9991TIP3    H251389   3.357   6.423  14.965  0.4652 -0.7063 -1.0885
 9992TIP3   OH251390   1.589   1.229  12.002 -0.0506  0.7326 -0.3102
 9992TIP3    H151391   1.615   1.314  11.966 -0.6855  1.0500 -0.0401
 9992TIP3    H251392   1.586   1.243  12.097 -2.0256  0.9751 -0.3626
 9993TIP3   OH251393   5.416   4.767   3.510  0.1378 -0.0512 -0.3277
 9993TIP3    H151394   5.415   4.802   3.421  0.3112  0.1495 -0.2546
 9993TIP3    H251395   5.494   4.808   3.550 -0.4627  0.6034  0.2053
 9994TIP3   OH251396   0.020   3.070   2.514 -0.0266  0.2362 -0.5009
 9994TIP3    H151397   0.006   3.015   2.437  0.6738 -0.3057 -0.2595
 9994TIP3    H251398   0.111   3.099   2.506 -0.3098  1.1769 -0.4930
 9995TIP3   OH251399   5.257   1.501   1.401 -0.0000  0.1486  0.4567
 9995TIP3    H151400   5.215   1.585   1.381  0.4111  0.6671  1.6573
 9995TIP3    H251401   5.335   1.500   1.346 -1.2619 -0.6033 -1.4237
 9996TIP3   OH251402   2.190   2.050  13.282  0.2586 -0.0400  0.1738
 9996TIP3    H151403   2.285   2.040  13.276  0.1776  0.1464 -1.9977
 9996TIP3    H251404   2.178   2.119  13.348  1.6267 -0.0585  0.4775
 9997TIP3   OH251405   5.090   1.157   1.988  0.3774 -0.2913 -0.1225
 9997TIP3    H151406   5.151   1.163   2.061  0.3829 -0.5570 -0.1031
 9997TIP3    H251407   5.095   1.242   1.944 -1.4933  0.8211  1.6640
 9998TIP3   OH251408   1.871   1.766   4.940 -0.1327  0.8710  0.0261
 9998TIP3    H151409   1.801   1.819   4.979 -1.3843 -0.6516 -0.0126
 9998TIP3    H251410   1.942   1.827   4.924 -1.9763  2.8388 -1.2898
 9999TIP3   OH251411   2.378   5.238  14.083  0.4869 -0.2938  0.1019
 9999TIP3    H151412   2.300   5.293  14.078  1.6587  1.6141  1.2925
 9999TIP3    H251413   2.439   5.288  14.138  2.2640 -2.0590 -0.1398
10000TIP3   OH251414   1.645   0.869   5.781  0.0720 -0.0166  0.0032
10000TIP3    H151415   1.710   0.919   5.733 -0.2832  1.3813  0.9066
10000TIP3    H251416   1.563   0.918   5.770 -1.0386 -2.0624 -1.6407
10001TIP3   OH251417   4.623   5.669   3.426  0.2503  0.1753 -0.3488
10001TIP3    H151418   4.676   5.679   3.348 -0.1858 -0.2701 -0.7074
10001TIP3    H251419   4.543   5.625   3.396  0.3460 -0.5816  0.4440
10002TIP3   OH251420   5.485   6.393  16.796 -0.4346  0.0989  0.6766
10002TIP3    H151421   5.485   6.299  16.778 -1.0995  0.3083 -0.5217
10002TIP3    H251422   5.479   6.434  16.710 -1.2743  1.2231  1.2422
10003TIP3   OH251423   1.161   6.198  13.141  0.0651 -0.2149  0.0110
10003TIP3    H151424   1.166   6.259  13.215 -0.1226  0.9777 -0.9195
10003TIP3    H251425   1.102   6.129  13.170 -0.6337  0.6480  0.7062
10004TIP3   OH251426   4.084   2.788  14.207 -0.1245 -0.7257 -0.2549
10004TIP3    H151427   4.017   2.850  14.235  0.8135  0.3767 -0.3955
10004TIP3    H251428   4.152   2.795  14.274 -0.4744 -2.4277  0.3292
10005TIP3   OH251429   5.930   3.390   2.066  0.2396 -0.2826 -0.1160
10005TIP3    H151430   5.924   3.462   2.129 -0.3579 -0.5688  0.1686
10005TIP3    H251431   5.972   3.428   1.989 -0.6000  0.5322 -0.1902
10006TIP3   OH251432   4.875   5.607   5.707 -1.3056 -0.6201 -0.1928
10006TIP3    H151433   4.784   5.596   5.736 -1.6166 -0.3498 -1.0199
10006TIP3    H251434   4.885   5.702   5.698 -1.0909 -0.6743 -0.5412
10007TIP3   OH251435   0.838   1.523  14.697  0.0101 -0.0611 -0.1276
10007TIP3    H151436   0.772   1.503  14.630  0.3458  1.1656 -0.8616
10007TIP3    H251437   0.790   1.571  14.765  0.3760  2.4836 -1.5079
10008TIP3   OH251438   3.534   2.860   5.030  0.1618 -0.0774 -0.0912
10008TIP3    H151439   3.505   2.772   5.004  0.6818  0.2636 -1.9203
10008TIP3    H251440   3.624   2.866   4.999  0.1068  1.1373 -0.0410
10009TIP3   OH251441   1.058   0.553   5.945 -0.5925 -0.5549 -0.7225
10009TIP3    H151442   1.063   0.639   5.987  0.2449 -0.0287 -1.8472
10009TIP3    H251443   1.093   0.493   6.010 -0.5483  0.0562 -0.1731
10010TIP3   OH251444   5.064   5.676   0.989 -0.9522  0.0540 -0.1861
10010TIP3    H151445   5.096   5.678   0.899  0.4186  0.1779  0.2844
10010TIP3    H251446   5.116   5.608   1.032  0.0962  1.5798  1.0810
10011TIP3   OH251447   5.542   6.658   5.752 -0.1581 -0.3998  0.1064
10011TIP3    H151448   5.578   6.743   5.774 -1.7066  0.1972  0.5047
10011TIP3    H251449   5.532   6.614   5.837 -1.5396 -0.0269  0.1680
10012TIP3   OH251450   3.870   6.407  13.629  0.1506  0.6023 -0.5781
10012TIP3    H151451   3.871   6.503  13.628 -0.6611  0.6097 -0.9054
10012TIP3    H251452   3.885   6.384  13.720  0.5510  1.0340 -0.5273
10013TIP3   OH251453   6.003   6.367  10.827 -0.1431  0.1108  0.1787
10013TIP3    H151454   5.930   6.360  10.888  0.0978 -0.0144  0.4558
10013TIP3    H251455   6.024   6.276  10.804 -1.7985  0.1828 -2.0016
10014TIP3   OH251456   5.237   0.198  15.482 -0.0234  0.0256 -0.3126
10014TIP3    H151457   5.180   0.270  15.509 -0.7801  0.3331 -2.4527
10014TIP3    H251458   5.260   0.220  15.391  1.6916 -1.2480 -0.2224
10015TIP3   OH251459   1.707   3.729   5.930  0.0064 -0.4838 -0.1254
10015TIP3    H151460   1.640   3.710   5.996 -0.1087  2.1133  0.6490
10015TIP3    H251461   1.783   3.756   5.982 -0.0260  1.4193 -0.9964
10016TIP3   OH251462   4.422   1.969   3.682 -0.5667  0.6433  0.0548
10016TIP3    H151463   4.358   1.901   3.699  0.7378 -0.6018  0.1294
10016TIP3    H251464   4.393   2.043   3.736 -2.0459  0.1962 -0.0920
10017TIP3   OH251465   4.228   5.318   3.869 -0.1697 -0.0594  0.0613
10017TIP3    H151466   4.190   5.239   3.829  0.9303 -1.7901  2.1815
10017TIP3    H251467   4.257   5.289   3.955  0.5676  2.6476  0.8232
10018TIP3   OH251468   2.992   6.330  17.009  0.2616 -0.3401  0.0929
10018TIP3    H151469   3.043   6.263  16.963 -1.8225 -1.4792 -0.7102
10018TIP3    H251470   2.966   6.287  17.091  1.6393  0.7193  1.1532
10019TIP3   OH251471   3.169   1.259  10.878 -0.0743  0.5396  0.6689
10019TIP3    H151472   3.244   1.310  10.847  1.3044 -0.7060  1.7565
10019TIP3    H251473   3.119   1.239  10.800  1.1147  0.8503 -0.2018
10020TIP3   OH251474   0.890   5.376   2.607 -0.1489  0.2178 -0.2217
10020TIP3    H151475   0.917   5.287   2.588 -0.6781 -0.0199  0.1263
10020TIP3    H251476   0.838   5.402   2.531 -0.7243 -0.0830  0.0632
10021TIP3   OH251477   1.397   1.717  11.244  0.2047  0.5581  0.6447
10021TIP3    H151478   1.426   1.798  11.285  0.0570 -0.0239  1.9477
10021TIP3    H251479   1.468   1.655  11.258  0.7727  0.7110 -1.2618
10022TIP3   OH251480   5.028   3.595   1.328 -0.1186 -0.4079 -0.1086
10022TIP3    H151481   5.055   3.515   1.373  2.3988  0.3178 -0.2018
10022TIP3    H251482   5.052   3.581   1.237  1.2369  0.7885  0.0387
10023TIP3   OH251483   1.010   3.778   3.879 -0.2621 -0.8186  0.4004
10023TIP3    H151484   1.018   3.830   3.799 -0.0211  0.0075  0.9454
10023TIP3    H251485   0.989   3.690   3.849  3.1426 -1.3485 -0.7672
10024TIP3   OH251486   1.133   4.521  15.052 -0.2876  0.5976  0.5430
10024TIP3    H151487   1.089   4.604  15.069 -0.9155  0.2510  0.6638
10024TIP3    H251488   1.178   4.534  14.969 -0.6891  0.9386  0.3772
10025TIP3   OH251489   2.599   4.328  11.807 -0.7022  0.0501  0.4337
10025TIP3    H151490   2.608   4.236  11.833  0.1544 -0.1114 -0.3562
10025TIP3    H251491   2.548   4.324  11.726 -1.5904  0.3716  0.9653
10026TIP3   OH251492   3.750   3.802  11.407 -0.2317  0.1828  0.3588
10026TIP3    H151493   3.774   3.769  11.320 -0.0539 -1.3869  0.9690
10026TIP3    H251494   3.810   3.875  11.422 -0.3954  0.6160 -0.8920
10027TIP3   OH251495   5.787   1.517   3.301  0.0602  0.0679  0.6505
10027TIP3    H151496   5.843   1.460   3.249 -1.8354 -0.2154 -1.1972
10027TIP3    H251497   5.746   1.458   3.364  0.7237  0.0347  1.0648
10028TIP3   OH251498   0.702   4.480   3.407  0.0533  0.3034 -0.0146
10028TIP3    H151499   0.699   4.570   3.375 -3.5930  0.7479  1.1899
10028TIP3    H251500   0.757   4.484   3.486 -0.4788  1.6062  0.3082
10029TIP3   OH251501   2.446   0.375   5.158 -0.3673 -0.1277  0.0497
10029TIP3    H151502   2.373   0.373   5.095  0.5629 -1.2289 -1.0338
10029TIP3    H251503   2.441   0.290   5.203 -0.4026  0.2408  0.7590
10030TIP3   OH251504   0.960   1.856  14.864  0.3493  0.0785  0.0702
10030TIP3    H151505   0.929   1.794  14.929 -1.6449  1.1539  0.2332
10030TIP3    H251506   0.882   1.908  14.842  1.5905  1.4961 -1.1803
10031TIP3   OH251507   3.602   4.545   4.279 -0.1103  0.4528  0.4286
10031TIP3    H151508   3.604   4.478   4.348  1.9319  1.3498  1.3332
10031TIP3    H251509   3.670   4.608   4.305  0.5499  0.9796 -2.2865
10032TIP3   OH251510   6.619   1.103  12.712  0.2820  0.1827  0.6847
10032TIP3    H151511   6.692   1.163  12.727  0.7168 -0.0050 -0.5927
10032TIP3    H251512   6.651   1.041  12.647 -1.5132  1.0781 -1.2061
10033TIP3   OH251513   2.355   3.849  10.855  0.1775 -0.3619 -0.6840
10033TIP3    H151514   2.287   3.784  10.871  0.8964 -1.1841 -0.9260
10033TIP3    H251515   2.412   3.809  10.790  2.1158 -0.6090  1.0519
10034TIP3   OH251516   2.681   5.246  13.887  0.3572  0.1094 -0.2624
10034TIP3    H151517   2.758   5.222  13.837  1.0242  1.6665 -0.0247
10034TIP3    H251518   2.626   5.167  13.885  1.9163 -1.0260 -0.4513
10035TIP3   OH251519   3.716   5.375  15.160 -0.2366 -0.3834 -0.2287
10035TIP3    H151520   3.766   5.308  15.114 -0.1452  0.0266 -0.7257
10035TIP3    H251521   3.765   5.389  15.242  0.4671  0.0186 -0.7093
10036TIP3   OH251522   5.655   0.776  10.969 -0.0160 -0.5462 -0.2950
10036TIP3    H151523   5.671   0.728  10.888  0.3480 -0.4630 -0.2734
10036TIP3    H251524   5.680   0.866  10.949 -2.0959 -0.0350 -0.7937
10037TIP3   OH251525   4.640   0.022  15.389  0.3430 -0.1333 -0.2023
10037TIP3    H151526   4.694   0.074  15.328 -2.2994  0.8213 -1.8881
10037TIP3    H251527   4.612   0.085  15.455 -0.5566 -0.0389 -0.6562
10038TIP3   OH251528   4.619   2.682   4.878 -0.0529 -0.5795  0.3517
10038TIP3    H151529   4.674   2.720   4.810 -0.6934  1.1616  0.7425
10038TIP3    H251530   4.573   2.610   4.835  0.7751 -0.5641 -0.5949
10039TIP3   OH251531   1.778   3.855  14.349  0.1124  0.1401 -0.7189
10039TIP3    H151532   1.803   3.797  14.277 -1.3617  0.4035 -1.4770
10039TIP3    H251533   1.691   3.888  14.325 -1.0328 -0.7715  1.7506
10040TIP3   OH251534   0.537   1.026   4.959 -0.0482 -0.0661 -0.8277
10040TIP3    H151535   0.580   1.079   4.892  0.7139  0.2133 -0.1337
10040TIP3    H251536   0.609   0.996   5.015 -0.6807 -0.2229 -0.0889
10041TIP3   OH251537   0.168   2.171  13.108 -0.0035 -0.0162  0.1112
10041TIP3    H151538   0.239   2.111  13.129  0.4735  0.7759  0.7780
10041TIP3    H251539   0.092   2.137  13.156 -0.0317 -0.7412 -0.4369
10042TIP3   OH251540   1.671   3.316  14.470  0.4765 -0.2103 -0.4203
10042TIP3    H151541   1.709   3.258  14.404  0.4082  2.2679 -2.7664
10042TIP3    H251542   1.600   3.361  14.426  1.1601  2.4235  0.9270
10043TIP3   OH251543   6.452   1.044   0.704 -0.0150  0.4762  0.4264
10043TIP3    H151544   6.395   1.018   0.777  1.1440  0.0324  1.2098
10043TIP3    H251545   6.537   1.003   0.725  0.3189  0.2827 -1.2145
10044TIP3   OH251546   0.268   0.473  14.639 -0.2919 -0.1610 -0.7663
10044TIP3    H151547   0.309   0.482  14.725 -0.3474 -0.1075 -0.7451
10044TIP3    H251548   0.251   0.564  14.611 -2.6668 -0.1965  0.3284
10045TIP3   OH251549   5.365   5.093  12.074 -0.6830 -0.2121 -0.0624
10045TIP3    H151550   5.444   5.044  12.055 -0.8071 -0.3382 -0.2577
10045TIP3    H251551   5.396   5.178  12.104 -0.4477 -0.8171  1.4793
10046TIP3   OH251552   2.985   4.231   1.506 -0.2327  0.0799  0.2484
10046TIP3    H151553   2.971   4.315   1.462 -0.3191  0.9022  1.7628
10046TIP3    H251554   3.051   4.186   1.453 -0.8905  0.6799 -1.1173
10047TIP3   OH251555   2.660   2.427   1.543 -0.1312  0.1840 -0.7698
10047TIP3    H151556   2.663   2.331   1.545 -1.4055  0.1267  0.9644
10047TIP3    H251557   2.749   2.454   1.566  0.0379 -0.6034 -0.4812
10048TIP3   OH251558   2.619   4.500  12.367  1.2276 -0.2641 -0.0140
10048TIP3    H151559   2.617   4.525  12.275 -2.3264  0.5023  0.1513
10048TIP3    H251560   2.697   4.544  12.401  0.8235  2.2309 -1.9825
10049TIP3   OH251561   5.963   3.668   6.439 -0.1643 -0.3083 -0.0565
10049TIP3    H151562   5.979   3.575   6.456  1.0694 -0.6715 -2.6778
10049TIP3    H251563   5.868   3.678   6.451 -0.4377 -2.0896 -0.3954
10050TIP3   OH251564   3.783   1.440  16.213 -0.2499  0.3964  0.0059
10050TIP3    H151565   3.733   1.505  16.262 -1.2206  1.3916 -2.1545
10050TIP3    H251566   3.720   1.372  16.192  0.0012  0.2605 -0.3212
10051TIP3   OH251567   0.674   2.700   1.980 -0.3451 -0.3503  0.3885
10051TIP3    H151568   0.738   2.703   1.909 -1.9003 -1.9036 -1.1977
10051TIP3    H251569   0.724   2.673   2.057  0.7837 -2.6929 -1.0432
10052TIP3   OH251570   2.404   2.409  14.563 -0.5734 -0.3697 -0.1553
10052TIP3    H151571   2.360   2.353  14.499  2.7376 -2.1573 -1.0933
10052TIP3    H251572   2.481   2.442  14.518 -0.0060  1.2311  1.8497
10053TIP3   OH251573   3.246   4.398   5.571 -0.6060 -0.3599  0.3161
10053TIP3    H151574   3.281   4.479   5.534 -2.1969  0.5970  0.8045
10053TIP3    H251575   3.258   4.408   5.665 -0.8384 -0.6725  0.3804
10054TIP3   OH251576   1.954   0.402  11.674 -0.3943 -0.3002  0.5844
10054TIP3    H151577   1.869   0.413  11.631 -0.7561 -1.3081  1.0067
10054TIP3    H251578   1.933   0.368  11.761  0.4588 -1.0584  0.5123
10055TIP3   OH251579   1.853   0.176   5.838 -0.1865  0.4120  0.1174
10055TIP3    H151580   1.845   0.166   5.933 -1.4652  0.6220  0.0588
10055TIP3    H251581   1.916   0.247   5.826  2.1622 -1.4773  0.7236
10056TIP3   OH251582   5.676   3.555   5.307  0.4264  0.2678  0.2987
10056TIP3    H151583   5.593   3.539   5.352  0.9189  0.4000  1.2763
10056TIP3    H251584   5.701   3.643   5.334  1.3558 -0.1308  0.7960
10057TIP3   OH251585   2.862   5.259  15.231 -0.1689  0.1934 -0.9429
10057TIP3    H151586   2.833   5.309  15.154 -2.2810 -0.9149 -0.9510
10057TIP3    H251587   2.898   5.326  15.290 -1.3312  1.5243 -1.6530
10058TIP3   OH251588   3.708   5.543  14.938  0.1287  0.9649 -0.3501
10058TIP3    H151589   3.715   5.505  15.026  1.0061  0.7192 -0.5225
10058TIP3    H251590   3.680   5.471  14.882 -0.9402  1.2382 -0.2025
10059TIP3   OH251591   6.435   0.460   1.201 -0.1989 -0.1215 -0.6180
10059TIP3    H151592   6.496   0.488   1.268 -1.1288  1.9069 -0.5412
10059TIP3    H251593   6.484   0.465   1.119  0.1302  0.1494 -0.4037
10060TIP3   OH251594   6.374   2.662   5.310  0.0575 -0.2192  0.2586
10060TIP3    H151595   6.383   2.636   5.401 -0.0533  0.4278  0.4596
10060TIP3    H251596   6.313   2.736   5.312  0.2616 -0.0318 -0.3089
10061TIP3   OH251597   4.549   4.885  12.705 -0.0499 -0.3815 -0.3173
10061TIP3    H151598   4.571   4.954  12.768  2.1242  0.9132 -2.3629
10061TIP3    H251599   4.596   4.807  12.737 -0.2007 -0.1697  0.4458
10062TIP3   OH251600   6.746   6.286   6.144 -0.4319  0.5839  0.2117
10062TIP3    H151601   6.783   6.357   6.196  1.2424 -0.8645  1.0987
10062TIP3    H251602   6.681   6.245   6.201  0.0019  0.2125  0.4466
10063TIP3   OH251603   0.206   4.697   4.610 -0.4347  0.1593  0.0327
10063TIP3    H151604   0.281   4.679   4.667 -1.2696  0.8300  1.3808
10063TIP3    H251605   0.144   4.746   4.665 -1.7441 -0.1213 -1.1231
10064TIP3   OH251606   2.210   3.182  15.229 -0.6557  0.1984  0.0895
10064TIP3    H151607   2.257   3.099  15.236  0.6468  0.5017 -3.2188
10064TIP3    H251608   2.152   3.171  15.154 -0.7118  2.1496 -0.2223
10065TIP3   OH251609   3.293   1.887   1.683 -0.1988 -0.3897 -0.0896
10065TIP3    H151610   3.344   1.806   1.692  0.9593  0.4984  1.7547
10065TIP3    H251611   3.286   1.899   1.588  2.4765 -0.9271 -0.4470
10066TIP3   OH251612   2.568   0.766   0.736  0.5442 -0.0585 -0.0403
10066TIP3    H151613   2.484   0.780   0.692  0.4491 -1.1909 -0.2397
10066TIP3    H251614   2.551   0.788   0.827  0.0076 -0.3486 -0.0645
10067TIP3   OH251615   6.325   0.212  17.293 -0.1178 -0.2518  0.5615
10067TIP3    H151616   6.237   0.230  17.327  0.3645  1.7830  0.8387
10067TIP3    H251617   6.310   0.180  17.204 -1.1851 -1.3357  1.0948
10068TIP3   OH251618   6.568   6.153   1.458  0.1223 -0.1885 -0.4502
10068TIP3    H151619   6.546   6.207   1.381  0.5207 -1.4997 -1.5227
10068TIP3    H251620   6.636   6.204   1.504  0.2330  0.3964 -1.2323
10069TIP3   OH251621   5.966   0.027  12.479 -0.2479 -0.2480  0.7441
10069TIP3    H151622   5.934   0.100  12.531 -1.1933  0.3964 -0.7017
10069TIP3    H251623   5.941  -0.051  12.529 -0.2108  0.3731  1.7498
10070TIP3   OH251624   3.152   3.002  16.860  0.0497 -0.3324  0.2528
10070TIP3    H151625   3.119   3.077  16.910  2.7278  1.7663 -0.9049
10070TIP3    H251626   3.097   3.000  16.782 -0.4028  0.0630  0.5527
10071TIP3   OH251627   2.302   0.843   2.051  0.3952  0.7820 -0.2477
10071TIP3    H151628   2.390   0.858   2.087  0.0719  2.2494  0.0084
10071TIP3    H251629   2.291   0.748   2.054  1.7134  0.6206  0.3511
10072TIP3   OH251630   1.023   0.856  12.793  0.2554 -0.2503  0.1572
10072TIP3    H151631   0.968   0.810  12.856 -0.9411  0.1489 -0.5654
10072TIP3    H251632   1.109   0.861  12.835  0.1861 -2.3178  0.6285
10073TIP3   OH251633   3.541   0.933   1.570 -0.1132 -0.1271  0.4539
10073TIP3    H151634   3.578   0.925   1.658  1.4430  1.9697  0.0607
10073TIP3    H251635   3.514   1.025   1.564 -1.1358 -0.4860 -0.9366
10074TIP3   OH251636   4.865   3.373   3.774 -0.0940  0.4807  0.9725
10074TIP3    H151637   4.913   3.306   3.823 -1.7250 -0.3405  1.5249
10074TIP3    H251638   4.870   3.345   3.683 -0.3807 -0.1567  1.1485
10075TIP3   OH251639   1.357   2.384  12.560  0.1492  0.3704  0.7828
10075TIP3    H151640   1.353   2.397  12.655  2.2696 -1.3080  1.1927
10075TIP3    H251641   1.402   2.300  12.549 -1.3695 -0.2242 -1.7193
10076TIP3   OH251642   1.118   5.454  11.548 -0.4373  0.0487  0.0035
10076TIP3    H151643   1.122   5.358  11.547 -0.0928  0.0700 -0.6698
10076TIP3    H251644   1.118   5.476  11.641 -0.9694 -0.6208  0.1748
10077TIP3   OH251645   1.192   4.054   2.290  0.0804 -0.4295  0.1919
10077TIP3    H151646   1.197   3.967   2.251 -2.4798 -0.2671 -0.6951
10077TIP3    H251647   1.127   4.045   2.360 -0.0329  0.7125  0.2453
10078TIP3   OH251648   4.159   0.353  15.879  0.1923 -0.3633 -0.9085
10078TIP3    H151649   4.108   0.433  15.894 -0.5448 -0.9116 -0.3875
10078TIP3    H251650   4.168   0.348  15.784 -0.4826 -0.0837 -0.9971
10079TIP3   OH251651   0.672   5.645   5.348 -0.3124  0.4142  0.7871
10079TIP3    H151652   0.761   5.617   5.369 -0.0830 -0.2469 -0.8716
10079TIP3    H251653   0.663   5.731   5.388  1.1915  0.6213  0.7322
10080TIP3   OH251654   1.246   5.681   6.052 -0.3097 -0.3127  0.0171
10080TIP3    H151655   1.154   5.658   6.068 -0.3475  0.0601  0.3494
10080TIP3    H251656   1.243   5.741   5.977 -0.3622 -0.0884  0.1985
10081TIP3   OH251657   3.886   5.324  12.416  0.2573 -0.5824 -0.8576
10081TIP3    H151658   3.923   5.377  12.346  1.1858 -1.4901 -1.0796
10081TIP3    H251659   3.884   5.235  12.381  1.7145 -1.2419  0.5911
10082TIP3   OH251660   3.551   5.859   0.517 -0.0894 -0.1048 -0.2435
10082TIP3    H151661   3.487   5.841   0.449 -0.9055 -0.3651  0.5670
10082TIP3    H251662   3.626   5.896   0.471 -0.0655 -1.5494 -1.4348
10083TIP3   OH251663   3.498   4.510  11.788 -0.0228 -0.3629 -0.1545
10083TIP3    H151664   3.452   4.560  11.856 -0.4740 -0.1514 -0.6113
10083TIP3    H251665   3.582   4.487  11.828  0.1904  0.7533  0.0543
10084TIP3   OH251666   1.976   2.935  14.466  0.2755  0.4845  0.1699
10084TIP3    H151667   2.060   2.888  14.469 -0.4630 -0.9315 -0.2283
10084TIP3    H251668   1.918   2.876  14.417 -0.7030  1.8534 -0.3831
10085TIP3   OH251669   0.474   1.433   5.441 -0.2088  0.1721 -0.2826
10085TIP3    H151670   0.512   1.426   5.529 -0.6921 -2.6757 -0.1809
10085TIP3    H251671   0.396   1.487   5.453  0.7982  1.4776  0.6200
10086TIP3   OH251672   2.588   3.090  15.806  0.7469 -0.4718  0.0889
10086TIP3    H151673   2.500   3.105  15.840  0.2613 -1.1804 -0.8141
10086TIP3    H251674   2.577   3.022  15.739  1.9482 -0.4303 -0.1774
10087TIP3   OH251675   1.011   1.019  13.458  0.4409 -0.1417 -0.1920
10087TIP3    H151676   0.932   0.967  13.467 -0.6694  1.2439 -1.3821
10087TIP3    H251677   0.992   1.101  13.504  2.2329 -0.7576  1.8561
10088TIP3   OH251678   2.423   1.765   2.790 -0.1202  0.1864 -0.2090
10088TIP3    H151679   2.404   1.773   2.697 -2.2178  0.4097  0.1909
10088TIP3    H251680   2.449   1.673   2.801  0.0623  0.1387 -0.9952
10089TIP3   OH251681   6.145   3.664   4.976  0.0548  0.2742  0.2530
10089TIP3    H151682   6.114   3.629   5.059  0.1291  1.4567  0.7952
10089TIP3    H251683   6.080   3.634   4.912  0.4339 -1.3456  0.5658
10090TIP3   OH251684   1.290   5.009   2.330  0.5002 -0.3044 -0.1539
10090TIP3    H151685   1.208   4.963   2.313 -0.0888 -0.5282  2.7022
10090TIP3    H251686   1.352   4.972   2.268 -1.5055 -0.1908 -2.3334
10091TIP3   OH251687   5.322   2.568  16.088  0.1224 -0.0976 -0.3654
10091TIP3    H151688   5.416   2.567  16.070  0.1192 -1.9964 -0.5191
10091TIP3    H251689   5.282   2.531  16.009 -0.7338  0.4291 -0.1896
10092TIP3   OH251690   2.774   5.030  16.746 -0.0399  0.4083 -0.1071
10092TIP3    H151691   2.744   4.954  16.696 -0.3802  0.0750  0.5903
10092TIP3    H251692   2.773   5.001  16.837  2.1863  0.4505 -0.0045
10093TIP3   OH251693   2.568   5.426   1.923  0.0437  0.2022  0.7586
10093TIP3    H151694   2.652   5.413   1.967  0.2146 -1.4725  0.0200
10093TIP3    H251695   2.526   5.340   1.927 -1.1852  0.7553  0.1928
10094TIP3   OH251696   6.047   1.123  17.160  0.0178 -0.2923  0.3706
10094TIP3    H151697   6.003   1.207  17.174  2.1359  0.7896  0.8217
10094TIP3    H251698   6.034   1.076  17.243  1.4601  0.8804  1.3094
10095TIP3   OH251699   4.719   1.065   2.596  0.0178 -0.5328 -0.2222
10095TIP3    H151700   4.660   1.041   2.524 -1.2413 -1.6901  1.1383
10095TIP3    H251701   4.758   1.148   2.568  0.2175 -1.3344 -2.6012
10096TIP3   OH251702   3.818   5.321   6.251 -0.0371 -0.3027 -0.4560
10096TIP3    H151703   3.819   5.367   6.335  2.2997 -0.0416 -0.5648
10096TIP3    H251704   3.725   5.306   6.233 -0.8856  3.5052  0.0159
10097TIP3   OH251705   2.493   2.868  12.735 -0.4530  0.4726  0.0827
10097TIP3    H151706   2.481   2.859  12.829  3.3575  2.0459  0.9229
10097TIP3    H251707   2.547   2.793  12.710  0.7397  1.4138 -0.2550
10098TIP3   OH251708   6.645   4.136  16.987  0.1648 -0.3923  0.1421
10098TIP3    H151709   6.550   4.148  16.983  0.1358  0.2711  1.9965
10098TIP3    H251710   6.661   4.060  16.931 -1.2756  0.2419 -1.2445
10099TIP3   OH251711   0.743   3.886  15.665 -0.3160 -0.0452 -0.1379
10099TIP3    H151712   0.750   3.827  15.739  0.6169  0.6249  0.3259
10099TIP3    H251713   0.829   3.884  15.623 -0.4706  0.4786 -0.4980
10100TIP3   OH251714   5.567   1.763  15.112 -0.1569  0.3731 -0.1370
10100TIP3    H151715   5.490   1.729  15.158  0.1454  0.6966  0.6147
10100TIP3    H251716   5.578   1.852  15.145  0.3044  0.4682 -0.5382
10101TIP3   OH251717   6.264   4.898   5.203  0.1887 -0.4934 -0.4279
10101TIP3    H151718   6.314   4.968   5.243  0.2369  0.3698 -1.9129
10101TIP3    H251719   6.321   4.822   5.207  1.3367  0.2837 -1.4015
10102TIP3   OH251720   5.960   1.028   4.262 -0.0052  0.8195 -0.3205
10102TIP3    H151721   5.963   1.007   4.169  0.2894  0.6059 -0.2665
10102TIP3    H251722   6.041   1.077   4.278  2.2503 -2.7738  0.6644
10103TIP3   OH251723   6.687   3.145   5.663 -0.1357 -0.2689 -0.0887
10103TIP3    H151724   6.733   3.229   5.664 -0.8200  0.1032  0.5137
10103TIP3    H251725   6.681   3.122   5.570  0.2901  0.2120 -0.2413
10104TIP3   OH251726   5.725   5.056   1.574 -0.0979 -0.2158  0.4063
10104TIP3    H151727   5.670   5.017   1.642  0.5118  0.8633  1.5504
10104TIP3    H251728   5.805   5.002   1.574  0.1347  0.1190  0.9557
10105TIP3   OH251729   2.559   4.300   5.337  0.2214  1.0690 -0.1140
10105TIP3    H151730   2.594   4.360   5.404 -0.4470 -0.5254  1.7393
10105TIP3    H251731   2.502   4.241   5.385  1.9521 -2.0121 -1.5693
10106TIP3   OH251732   1.690   5.589  15.070 -0.1684 -0.1878 -0.2553
10106TIP3    H151733   1.709   5.641  15.148 -0.9902  0.2628 -0.3422
10106TIP3    H251734   1.595   5.597  15.058 -0.4381 -2.2181  0.0919
10107TIP3   OH251735   0.969   2.396   4.475  0.3711  0.1192 -0.1789
10107TIP3    H151736   0.975   2.394   4.380 -1.6568  0.9071 -0.3794
10107TIP3    H251737   0.977   2.489   4.498  1.2525 -0.1030  0.4690
10108TIP3   OH251738   1.980   4.058  13.058  0.3855  0.3548 -0.0923
10108TIP3    H151739   2.018   3.974  13.032  1.5162  0.6466  0.5639
10108TIP3    H251740   1.986   4.060  13.153  1.1353  1.5105 -0.1331
10109TIP3   OH251741   5.222   2.176   0.883  0.7803 -0.3256 -0.2197
10109TIP3    H151742   5.227   2.095   0.833 -0.5714 -0.5822  0.0036
10109TIP3    H251743   5.130   2.203   0.875  0.6712 -0.0313  1.5493
10110TIP3   OH251744   4.073   3.515  10.686  0.0085  0.2183  0.2471
10110TIP3    H151745   4.165   3.533  10.669  0.3400  0.2342  1.8277
10110TIP3    H251746   4.034   3.600  10.706 -1.3923  0.8950 -4.3484
10111TIP3   OH251747   2.761   3.183   0.577  0.1989 -0.0150 -0.0205
10111TIP3    H151748   2.766   3.105   0.632 -1.4208  0.3609  0.7221
10111TIP3    H251749   2.675   3.179   0.537 -0.1658  1.6835  0.5135
10112TIP3   OH251750   2.914   5.543   1.846 -0.1976 -0.2694 -0.8136
10112TIP3    H151751   2.867   5.549   1.929 -0.7174 -0.7576 -1.0671
10112TIP3    H251752   2.876   5.466   1.802  0.1096 -0.0495 -1.4756
10113TIP3   OH251753   0.811   6.120  17.272 -0.2950  0.1097 -0.0239
10113TIP3    H151754   0.894   6.151  17.309  0.2176 -1.5893  0.3424
10113TIP3    H251755   0.824   6.124  17.177  0.5827 -0.9906  0.0230
10114TIP3   OH251756   6.067   1.520  13.523  0.1655  0.3862 -0.0992
10114TIP3    H151757   6.159   1.541  13.506 -0.0423  0.9806 -0.5662
10114TIP3    H251758   6.067   1.429  13.552  0.8087  0.0881 -0.9926
10115TIP3   OH251759   2.925   6.221   4.076 -0.1112 -0.1008  0.3267
10115TIP3    H151760   2.995   6.234   4.012  0.5722  1.4314  1.3195
10115TIP3    H251761   2.844   6.222   4.024  0.4649  0.3728 -0.5954
10116TIP3   OH251762   5.251   2.940  13.397  0.3822  0.9524 -0.0287
10116TIP3    H151763   5.249   2.951  13.302 -0.3857  0.4909 -0.0734
10116TIP3    H251764   5.312   3.007  13.428  1.1064  0.7118 -0.8949
10117TIP3   OH251765   4.919   5.958  12.803  0.2606 -0.0668 -0.5300
10117TIP3    H151766   4.973   5.885  12.771  0.5091  0.2513 -0.8463
10117TIP3    H251767   4.832   5.921  12.814  0.6756 -0.7761  0.6445
10118TIP3   OH251768   1.848   3.136  11.599 -0.4965 -0.1776  0.1677
10118TIP3    H151769   1.825   3.141  11.506 -0.2285 -0.6486  0.0717
10118TIP3    H251770   1.810   3.215  11.637 -2.3922 -0.9564  0.0359
10119TIP3   OH251771   3.377   1.046  13.580  0.3183  0.2783 -0.3024
10119TIP3    H151772   3.412   0.961  13.550  1.2970  1.0965 -1.6301
10119TIP3    H251773   3.307   1.023  13.640  1.6039 -1.4811  0.6249
10120TIP3   OH251774   6.405   4.249   5.618 -0.7215  0.3368  0.0310
10120TIP3    H151775   6.391   4.165   5.573 -1.6240  0.4724  0.0343
10120TIP3    H251776   6.322   4.266   5.662  0.0601  0.3306  1.5864
10121TIP3   OH251777   4.811   0.940  17.315 -0.2346 -0.0100  0.1347
10121TIP3    H151778   4.877   0.937  17.384 -0.8084 -0.0402  0.6889
10121TIP3    H251779   4.832   1.018  17.264 -0.3447  0.5232  0.8897
10122TIP3   OH251780   2.155   5.761  17.287  0.0573 -0.3211 -0.2471
10122TIP3    H151781   2.188   5.691  17.230  0.5064 -0.7801  0.5531
10122TIP3    H251782   2.073   5.726  17.322 -1.4466  0.9049 -2.3994
10123TIP3   OH251783   4.940   2.882   2.020  0.5046  0.4103  0.1203
10123TIP3    H151784   5.027   2.899   1.982 -0.2090 -0.8308 -2.3008
10123TIP3    H251785   4.881   2.940   1.971 -0.2678 -0.0838  0.4514
10124TIP3   OH251786   3.392   3.057  11.919  0.4325 -0.4048  0.0097
10124TIP3    H151787   3.424   3.085  12.005  0.6796  2.4036 -0.8874
10124TIP3    H251788   3.464   3.077  11.859 -0.5667 -0.1391 -1.1461
10125TIP3   OH251789   6.556   1.695   2.379  0.7044 -0.1956  0.6904
10125TIP3    H151790   6.624   1.631   2.360  0.4776 -0.2152 -0.0800
10125TIP3    H251791   6.536   1.682   2.472  0.3283 -1.5699  0.4273
10126TIP3   OH251792   0.207   1.811  15.854  0.2640  0.7331  0.0384
10126TIP3    H151793   0.206   1.723  15.815  1.4977  0.1225  1.3042
10126TIP3    H251794   0.208   1.871  15.779  3.3926 -0.3868 -0.9657
10127TIP3   OH251795   6.387   4.233   2.300 -0.3543  0.1641  0.5233
10127TIP3    H151796   6.359   4.292   2.370 -0.7369 -1.8748  2.1785
10127TIP3    H251797   6.306   4.192   2.270  0.0447 -0.5695  0.4173
10128TIP3   OH251798   3.715   0.431   1.231  0.2748 -0.1478  0.1033
10128TIP3    H151799   3.806   0.404   1.216  0.7804  1.5542 -0.0977
10128TIP3    H251800   3.721   0.502   1.295 -1.0957 -1.2013  1.4635
10129TIP3   OH251801   0.392   1.543   2.789  0.5871 -0.8493  0.4087
10129TIP3    H151802   0.371   1.597   2.713 -0.1382  1.2044  1.9756
10129TIP3    H251803   0.434   1.465   2.752  1.3129  0.5787 -2.0029
10130TIP3   OH251804   4.650   1.349   4.908 -0.3508 -0.2829  0.0838
10130TIP3    H151805   4.684   1.425   4.862 -1.8538 -0.0706 -0.7428
10130TIP3    H251806   4.719   1.283   4.900  1.3571  1.2174  1.5719
10131TIP3   OH251807   6.213   1.789  13.573 -0.5847  0.3747  0.3374
10131TIP3    H151808   6.247   1.827  13.654  1.4235 -2.5983  1.0404
10131TIP3    H251809   6.129   1.751  13.598 -0.1248 -0.2477  0.9504
10132TIP3   OH251810   2.588   5.963  13.291 -0.5504  0.4020 -0.2701
10132TIP3    H151811   2.651   5.903  13.252 -0.2079 -0.1134  1.0394
10132TIP3    H251812   2.641   6.032  13.330 -0.7995  0.1131  0.5937
10133TIP3   OH251813   2.929   2.100   2.097 -0.2523 -0.1023 -0.3829
10133TIP3    H151814   3.001   2.061   2.147 -0.4244  1.0498  0.8231
10133TIP3    H251815   2.850   2.062   2.136 -0.3420 -0.2985 -0.7574
10134TIP3   OH251816   5.739   5.496   3.577 -0.2424 -0.1888 -0.0140
10134TIP3    H151817   5.785   5.576   3.554 -1.6009  0.6248  0.0441
10134TIP3    H251818   5.736   5.497   3.673  0.4596 -0.7515  0.0291
10135TIP3   OH251819   6.401   2.434   1.273 -0.4538  0.4092 -0.7030
10135TIP3    H151820   6.307   2.431   1.253 -0.6434 -0.9725  0.2854
10135TIP3    H251821   6.422   2.528   1.272 -2.2207  0.8868  0.6340
10136TIP3   OH251822   1.661   4.036   1.666 -0.0576 -0.0140  0.2660
10136TIP3    H151823   1.667   4.062   1.574  0.2525  0.6699  0.4684
10136TIP3    H251824   1.573   3.999   1.676 -0.8576  1.7241  0.1266
10137TIP3   OH251825   0.162   3.155  16.213  0.5626 -0.4327 -0.8965
10137TIP3    H151826   0.070   3.145  16.238  0.8227 -1.7277 -0.3656
10137TIP3    H251827   0.208   3.167  16.297  1.1409 -2.2653 -0.9026
10138TIP3   OH251828   2.604   0.160   3.598 -0.8737  0.2397  0.2541
10138TIP3    H151829   2.667   0.113   3.543 -2.2836 -0.1388 -1.1256
10138TIP3    H251830   2.564   0.223   3.538 -3.3752 -1.0591  0.4513
10139TIP3   OH251831   6.518   2.602   2.071  0.0861  0.1371 -0.0462
10139TIP3    H151832   6.505   2.518   2.027 -0.6321 -0.4888  1.3041
10139TIP3    H251833   6.549   2.661   2.002  1.8321 -1.5233 -0.7619
10140TIP3   OH251834   5.739   6.414  12.744 -0.4281 -0.0204 -0.5244
10140TIP3    H151835   5.743   6.319  12.757 -0.2057 -0.0043 -0.4776
10140TIP3    H251836   5.661   6.441  12.794  0.2420 -0.0052  0.5565
10141TIP3   OH251837   0.005   5.834  12.672 -1.2228  0.3625 -0.0721
10141TIP3    H151838  -0.042   5.837  12.755  0.2675  0.4840  0.8066
10141TIP3    H251839   0.059   5.913  12.672 -2.2513  1.1369 -1.8450
10142TIP3   OH251840   6.415   3.040  15.312  1.0068 -0.3120 -0.2584
10142TIP3    H151841   6.392   2.947  15.315  2.1917 -0.6224 -0.5142
10142TIP3    H251842   6.344   3.081  15.262 -0.0049 -0.9100  0.6221
10143TIP3   OH251843   1.527   1.634   3.343  0.2439  0.5745 -0.1420
10143TIP3    H151844   1.579   1.578   3.400 -0.9646  0.4063  0.8194
10143TIP3    H251845   1.456   1.666   3.398 -0.7249  0.7473 -1.4436
10144TIP3   OH251846   6.227   4.800  13.439  0.6690  0.0653 -0.1665
10144TIP3    H151847   6.134   4.802  13.464  0.8250  0.1783  0.4012
10144TIP3    H251848   6.250   4.892  13.426  0.8453  0.0774  0.2238
10145TIP3   OH251849   0.125   0.108   0.532 -0.2542  0.5901 -0.0682
10145TIP3    H151850   0.030   0.110   0.519 -0.1618 -0.2339 -1.0557
10145TIP3    H251851   0.137   0.053   0.609 -0.5282 -0.6965 -0.9115
10146TIP3   OH251852   3.684   6.433   6.004 -0.6656  0.1703  0.2325
10146TIP3    H151853   3.601   6.477   5.990 -0.5951  0.5105  0.8518
10146TIP3    H251854   3.739   6.461   5.931 -0.8441  0.5717  0.2491
10147TIP3   OH251855   3.158   3.769  11.583 -0.3456 -0.1425  0.1846
10147TIP3    H151856   3.157   3.685  11.538 -1.8126  0.4578 -0.9999
10147TIP3    H251857   3.165   3.747  11.676 -1.6168 -1.6348 -0.0348
10148TIP3   OH251858   1.933   4.874  16.629  0.0692  0.1402  0.7676
10148TIP3    H151859   2.016   4.895  16.586 -0.3117 -0.0331 -0.0843
10148TIP3    H251860   1.944   4.906  16.719  0.3926  1.8129  0.1803
10149TIP3   OH251861   6.704   3.339  14.849 -0.4599  0.6783 -0.2192
10149TIP3    H151862   6.770   3.271  14.863 -1.3544 -0.3905 -0.9496
10149TIP3    H251863   6.740   3.417  14.890 -0.1499 -0.6509  2.2273
10150TIP3   OH251864   0.067   2.555   5.210 -0.3798  0.4151 -0.1485
10150TIP3    H151865   0.009   2.607   5.266  1.7251  0.0665  2.6122
10150TIP3    H251866   0.136   2.526   5.270  0.9254 -1.7965 -2.5780
10151TIP3   OH251867   0.282   4.449   5.427 -0.4642  0.0825 -0.5150
10151TIP3    H151868   0.222   4.375   5.438 -1.1655  0.6931 -0.0972
10151TIP3    H251869   0.291   4.460   5.333 -1.1440  0.0699 -0.5891
10152TIP3   OH251870   6.456   0.037  16.015  0.1187  0.0579 -0.0162
10152TIP3    H151871   6.530   0.097  16.009  0.1990 -0.0222  0.1595
10152TIP3    H251872   6.496  -0.049  16.030  0.0263 -0.1246 -0.8034
10153TIP3   OH251873   0.102   1.911   4.118 -0.2165 -0.1155 -0.3012
10153TIP3    H151874   0.023   1.953   4.084  0.1844  2.0359  1.1499
10153TIP3    H251875   0.072   1.857   4.191 -0.3903  0.5595  0.1339
10154TIP3   OH251876   3.390   2.926  15.923 -0.3559 -0.4324  0.4636
10154TIP3    H151877   3.348   2.958  15.843  0.8386 -1.2339 -0.5193
10154TIP3    H251878   3.318   2.918  15.986 -1.2126  0.8951 -0.2846
10155TIP3   OH251879   2.561   6.042   5.413 -0.2955 -0.4783  0.3395
10155TIP3    H151880   2.522   6.125   5.386 -0.1439 -0.5323 -0.0567
10155TIP3    H251881   2.645   6.067   5.452 -0.0483 -0.4722 -0.1808
10156TIP3   OH251882   3.061   2.821  14.281  0.0678  0.3316  0.2600
10156TIP3    H151883   2.992   2.770  14.238  0.4458  1.3458 -1.6772
10156TIP3    H251884   3.133   2.823  14.218  2.2278 -1.2602  2.4792
10157TIP3   OH251885   4.565   2.432   1.273  0.1508 -0.0547 -0.2716
10157TIP3    H151886   4.520   2.358   1.231 -0.5104  0.2732 -0.1474
10157TIP3    H251887   4.658   2.409   1.267  0.1048  0.0354 -2.0444
10158TIP3   OH251888   1.727   6.074   0.407  0.3677 -0.4741  0.0924
10158TIP3    H151889   1.692   6.152   0.365 -1.3011 -1.3868 -0.2666
10158TIP3    H251890   1.822   6.082   0.396  0.2661  1.5614  0.2037
10159TIP3   OH251891   6.530   2.985  12.172 -0.1108 -0.0178  0.1388
10159TIP3    H151892   6.493   3.057  12.122  1.1722 -0.2810 -1.2824
10159TIP3    H251893   6.596   3.026  12.228 -1.4744  0.2634  1.5983
10160TIP3   OH251894   5.996   5.089   0.055 -0.7707  0.7007 -0.3014
10160TIP3    H151895   6.025   5.001   0.080 -2.0015  0.7570  1.4714
10160TIP3    H251896   6.027   5.146   0.125  0.3938  1.8142 -1.6477
10161TIP3   OH251897   4.486   2.561   5.293  0.0224 -0.3013  0.0485
10161TIP3    H151898   4.443   2.475   5.294  0.8851 -0.7438  0.5397
10161TIP3    H251899   4.560   2.551   5.353  0.1779  0.7694  0.0486
10162TIP3   OH251900   4.078   5.832  13.868  0.0321  0.3480 -0.1149
10162TIP3    H151901   4.086   5.925  13.844  0.3006  0.2870 -0.2694
10162TIP3    H251902   4.071   5.786  13.785 -0.3906  0.2530 -0.0282
10163TIP3   OH251903   6.487   0.500   5.127 -0.1075 -0.4157 -0.2987
10163TIP3    H151904   6.501   0.417   5.081 -0.2530 -0.7427  0.2472
10163TIP3    H251905   6.428   0.478   5.199  0.9532 -0.1095  0.6742
10164TIP3   OH251906   2.939   4.493  13.957  0.0386 -0.0625  0.2519
10164TIP3    H151907   2.999   4.508  13.884 -1.3781  1.4930 -0.6491
10164TIP3    H251908   2.979   4.539  14.031  1.0530 -0.9261  0.2558
10165TIP3   OH251909   3.430   3.667  15.934  0.6337  0.1285 -0.8544
10165TIP3    H151910   3.465   3.755  15.919  1.4980 -0.1799 -0.6715
10165TIP3    H251911   3.493   3.608  15.894 -0.5522 -0.3804 -2.0510
10166TIP3   OH251912   5.083   0.767  11.810  0.0641  0.3259  0.2700
10166TIP3    H151913   5.134   0.687  11.822  0.0393  0.4854  1.6285
10166TIP3    H251914   5.001   0.738  11.770  0.0056 -0.3438  0.8623
10167TIP3   OH251915   0.627   1.686  15.874  0.2575 -0.3177  0.5567
10167TIP3    H151916   0.716   1.651  15.882  0.2991 -0.2493  0.3924
10167TIP3    H251917   0.598   1.698  15.964  0.1101 -1.1113  0.6218
10168TIP3   OH251918   1.309   3.546   6.742  0.4107 -0.6367  0.1207
10168TIP3    H151919   1.353   3.485   6.682  2.3247 -0.3185  1.1011
10168TIP3    H251920   1.362   3.626   6.737 -0.5615  0.0748  0.7636
10169TIP3   OH251921   6.217   3.599  10.692 -0.0645 -0.2574  0.6828
10169TIP3    H151922   6.126   3.621  10.669 -0.0746 -0.9471  0.0050
10169TIP3    H251923   6.209   3.548  10.773 -0.2494  0.0270  0.8445
10170TIP3   OH251924   5.006   0.007  10.536 -0.4772  0.1496  0.4675
10170TIP3    H151925   5.080  -0.053  10.551 -0.5168  0.1512  0.6710
10170TIP3    H251926   5.035   0.061  10.462  0.4436  1.2774  1.6014
10171TIP3   OH251927   5.192   0.549   3.976  0.2602 -0.0446  0.7602
10171TIP3    H151928   5.244   0.627   3.958  0.9460 -0.8307 -0.9473
10171TIP3    H251929   5.116   0.580   4.025  0.1652  1.7971 -0.4737
10172TIP3   OH251930   3.456   1.638   5.122 -0.1589 -0.1328 -0.3905
10172TIP3    H151931   3.472   1.604   5.034 -0.9738  0.6686 -0.8684
10172TIP3    H251932   3.369   1.605   5.145 -1.4913  2.4561 -1.3357
10173TIP3   OH251933   6.371   1.290   4.259  0.3612  0.2695  0.1274
10173TIP3    H151934   6.296   1.267   4.314  1.4420 -0.3795  1.3911
10173TIP3    H251935   6.378   1.386   4.266 -1.1812  0.5237 -1.1761
10174TIP3   OH251936   2.871   4.143  13.800 -0.2710  0.2761 -1.0581
10174TIP3    H151937   2.889   4.089  13.878 -2.2145  0.7915 -0.1926
10174TIP3    H251938   2.826   4.220  13.835 -2.5776 -0.1752 -2.7977
10175TIP3   OH251939   4.112   5.867   0.829  0.0029 -0.6356  0.3341
10175TIP3    H151940   4.056   5.916   0.889  0.1732  1.4364 -1.0751
10175TIP3    H251941   4.051   5.820   0.773 -0.2771 -0.1850  0.2513
10176TIP3   OH251942   6.662   6.295   2.474 -0.3753  0.1522  0.3721
10176TIP3    H151943   6.599   6.367   2.483 -1.9777 -1.1540 -0.0673
10176TIP3    H251944   6.635   6.231   2.540  0.1397 -0.6711 -0.1962
10177TIP3   OH251945   0.424   4.673   3.174 -0.4587 -0.2776  0.0775
10177TIP3    H151946   0.357   4.698   3.238 -0.2624  1.9792 -0.5188
10177TIP3    H251947   0.506   4.671   3.223 -0.8132 -2.6510  0.7204
10178TIP3   OH251948   0.316   0.928  11.168  0.0803 -0.1123 -0.6348
10178TIP3    H151949   0.393   0.981  11.189  0.0077 -0.1770 -0.1964
10178TIP3    H251950   0.274   0.913  11.252 -0.8946  0.6562 -0.9679
10179TIP3   OH251951   2.306   5.630  13.813  0.0703  0.3344  0.0076
10179TIP3    H151952   2.399   5.608  13.822 -0.0419 -0.1700 -0.0367
10179TIP3    H251953   2.303   5.726  13.820  0.1588  0.2108  4.1366
10180TIP3   OH251954   4.220   3.365  16.879 -0.6627  0.0571 -0.2614
10180TIP3    H151955   4.185   3.416  16.805 -0.1234 -0.9638 -1.2581
10180TIP3    H251956   4.295   3.416  16.909  0.4070 -0.5308 -1.8184
10181TIP3   OH251957   0.175   0.792   1.348  0.1037 -0.1699 -0.6354
10181TIP3    H151958   0.251   0.777   1.405  0.3751 -0.7307 -1.1368
10181TIP3    H251959   0.195   0.873   1.302 -1.3869  1.9237  2.1206
10182TIP3   OH251960   4.497   0.938  15.985  0.0210  0.0655 -0.6256
10182TIP3    H151961   4.465   0.862  15.937  0.5149 -2.6182  2.8999
10182TIP3    H251962   4.583   0.957  15.947 -0.6794 -0.2032 -2.4314
10183TIP3   OH251963   1.403   5.245   2.448  0.0648  0.0867  0.5157
10183TIP3    H151964   1.403   5.224   2.542 -0.7239  1.0257  0.7399
10183TIP3    H251965   1.380   5.162   2.406 -1.5536  0.1032  1.2953
10184TIP3   OH251966   0.623   1.699  12.018  0.8755 -0.4514  0.3039
10184TIP3    H151967   0.643   1.609  12.044 -0.6737 -0.5511  1.2899
10184TIP3    H251968   0.603   1.744  12.100  0.1794  0.3931 -0.3061
10185TIP3   OH251969   6.580   0.921  13.364 -0.2857 -0.2069 -0.2779
10185TIP3    H151970   6.651   0.896  13.422  0.2694  1.3584 -0.2430
10185TIP3    H251971   6.600   1.011  13.338 -1.1379 -0.4595 -1.9559
10186TIP3   OH251972   3.126   0.679   6.548  0.3784 -0.5185  0.1833
10186TIP3    H151973   3.038   0.642   6.553 -0.2591  0.7013 -1.2665
10186TIP3    H251974   3.144   0.684   6.454  0.7031  2.1418  0.3131
10187TIP3   OH251975   0.706   4.663   5.039 -0.0379  0.2491  0.0587
10187TIP3    H151976   0.649   4.587   5.036 -0.7975  0.8078  0.1427
10187TIP3    H251977   0.653   4.732   5.077  0.8660  0.6438  0.6401
10188TIP3   OH251978   3.676   3.755  13.464  0.0884  0.3134  0.7130
10188TIP3    H151979   3.657   3.663  13.447  1.5134  0.6247 -4.4672
10188TIP3    H251980   3.598   3.801  13.435  0.7668  0.7878 -0.4425
10189TIP3   OH251981   1.801   6.186   1.030 -0.1509 -0.5347  0.3565
10189TIP3    H151982   1.740   6.157   1.097  0.3323 -1.0501  0.5824
10189TIP3    H251983   1.787   6.127   0.957 -0.7478  0.0911 -0.0423
10190TIP3   OH251984   3.864   6.411   5.186 -0.0819 -0.1338 -0.1802
10190TIP3    H151985   3.858   6.505   5.204  0.9002  0.2774 -1.8106
10190TIP3    H251986   3.819   6.370   5.260  0.2031  1.5718  1.0143
10191TIP3   OH251987   4.553   5.825  16.003 -0.5101  0.4586  0.2369
10191TIP3    H151988   4.463   5.857  15.998 -1.1307 -0.9915  1.3071
10191TIP3    H251989   4.607   5.902  15.985 -1.9511  1.2824 -0.8138
10192TIP3   OH251990   4.153   5.899  17.239 -0.0931  0.1493  0.2374
10192TIP3    H151991   4.173   5.973  17.296 -1.9916  1.0067 -0.1361
10192TIP3    H251992   4.231   5.888  17.185  0.9024  0.7004  1.5123
10193TIP3   OH251993   5.849   3.219  10.957 -0.4387  0.3497 -0.4629
10193TIP3    H151994   5.839   3.265  10.873 -1.6418  0.2113 -0.4147
10193TIP3    H251995   5.868   3.289  11.020 -0.7994  0.6197 -0.6436
10194TIP3   OH251996   1.948   5.132  12.329  0.2885  0.8220  0.1001
10194TIP3    H151997   1.947   5.070  12.256 -0.6543 -0.5924  1.2484
10194TIP3    H251998   1.989   5.083  12.401  0.1466  1.7762  0.8491
10195TIP3   OH251999   3.009   4.476   4.377  0.1433  0.2193  0.7024
10195TIP3    H152000   3.000   4.571   4.369  0.5633  0.2822  0.9901
10195TIP3    H252001   2.973   4.455   4.464  0.7419  0.2085  0.9523
10196TIP3   OH252002   1.118   6.482   4.529 -0.2692 -0.4412  0.1961
10196TIP3    H152003   1.047   6.445   4.582 -0.7627 -0.3216 -0.3706
10196TIP3    H252004   1.073   6.539   4.467  0.3655 -0.0189  0.1186
10197TIP3   OH252005   5.866   2.806  12.786  0.3489  0.3604 -0.3886
10197TIP3    H152006   5.919   2.825  12.708 -0.2840  0.7811 -0.7254
10197TIP3    H252007   5.835   2.716  12.772 -0.7650  0.8479 -1.2341
10198TIP3   OH252008   4.997   1.129   4.160  0.3831  0.2293 -0.5634
10198TIP3    H152009   5.013   1.201   4.221  0.1594 -0.1785 -0.0086
10198TIP3    H252010   5.002   1.169   4.073 -0.0891  0.9821 -0.2528
10199TIP3   OH252011   4.413   2.362  13.002  0.1487  0.2008  0.3554
10199TIP3    H152012   4.413   2.315  13.085  1.0649  0.1114  0.3147
10199TIP3    H252013   4.335   2.331  12.956  1.3937 -2.2791 -0.2169
10200TIP3   OH252014   4.721   5.618  11.333 -1.1435 -0.5958 -0.1646
10200TIP3    H152015   4.754   5.675  11.264  0.5159  1.4152  2.1088
10200TIP3    H252016   4.777   5.540  11.329  1.5438  1.1229  1.1856
10201TIP3   OH252017   1.304   4.245  13.835 -0.1439  0.2866 -0.0768
10201TIP3    H152018   1.371   4.258  13.768  0.3434 -0.7404  0.1931
10201TIP3    H252019   1.255   4.327  13.836 -0.2134  0.2964 -1.7401
10202TIP3   OH252020   6.342   6.624  11.063  0.3088  0.4629  0.3996
10202TIP3    H152021   6.420   6.607  11.115 -0.0374 -1.2167  0.4233
10202TIP3    H252022   6.373   6.680  10.991  1.2998  0.6946  0.9880
10203TIP3   OH252023   4.152   4.013   2.527 -0.1773 -0.4723 -0.2322
10203TIP3    H152024   4.121   4.104   2.526  0.4199 -0.1804  1.9914
10203TIP3    H252025   4.230   4.016   2.582 -0.3023 -2.3841  0.1000
10204TIP3   OH252026   3.498   0.893   5.742  0.7958  0.7756  0.1948
10204TIP3    H152027   3.583   0.903   5.785  0.5878  1.5282  0.4547
10204TIP3    H252028   3.463   0.982   5.738 -0.9650  0.2676  2.1035
10205TIP3   OH252029   6.277   2.104   1.594  0.5194 -0.0065 -0.2323
10205TIP3    H152030   6.227   2.170   1.642  1.5575 -0.7254  1.9980
10205TIP3    H252031   6.347   2.154   1.551 -0.3105  0.6365 -0.8735
10206TIP3   OH252032   2.469   2.160   3.922  0.2080  0.4555 -0.2035
10206TIP3    H152033   2.515   2.079   3.943 -0.3726  0.7738  2.7097
10206TIP3    H252034   2.521   2.228   3.964 -0.6308  1.3359 -0.5578
10207TIP3   OH252035   0.961   3.118  15.594 -0.0439  0.2463  0.4831
10207TIP3    H152036   0.959   3.110  15.690 -1.6179  0.5375  0.5076
10207TIP3    H252037   1.046   3.158  15.575  0.3549  0.0559  1.7444
10208TIP3   OH252038   6.032   0.427  16.128 -0.0764  0.0836 -0.4214
10208TIP3    H152039   6.024   0.347  16.077  0.5536  0.5334 -1.2542
10208TIP3    H252040   6.094   0.406  16.198 -1.6464 -0.8130  0.7590
10209TIP3   OH252041   2.026   1.516   0.723  0.0297  0.0564 -0.1832
10209TIP3    H152042   2.026   1.464   0.803  0.0602  1.3088  0.6592
10209TIP3    H252043   2.091   1.584   0.738  0.6774 -0.1966 -1.6377
10210TIP3   OH252044   1.452   3.087   4.430 -0.3001  0.6211 -0.4495
10210TIP3    H152045   1.407   3.137   4.499 -0.2971  0.5289 -0.3802
10210TIP3    H252046   1.438   2.996   4.455 -1.6554  0.5348 -1.4171
10211TIP3   OH252047   0.229   1.698   5.306  0.1463  0.3731  0.3451
10211TIP3    H152048   0.224   1.655   5.391  1.0377  0.0143  0.2188
10211TIP3    H252049   0.161   1.656   5.253  1.1222 -1.0219  0.1675
10212TIP3   OH252050   3.494   0.834   0.367  0.1025 -0.4483 -0.7749
10212TIP3    H152051   3.455   0.894   0.430  0.8737  0.1120 -0.8083
10212TIP3    H252052   3.503   0.887   0.287  2.4528  0.0095 -0.2937
10213TIP3   OH252053   4.339   6.336  16.487  0.4380 -0.2736  0.0498
10213TIP3    H152054   4.422   6.296  16.459  0.5188  0.5009 -0.8668
10213TIP3    H252055   4.363   6.388  16.564  0.8493  0.0894 -0.3154
10214TIP3   OH252056   2.151   3.226  11.226  0.0723  0.0118 -0.3390
10214TIP3    H152057   2.242   3.201  11.242 -0.4705 -1.6123  0.4475
10214TIP3    H252058   2.142   3.312  11.267  0.8720 -0.4693  0.8885
10215TIP3   OH252059   3.277   1.615  13.099  0.8136 -0.2749  0.1748
10215TIP3    H152060   3.314   1.698  13.129 -0.3803  0.2685  0.2182
10215TIP3    H252061   3.250   1.571  13.179 -0.8320  0.4235  0.0342
10216TIP3   OH252062   3.676   3.669   6.255 -0.4346  0.2213 -0.4439
10216TIP3    H152063   3.755   3.670   6.201  1.4217  1.7272  2.0753
10216TIP3    H252064   3.665   3.759   6.283 -1.8392 -0.3322  0.9403
10217TIP3   OH252065   5.906   4.650  11.695  0.3192  0.9356 -0.1311
10217TIP3    H152066   5.966   4.679  11.627 -0.0079 -2.1127 -1.9048
10217TIP3    H252067   5.875   4.565  11.665  1.0639 -1.2347  4.3990
10218TIP3   OH252068   4.101   5.899  12.465 -0.1384 -0.8605  0.3227
10218TIP3    H152069   4.080   5.862  12.551  0.7630 -1.7279  0.1827
10218TIP3    H252070   4.154   5.832  12.422 -0.8568 -0.5797 -1.0483
10219TIP3   OH252071   0.773   4.108   1.366  0.2582 -0.0393 -0.1162
10219TIP3    H152072   0.742   4.169   1.300  0.1102  1.1514  1.0046
10219TIP3    H252073   0.862   4.086   1.339  0.4606  0.9933 -0.3365
10220TIP3   OH252074   4.224   4.553  13.158 -0.4874  0.1492  0.1966
10220TIP3    H152075   4.164   4.624  13.181  0.5127  0.5848  1.6623
10220TIP3    H252076   4.213   4.489  13.229 -0.4970 -0.5916 -0.4644
10221TIP3   OH252077   4.186   2.731   2.592  0.3756 -0.5351  0.1408
10221TIP3    H152078   4.102   2.764   2.624  0.4051  1.1237 -1.3133
10221TIP3    H252079   4.202   2.652   2.643 -1.9319 -0.7497  0.6493
10222TIP3   OH252080   4.182   4.379   5.932 -0.0292  0.1169 -0.2738
10222TIP3    H152081   4.134   4.316   5.986 -0.2604  0.4860 -0.0461
10222TIP3    H252082   4.158   4.464   5.967  1.9653  0.2895  0.8623
10223TIP3   OH252083   3.503   6.361  11.061 -0.1090 -0.3016 -0.1730
10223TIP3    H152084   3.578   6.309  11.034 -0.1785 -0.8634  0.6618
10223TIP3    H252085   3.427   6.308  11.038 -0.3126  0.6094 -1.7436
10224TIP3   OH252086   6.532   5.718   4.645  0.0808 -1.1562 -0.2340
10224TIP3    H152087   6.483   5.731   4.564  2.3281 -1.1858 -1.6558
10224TIP3    H252088   6.528   5.623   4.660  0.4880 -1.2782 -0.8651
10225TIP3   OH252089   5.510   3.241  14.508 -0.0684 -0.1611  0.4546
10225TIP3    H152090   5.604   3.255  14.502  0.0728 -1.1452  0.2257
10225TIP3    H252091   5.471   3.313  14.458  0.5954 -0.2221 -0.1604
10226TIP3   OH252092   3.117   1.274  16.361  0.1688  0.6042  0.1580
10226TIP3    H152093   3.160   1.309  16.439  2.2323 -2.5834  0.6492
10226TIP3    H252094   3.040   1.228  16.395  2.0974 -2.4479  0.7629
10227TIP3   OH252095   4.975   2.885   4.687 -1.1425 -0.5950 -0.1804
10227TIP3    H152096   5.066   2.915   4.678 -0.8564 -1.6182 -0.8085
10227TIP3    H252097   4.982   2.790   4.692 -2.1864 -0.6759 -0.2358
10228TIP3   OH252098   5.765   0.831   3.786  0.8695 -0.0858  0.0204
10228TIP3    H152099   5.772   0.828   3.881 -4.6043  1.6736  0.8576
10228TIP3    H252100   5.743   0.741   3.761 -1.9296  0.1508  1.2302
10229TIP3   OH252101   0.658   3.659   5.578 -0.1789  0.1655  0.7286
10229TIP3    H152102   0.667   3.589   5.643 -1.4701  0.3577  1.1485
10229TIP3    H252103   0.573   3.699   5.598  0.4002  1.6742  0.3157
10230TIP3   OH252104   1.956   2.502  12.774  0.1905  0.6707 -0.1843
10230TIP3    H152105   1.884   2.443  12.753 -2.2094  1.3636  4.5849
10230TIP3    H252106   1.930   2.585  12.734 -1.3594  0.6963  0.7617
10231TIP3   OH252107   4.244   6.312  13.754 -0.4930 -0.2102 -0.9702
10231TIP3    H152108   4.274   6.324  13.844  1.4871 -2.5724 -1.2265
10231TIP3    H252109   4.285   6.383  13.705 -0.6351  0.3928 -0.2335
10232TIP3   OH252110   2.492   0.300  13.243 -0.3541  0.0658 -0.1061
10232TIP3    H152111   2.411   0.266  13.206 -0.5456  1.0572 -0.6114
10232TIP3    H252112   2.490   0.272  13.335 -0.6705 -0.9626 -0.4194
10233TIP3   OH252113   0.054   5.154   4.050  0.1120 -0.4356 -0.0966
10233TIP3    H152114   0.116   5.102   4.101  0.9214  0.8387  0.2831
10233TIP3    H252115   0.106   5.187   3.976 -1.2262 -2.9152 -2.3204
10234TIP3   OH252116   6.662   5.224  12.983 -0.0480 -1.0930 -0.2472
10234TIP3    H152117   6.665   5.320  12.984 -0.0124 -1.0943 -0.2390
10234TIP3    H252118   6.753   5.197  12.987 -0.0922 -1.1353  0.6658
10235TIP3   OH252119   5.804   5.567   3.826 -0.1050 -0.8398 -0.0192
10235TIP3    H152120   5.851   5.649   3.837 -0.0674 -0.7429 -0.8643
10235TIP3    H252121   5.733   5.571   3.891 -0.7156  0.3060 -0.7367
10236TIP3   OH252122   6.594   1.450  11.735 -0.5842  0.0979  0.0536
10236TIP3    H152123   6.647   1.375  11.760  0.9765  1.4691  1.0664
10236TIP3    H252124   6.516   1.444  11.791 -1.0590 -1.3547 -0.7088
10237TIP3   OH252125   5.604   6.514   5.976  0.1432  0.7261 -0.2481
10237TIP3    H152126   5.562   6.434   6.010  0.6857  0.2787 -0.6064
10237TIP3    H252127   5.697   6.500   5.993  0.3101  0.9770 -0.9470
10238TIP3   OH252128   2.078   4.706   3.896 -0.1522  0.4661  0.0765
10238TIP3    H152129   2.129   4.714   3.977 -0.5400  0.1954  0.3526
10238TIP3    H252130   2.128   4.645   3.842 -1.0633 -1.2685  1.0787
10239TIP3   OH252131   2.723   1.659   1.272  0.3584 -0.7072 -0.4341
10239TIP3    H152132   2.694   1.573   1.300  2.4116 -1.3517 -0.0887
10239TIP3    H252133   2.664   1.720   1.317  0.2789 -1.8772  1.1481
10240TIP3   OH252134   1.779   2.162  15.731  0.0178 -0.5597  0.0658
10240TIP3    H152135   1.684   2.156  15.737 -0.0841 -0.1575 -1.0286
10240TIP3    H252136   1.808   2.174  15.822 -1.1186  1.3786  0.2154
10241TIP3   OH252137   0.920   3.536  14.564 -0.4513 -0.7754 -0.0723
10241TIP3    H152138   1.001   3.541  14.616 -0.7161 -1.1542  0.3879
10241TIP3    H252139   0.871   3.614  14.590 -1.7361 -2.2402  2.2506
10242TIP3   OH252140   4.205   2.976   1.093  0.2452 -0.1886 -1.2870
10242TIP3    H152141   4.194   2.962   1.187 -1.2477  1.3329 -1.1723
10242TIP3    H252142   4.250   2.898   1.061 -0.2642 -1.2592  0.5054
10243TIP3   OH252143   4.829   2.956   2.572 -0.3507  0.2712 -0.3143
10243TIP3    H152144   4.902   2.955   2.634  0.1732  0.9100 -0.9066
10243TIP3    H252145   4.760   2.906   2.616 -0.2797  1.3505  1.1190
10244TIP3   OH252146   4.799   3.790  16.921  0.4327 -0.0448  0.4078
10244TIP3    H152147   4.866   3.826  16.863  0.1974 -0.1397  0.0773
10244TIP3    H252148   4.833   3.806  17.009 -0.4024  2.5294  0.3553
10245TIP3   OH252149   2.076   2.705  13.662 -0.2840  0.2307 -0.3901
10245TIP3    H152150   2.068   2.795  13.632 -1.2061  0.4986  0.5773
10245TIP3    H252151   2.110   2.712  13.752  1.4887 -0.4966 -0.9644
10246TIP3   OH252152   3.645   0.600  14.832 -0.0393  0.0635 -0.0063
10246TIP3    H152153   3.590   0.526  14.856 -0.7887  0.3128 -0.8938
10246TIP3    H252154   3.595   0.647  14.766  1.3342  0.1775 -1.0201
10247TIP3   OH252155   2.049   1.416  12.624 -0.3950  0.2675 -0.6295
10247TIP3    H152156   2.035   1.322  12.610 -0.3057  0.1810 -0.1673
10247TIP3    H252157   2.003   1.459  12.552 -1.1829 -0.0934 -0.3531
10248TIP3   OH252158   4.936   1.332   0.129  0.1836  0.5514 -0.4199
10248TIP3    H152159   4.884   1.284   0.193  3.0471 -1.5917  0.5192
10248TIP3    H252160   5.003   1.270   0.101  2.4130  3.1682 -1.3385
10249TIP3   OH252161   3.251   0.428   1.813 -0.3555  0.1687  0.2520
10249TIP3    H152162   3.248   0.361   1.744  0.0430 -0.3209  0.7047
10249TIP3    H252163   3.335   0.415   1.856  0.4989  2.0723 -0.7376
10250TIP3   OH252164   4.837   6.093  11.588  0.6411 -0.0281  0.1974
10250TIP3    H152165   4.898   6.156  11.626 -0.1500  0.1901  1.1470
10250TIP3    H252166   4.892   6.030  11.541  1.5098  0.7466  0.1691
10251TIP3   OH252167   6.630   4.869   4.524  0.0265 -0.2100 -0.1720
10251TIP3    H152168   6.637   4.943   4.585 -1.1183 -1.0440  1.0255
10251TIP3    H252169   6.637   4.909   4.437  0.1089  1.2164  0.4652
10252TIP3   OH252170   6.443   1.412  13.949 -0.2369 -0.2836 -0.1912
10252TIP3    H152171   6.533   1.414  13.981 -0.6702  0.7215  1.0410
10252TIP3    H252172   6.412   1.502  13.958 -1.4288 -0.6497 -0.4306
10253TIP3   OH252173   4.696   3.532   3.928  0.1480 -0.4663 -0.0533
10253TIP3    H152174   4.743   3.468   3.874 -0.2999  0.4034 -1.5243
10253TIP3    H252175   4.617   3.486   3.957  0.0254 -0.7089 -0.7662
10254TIP3   OH252176   2.109   4.467   6.143  0.2119  0.0426  0.0332
10254TIP3    H152177   2.063   4.464   6.227  1.7241  1.9229  1.0348
10254TIP3    H252178   2.052   4.518   6.086  0.1687  0.7188  0.6646
10255TIP3   OH252179   6.161   4.531   2.925 -0.7485 -0.0391 -0.1372
10255TIP3    H152180   6.214   4.472   2.979 -1.2449  0.1249  0.5527
10255TIP3    H252181   6.108   4.472   2.871  0.3233 -0.2018 -1.0459
10256TIP3   OH252182   1.272   2.943  17.060 -0.7014 -0.6589  0.1729
10256TIP3    H152183   1.228   2.893  17.129 -0.7306 -0.1655  0.5109
10256TIP3    H252184   1.258   2.890  16.981 -2.1605 -0.3852  0.2077
10257TIP3   OH252185   4.182   1.019  11.666 -0.1349  0.1026  0.1839
10257TIP3    H152186   4.198   0.934  11.626  0.7024  0.3493 -0.0217
10257TIP3    H252187   4.107   1.054  11.618  1.8712  1.1292 -2.4589
10258TIP3   OH252188   5.176   2.694   4.815  0.1262  0.2363  0.0507
10258TIP3    H152189   5.208   2.758   4.878 -1.5324 -0.6111  1.8842
10258TIP3    H252190   5.110   2.644   4.864  1.2103 -2.7753 -1.2885
10259TIP3   OH252191   2.401   3.168   3.096  0.2403  0.1608  0.2768
10259TIP3    H152192   2.306   3.160   3.109  0.1651  0.1200 -0.2582
10259TIP3    H252193   2.425   3.249   3.139  0.4448 -1.1884  2.9080
10260TIP3   OH252194   2.277   5.800   0.459 -0.6430  0.2224 -0.3180
10260TIP3    H152195   2.332   5.870   0.495 -1.5507  0.5624  0.4297
10260TIP3    H252196   2.265   5.824   0.367 -0.4172  0.7013 -0.2259
10261TIP3   OH252197   3.466   1.477   3.183  0.8725 -0.1430 -0.6453
10261TIP3    H152198   3.541   1.526   3.147  0.3285  1.0101 -0.2577
10261TIP3    H252199   3.502   1.430   3.257  1.3006  0.1184 -0.6819
10262TIP3   OH252200   4.809   6.616   3.796  0.2119  0.1635  0.2205
10262TIP3    H152201   4.863   6.654   3.727  1.4485  0.2819  1.2052
10262TIP3    H252202   4.803   6.523   3.774  1.1413  0.0807  0.2731
10263TIP3   OH252203   4.616   1.318  11.468 -0.1424 -0.0060 -0.4789
10263TIP3    H152204   4.560   1.242  11.455  2.0710 -1.3932 -3.0769
10263TIP3    H252205   4.620   1.360  11.382 -0.0788  2.2328  0.5275
10264TIP3   OH252206   2.951   0.344   0.901  0.5272  0.0780  0.1177
10264TIP3    H152207   3.036   0.325   0.942  1.0630  2.5078  0.2549
10264TIP3    H252208   2.909   0.404   0.962 -0.3780  0.6013 -1.0034
10265TIP3   OH252209   1.825   2.963   2.495 -0.4745  0.2965 -0.1668
10265TIP3    H152210   1.755   2.900   2.476 -1.6097  1.3247  0.4337
10265TIP3    H252211   1.779   3.037   2.535  1.1282  0.4582  1.4981
10266TIP3   OH252212   4.638   4.723   4.118  0.0533  0.0982  0.1392
10266TIP3    H152213   4.670   4.779   4.047 -2.7889  2.0680  0.2426
10266TIP3    H252214   4.542   4.725   4.108 -0.2835 -2.6080  1.8351
10267TIP3   OH252215   3.065   0.336   5.360 -0.8150 -0.2766 -0.5401
10267TIP3    H152216   3.076   0.398   5.287  1.7935  0.8551  0.6733
10267TIP3    H252217   3.010   0.382   5.422 -0.9185 -0.1833 -0.6989
10268TIP3   OH252218   6.161   2.094   4.845  0.2818  0.2680 -0.0687
10268TIP3    H152219   6.164   2.050   4.759  2.3008  0.5196 -0.1533
10268TIP3    H252220   6.239   2.149   4.847 -0.8300  1.8946  1.1148
10269TIP3   OH252221   3.381   3.518  14.914  0.1723 -0.0789 -0.5423
10269TIP3    H152222   3.368   3.506  14.820  0.3994  0.2755 -0.6177
10269TIP3    H252223   3.454   3.459  14.935 -0.2709 -0.6154 -0.4715
10270TIP3   OH252224   5.230   3.786  16.847  0.3269  0.1018 -0.2657
10270TIP3    H152225   5.156   3.835  16.811 -0.0895 -1.0922 -1.0982
10270TIP3    H252226   5.230   3.704  16.798  0.2872 -1.2451  1.8760
10271TIP3   OH252227   1.357   6.128   0.809  0.9378 -0.5084 -0.1558
10271TIP3    H152228   1.297   6.198   0.782 -0.8301 -2.1299 -0.6110
10271TIP3    H252229   1.422   6.125   0.739  1.6619  1.3319  0.3864
10272TIP3   OH252230   1.398   5.169  15.902 -0.3373 -0.9930 -0.1230
10272TIP3    H152231   1.468   5.135  15.958  0.6428  1.0569  0.0129
10272TIP3    H252232   1.442   5.191  15.820 -1.6643 -3.4893 -1.6164
10273TIP3   OH252233   2.420   6.397  13.497 -0.4992  0.0516 -0.5589
10273TIP3    H152234   2.330   6.371  13.478 -0.4404 -1.6290  1.1204
10273TIP3    H252235   2.466   6.386  13.414 -1.4951 -0.7297 -1.0359
10274TIP3   OH252236   2.778   3.255   3.560  0.3781 -0.5472 -0.2808
10274TIP3    H152237   2.692   3.219   3.582 -0.0047  0.5674  0.1050
10274TIP3    H252238   2.835   3.178   3.553 -1.1268 -1.5681 -2.9928
10275TIP3   OH252239   1.514   3.448  14.309  0.0676  0.0803 -0.3661
10275TIP3    H152240   1.425   3.429  14.281 -0.4824  2.0572 -0.1503
10275TIP3    H252241   1.522   3.543  14.300  2.4254 -0.1045 -1.1573
10276TIP3   OH252242   4.347   2.721   4.158  0.0807 -1.0190  0.0691
10276TIP3    H152243   4.380   2.750   4.243 -2.1830 -0.9664  0.9870
10276TIP3    H252244   4.379   2.631   4.149 -0.2862 -1.2981  1.3470
10277TIP3   OH252245   2.784   3.271  12.222  0.0405 -0.0062 -0.4504
10277TIP3    H152246   2.842   3.228  12.285  2.7343  2.0217 -1.3294
10277TIP3    H252247   2.721   3.318  12.276  1.8426  1.1122  0.7945
10278TIP3   OH252248   0.785   3.201   2.414  0.2468  0.1970 -0.1356
10278TIP3    H152249   0.848   3.252   2.465 -0.0419 -0.4347  0.8937
10278TIP3    H252250   0.794   3.111   2.448 -0.3051 -0.1419 -0.8608
10279TIP3   OH252251   5.101   3.754   4.023 -0.3903  0.2428 -0.5467
10279TIP3    H152252   5.041   3.822   4.054 -0.3361  0.8998 -1.8254
10279TIP3    H252253   5.180   3.801   3.999 -0.7647 -0.0653 -2.5852
10280TIP3   OH252254   1.612   5.563   2.386 -0.1079 -0.4987 -0.0059
10280TIP3    H152255   1.550   5.629   2.416  0.0576 -1.0282  1.6181
10280TIP3    H252256   1.561   5.505   2.330 -0.9784 -0.6714  0.9436
10281TIP3   OH252257   2.366   5.020   3.845  0.1217 -0.3832  0.5942
10281TIP3    H152258   2.290   4.963   3.834 -0.7734  0.8872 -0.0317
10281TIP3    H252259   2.431   4.985   3.784 -0.9841  0.1844 -0.9778
10282TIP3   OH252260   4.595   5.458  13.896 -0.5919  0.2055  0.0087
10282TIP3    H152261   4.645   5.402  13.837 -0.6861  0.5685 -0.4169
10282TIP3    H252262   4.650   5.535  13.910  0.0296 -0.4579  1.4724
10283TIP3   OH252263   1.921   4.902   4.678 -0.3575  0.1542  0.4130
10283TIP3    H152264   1.832   4.887   4.645  0.7425 -0.2843 -2.6842
10283TIP3    H252265   1.953   4.815   4.701  0.3927 -0.2054 -1.8024
10284TIP3   OH252266   1.241   3.077   0.534 -0.0411 -0.3111  0.2393
10284TIP3    H152267   1.261   3.049   0.623 -1.0171  0.1777  0.6265
10284TIP3    H252268   1.178   3.149   0.545 -0.7396 -0.7250 -0.8580
10285TIP3   OH252269   3.456   4.975   2.611  0.2352 -0.2937  0.3952
10285TIP3    H152270   3.366   4.959   2.584  0.1346  1.7894 -0.6943
10285TIP3    H252271   3.496   4.888   2.614 -1.8844 -1.2956  1.3156
10286TIP3   OH252272   0.348   2.919  14.804 -0.6845  0.3148 -0.0655
10286TIP3    H152273   0.269   2.899  14.855 -1.5299  2.3973 -0.4562
10286TIP3    H252274   0.408   2.959  14.867  0.1046 -1.2827  0.2348
10287TIP3   OH252275   3.221   3.849  11.321  0.3753  0.1320 -0.2769
10287TIP3    H152276   3.170   3.839  11.402 -2.3743 -0.6482 -1.9445
10287TIP3    H252277   3.303   3.802  11.338 -0.7460 -1.3285  1.5552
10288TIP3   OH252278   5.610   0.286  13.683 -0.1267 -0.1641 -0.3551
10288TIP3    H152279   5.667   0.361  13.699  0.4325 -0.9564  1.7641
10288TIP3    H252280   5.668   0.220  13.644  0.1728 -0.5635  0.7239
10289TIP3   OH252281   0.273   0.652  14.957  0.1435  0.3098  0.8213
10289TIP3    H152282   0.226   0.725  14.918  0.1612 -0.2843 -0.3596
10289TIP3    H252283   0.222   0.629  15.035  0.4462  1.9093  1.5142
10290TIP3   OH252284   4.370   1.901  15.429  0.5606  0.2483  0.6406
10290TIP3    H152285   4.418   1.896  15.511  1.9996 -2.1564 -0.2268
10290TIP3    H252286   4.283   1.869  15.449  1.2585 -1.4867  1.0505
10291TIP3   OH252287   3.104   3.707   6.433  0.4139 -0.4277 -0.1037
10291TIP3    H152288   3.160   3.654   6.489 -0.1974  0.9724  1.9450
10291TIP3    H252289   3.022   3.715   6.481  0.7265  2.9889  0.1526
10292TIP3   OH252290   6.415   5.984   2.166 -0.6844  0.1940 -0.1837
10292TIP3    H152291   6.401   5.997   2.073 -2.1644  0.1235  0.0026
10292TIP3    H252292   6.490   6.040   2.188 -2.2966  2.7491 -0.8005
10293TIP3   OH252293   1.836   1.514   3.072 -0.4107 -0.2338 -0.6219
10293TIP3    H152294   1.828   1.590   3.014  0.1896  0.5442  0.3079
10293TIP3    H252295   1.745   1.487   3.088 -0.5882 -0.9284 -2.4846
10294TIP3   OH252296   1.237   4.559   5.659  0.2269 -0.0797 -0.4793
10294TIP3    H152297   1.269   4.528   5.744  0.5072  0.7441 -0.2751
10294TIP3    H252298   1.296   4.632   5.636  0.3424 -0.4916 -1.5266
10295TIP3   OH252299   6.385   3.167  16.909 -0.0954 -0.3430 -0.0494
10295TIP3    H152300   6.313   3.227  16.928 -0.2162 -0.6612  0.5396
10295TIP3    H252301   6.365   3.130  16.823 -0.7158 -0.5345  0.1710
10296TIP3   OH252302   5.646   5.961  14.558  0.2324  0.2207 -0.1469
10296TIP3    H152303   5.736   5.930  14.554 -0.0568 -0.6848  0.0930
10296TIP3    H252304   5.643   6.033  14.496  0.9706 -0.1355 -0.6137
10297TIP3   OH252305   6.187   2.373   0.374 -0.1920  0.1228 -0.5816
10297TIP3    H152306   6.122   2.372   0.444  0.4707  0.4919  0.0416
10297TIP3    H252307   6.138   2.399   0.296 -0.9795 -0.5047 -0.3158
10298TIP3   OH252308   1.020   5.602   0.624 -0.2367 -0.3572  0.3251
10298TIP3    H152309   1.063   5.647   0.551 -1.8732 -0.1882 -0.5995
10298TIP3    H252310   0.984   5.673   0.678 -0.2726 -0.5046  0.4948
10299TIP3   OH252311   2.548   1.064   4.313 -0.4916 -0.0300  0.3147
10299TIP3    H152312   2.469   1.115   4.330 -2.3056 -1.9421 -1.7010
10299TIP3    H252313   2.558   1.068   4.218  0.3303 -1.9013  0.2934
10300TIP3   OH252314   5.413   2.099  13.408  0.2645  0.0641  0.7595
10300TIP3    H152315   5.456   2.064  13.486  0.1368  0.7314  1.1420
10300TIP3    H252316   5.337   2.146  13.442  1.6263  2.6262  0.5139
10301TIP3   OH252317   6.260   1.607   4.049  0.6736 -0.1177  0.1838
10301TIP3    H152318   6.270   1.651   3.965 -1.7279 -1.5722 -0.9782
10301TIP3    H252319   6.245   1.678   4.112 -2.3891  0.8952 -1.4910
10302TIP3   OH252320   1.842   5.697  13.417  0.9316  0.0426  0.3976
10302TIP3    H152321   1.908   5.628  13.425  0.7432 -0.2956 -0.7357
10302TIP3    H252322   1.784   5.666  13.347  2.2020  2.4363 -1.8747
10303TIP3   OH252323   1.445   4.490  12.007  0.1606 -0.5213  0.4764
10303TIP3    H152324   1.499   4.466  12.083  1.3306 -1.3115 -0.5624
10303TIP3    H252325   1.381   4.552  12.042  1.2440 -0.1565  1.9305
10304TIP3   OH252326   2.590   1.135   2.002 -0.1510 -0.1114 -0.0624
10304TIP3    H152327   2.554   1.207   1.950 -1.3934 -0.7589 -0.1364
10304TIP3    H252328   2.563   1.154   2.092 -2.4248 -1.5568 -0.3567
10305TIP3   OH252329   5.576   1.294  12.900  0.5465 -0.1246  0.0022
10305TIP3    H152330   5.551   1.255  12.984 -0.1452  1.1373  0.4165
10305TIP3    H252331   5.660   1.336  12.918  1.0874 -1.0294 -0.3329
10306TIP3   OH252332   2.404   3.168   2.570  0.1728 -0.5661 -0.0568
10306TIP3    H152333   2.353   3.174   2.651  1.2069 -0.1358  0.5799
10306TIP3    H252334   2.481   3.116   2.593  1.1851  0.7398 -0.3812
10307TIP3   OH252335   2.368   6.088   1.513  0.0302  0.2264 -0.1209
10307TIP3    H152336   2.322   6.111   1.595 -0.2337  0.8422 -0.4366
10307TIP3    H252337   2.424   6.163   1.495  1.4373 -0.6540  0.4316
10308TIP3   OH252338   0.238   2.655   5.002 -0.4213  0.4438  0.3333
10308TIP3    H152339   0.296   2.701   5.062 -1.2933  3.1849 -0.7430
10308TIP3    H252340   0.187   2.596   5.058  1.3482  0.1249  1.6866
10309TIP3   OH252341   3.901   2.422   6.346 -0.2916 -0.2632 -0.2701
10309TIP3    H152342   3.879   2.506   6.306 -0.1357  0.7112  1.5859
10309TIP3    H252343   3.997   2.422   6.349 -0.3096 -0.0731  0.5609
10310TIP3   OH252344   2.947   5.153  12.228  0.5820 -0.1143  0.3285
10310TIP3    H152345   2.981   5.072  12.266 -1.5380 -0.5131  1.5021
10310TIP3    H252346   2.924   5.129  12.138  0.9476 -0.5367  0.3435
10311TIP3   OH252347   3.985   4.853   0.055  0.8667  0.5597 -0.0943
10311TIP3    H152348   3.914   4.904   0.015  1.7058  1.4509 -0.4976
10311TIP3    H252349   4.010   4.904   0.132  1.5531  0.6365 -0.3633
10312TIP3   OH252350   2.118   1.560   4.411  0.0736  1.0607  0.2883
10312TIP3    H152351   2.053   1.494   4.431  0.7939  0.7477  1.7367
10312TIP3    H252352   2.131   1.554   4.316  1.5011 -2.2446  0.5501
10313TIP3   OH252353   6.287   0.819   3.689  0.4042  0.0564  0.8191
10313TIP3    H152354   6.307   0.852   3.776  0.0612 -1.2540  1.4195
10313TIP3    H252355   6.313   0.727   3.691  1.6301  0.3217 -0.9029
10314TIP3   OH252356   3.138   6.337   4.564 -0.0964 -0.0604 -0.3936
10314TIP3    H152357   3.182   6.272   4.618  0.8542  1.3108  0.5381
10314TIP3    H252358   3.057   6.357   4.611 -0.8449 -1.1986 -1.1478
10315TIP3   OH252359   2.953   6.753   2.788 -0.5770  0.4075 -0.6664
10315TIP3    H152360   2.984   6.844   2.792  0.9869 -0.1378  0.1812
10315TIP3    H252361   2.867   6.755   2.829 -0.4336  1.4621 -0.3883
10316TIP3   OH252362   3.471   1.047  15.712 -0.1317  0.0731 -0.6097
10316TIP3    H152363   3.512   0.984  15.771 -0.1800  0.5567 -0.0585
10316TIP3    H252364   3.401   0.998  15.669  0.5861 -0.5799 -1.0736
10317TIP3   OH252365   6.722   3.781  17.204 -0.2558  0.2197  0.8221
10317TIP3    H152366   6.727   3.863  17.253 -0.8425  0.4232  0.5565
10317TIP3    H252367   6.806   3.775  17.159  0.4217 -0.1292  2.0863
10318TIP3   OH252368   2.928   3.676   4.989  0.7150 -0.0131  0.4350
10318TIP3    H152369   2.879   3.755   4.964 -2.3992 -2.1547 -0.9682
10318TIP3    H252370   2.982   3.656   4.912  0.1493 -0.1906  0.0783
10319TIP3   OH252371   5.902   0.859  11.458  0.0404  0.4823  0.6902
10319TIP3    H152372   5.895   0.856  11.362 -0.5916  2.6184  0.6155
10319TIP3    H252373   5.980   0.913  11.474  0.7574 -0.7203  1.4282
10320TIP3   OH252374   3.662   0.071  12.899 -0.0087  0.1386  0.1857
10320TIP3    H152375   3.594   0.007  12.921 -0.4216  0.4974 -0.0190
10320TIP3    H252376   3.716   0.027  12.833  0.0276 -0.1901  0.4330
10321TIP3   OH252377   4.242   6.223  16.093 -0.3150  0.4848  0.4108
10321TIP3    H152378   4.231   6.298  16.152 -0.1445  2.2096 -1.6398
10321TIP3    H252379   4.171   6.232  16.030  0.3386 -0.4779 -0.4871
10322TIP3   OH252380   6.691   0.830  13.798  0.9831 -0.0121 -0.0593
10322TIP3    H152381   6.708   0.913  13.755  0.1696  0.5167  0.6120
10322TIP3    H252382   6.661   0.853  13.885  0.1863 -0.9823 -0.0499
10323TIP3   OH252383   4.965   2.808   5.540 -0.2272 -0.1538 -0.4758
10323TIP3    H152384   4.930   2.880   5.592  0.6727  0.6279 -0.9176
10323TIP3    H252385   5.002   2.747   5.604 -1.9057 -0.7582 -0.0319
10324TIP3   OH252386   2.605   5.235  11.391 -0.6027 -0.0046 -0.6370
10324TIP3    H152387   2.574   5.291  11.462  0.4521 -0.4545  0.2091
10324TIP3    H252388   2.531   5.179  11.370 -1.8256  1.9367 -1.7891
10325TIP3   OH252389   0.361   2.883  14.100 -0.0587  0.4578 -0.0987
10325TIP3    H152390   0.425   2.934  14.150  0.2394  0.3927 -0.4011
10325TIP3    H252391   0.414   2.816  14.056 -0.4936 -0.3614  0.6041
10326TIP3   OH252392   1.725   1.111   1.612  0.1585  0.2857  0.8188
10326TIP3    H152393   1.684   1.031   1.578  2.4566  0.2671 -2.3280
10326TIP3    H252394   1.801   1.079   1.661  0.9424  0.4676 -0.2417
10327TIP3   OH252395   5.276   2.558  16.893 -0.3869  0.2515  0.4084
10327TIP3    H152396   5.289   2.479  16.946 -0.0632 -0.4416 -0.6762
10327TIP3    H252397   5.185   2.583  16.909 -1.2548 -1.7128 -1.0094
10328TIP3   OH252398   2.275   0.489  15.074  0.0314 -0.4484 -0.1705
10328TIP3    H152399   2.239   0.559  15.019  1.5633  0.5038 -0.0401
10328TIP3    H252400   2.225   0.411  15.050 -1.3795  0.5843 -0.6966
10329TIP3   OH252401   4.028   2.596  13.996 -0.2228 -0.5153  0.3483
10329TIP3    H152402   4.090   2.529  14.026 -0.2642 -1.2363 -1.0989
10329TIP3    H252403   4.027   2.661  14.066  1.6733 -0.8063  0.6835
10330TIP3   OH252404   1.770   6.015  17.260 -0.1642 -0.0070  0.0872
10330TIP3    H152405   1.813   5.929  17.262 -1.7114 -0.8382 -0.7996
10330TIP3    H252406   1.821   6.067  17.198 -0.0561 -0.7734 -0.4773
10331TIP3   OH252407   5.567   2.710  17.298 -0.5891 -0.8698 -0.0473
10331TIP3    H152408   5.599   2.711  17.207 -0.0469  0.3943  0.1410
10331TIP3    H252409   5.495   2.772  17.299 -0.9290 -1.2656  0.2843
10332TIP3   OH252410   6.714   5.415   2.474  0.1267  1.0975  0.2619
10332TIP3    H152411   6.642   5.475   2.495  0.3595  0.6607  2.5920
10332TIP3    H252412   6.778   5.429   2.544  1.0640 -0.4719 -0.2294
10333TIP3   OH252413   0.484   6.090  15.405 -0.0060  0.3230  0.4429
10333TIP3    H152414   0.521   6.098  15.493  2.7071  0.4318 -0.6207
10333TIP3    H252415   0.418   6.159  15.400  1.1162  1.5475  1.7781
10334TIP3   OH252416   5.936   3.575  11.951 -0.5042  0.3178  0.7750
10334TIP3    H152417   5.984   3.658  11.957 -2.3163  1.4097  0.9721
10334TIP3    H252418   5.928   3.546  12.042  0.8847 -0.5716  0.6423
10335TIP3   OH252419   5.363   2.229  16.726  0.2306 -0.2660  0.5800
10335TIP3    H152420   5.395   2.307  16.681 -1.3452  0.7035  1.0797
10335TIP3    H252421   5.348   2.257  16.816 -3.6381 -0.0718  0.0431
10336TIP3   OH252422   0.934   3.501   4.811  0.1032 -0.7441  0.6608
10336TIP3    H152423   0.838   3.491   4.813  0.0627 -0.4854  0.1713
10336TIP3    H252424   0.951   3.573   4.871 -0.1233 -0.0155 -0.1245
10337TIP3   OH252425   4.947   5.791  10.858  0.2114 -0.4607 -0.1151
10337TIP3    H152426   5.032   5.836  10.853  0.9833 -1.8601 -0.0250
10337TIP3    H252427   4.885   5.853  10.820  0.9564  1.3319  1.3954
10338TIP3   OH252428   5.542   0.900   5.698 -0.3326 -0.2966  0.3158
10338TIP3    H152429   5.514   0.862   5.615 -0.0586 -0.8063  0.4540
10338TIP3    H252430   5.542   0.995   5.682 -0.7924 -0.3601 -0.0989
10339TIP3   OH252431   3.739   3.393   2.610  0.2717  0.5256  0.5620
10339TIP3    H152432   3.660   3.447   2.610  0.8790  1.4432  1.2886
10339TIP3    H252433   3.809   3.453   2.584  0.5520 -0.5940 -1.4402
10340TIP3   OH252434   4.300   5.002  16.632 -0.0028 -0.4608 -0.1280
10340TIP3    H152435   4.285   4.941  16.560 -2.7489 -1.0179  0.7818
10340TIP3    H252436   4.243   4.971  16.702  1.5140  0.8825  1.8124
10341TIP3   OH252437   4.599   6.558   4.735  0.1037 -0.2176 -0.5035
10341TIP3    H152438   4.612   6.649   4.761  0.5703  0.0240 -1.5306
10341TIP3    H252439   4.599   6.509   4.818 -1.0419  0.8052  0.1216
10342TIP3   OH252440   0.451   2.795  12.036 -0.5884  0.4301  0.1335
10342TIP3    H152441   0.394   2.850  11.981  0.1945 -0.4266 -1.6322
10342TIP3    H252442   0.392   2.755  12.100 -1.4991  1.7007  0.1255
10343TIP3   OH252443   2.235   0.937   0.863 -0.4832 -0.4579 -0.3219
10343TIP3    H152444   2.226   0.846   0.834  2.8110 -2.0924  3.0094
10343TIP3    H252445   2.211   0.935   0.955 -2.1869  2.5957 -0.5719
10344TIP3   OH252446   6.065   4.371  11.797 -0.0698  0.3981 -0.0818
10344TIP3    H152447   6.138   4.428  11.824 -0.9571  1.6372 -0.2230
10344TIP3    H252448   6.057   4.385  11.703  1.5124 -2.1618 -0.6998
10345TIP3   OH252449   1.478   5.507   5.264 -0.1147  0.5621  0.2464
10345TIP3    H152450   1.515   5.445   5.328 -1.1335 -0.2675  0.0600
10345TIP3    H252451   1.543   5.511   5.194 -0.2948 -0.7854 -0.0261
10346TIP3   OH252452   3.373   3.097   0.102 -0.0273  0.4655  0.0266
10346TIP3    H152453   3.302   3.113   0.039  0.5933  0.3116 -0.7315
10346TIP3    H252454   3.354   3.010   0.137 -1.0724  1.0646  1.0141
10347TIP3   OH252455   5.111   5.785  13.188  0.5212 -0.1083  0.2831
10347TIP3    H152456   5.060   5.864  13.167  1.6930  0.3990 -0.7764
10347TIP3    H252457   5.082   5.721  13.123 -0.5617 -0.6340  1.2566
10348TIP3   OH252458   6.571   0.252  13.084  0.7314  0.5719 -0.1248
10348TIP3    H152459   6.507   0.190  13.117  0.5673  0.6611 -0.2713
10348TIP3    H252460   6.648   0.240  13.140  0.6418  0.3562 -0.0476
10349TIP3   OH252461   1.430   1.494   1.689  0.6879  0.3592  0.5168
10349TIP3    H152462   1.503   1.466   1.633  0.5859  3.7355 -1.6621
10349TIP3    H252463   1.462   1.480   1.778  2.7170 -1.1696 -0.3539
10350TIP3   OH252464   3.718   4.552  16.591 -0.7457  0.0046  0.1241
10350TIP3    H152465   3.801   4.594  16.568 -1.1589  1.3102  0.9012
10350TIP3    H252466   3.727   4.531  16.684 -1.0238 -0.4772  0.0437
10351TIP3   OH252467   5.105   4.745  12.036 -0.0447  0.5178 -0.0046
10351TIP3    H152468   5.017   4.758  12.002  0.2998  0.0926 -1.0880
10351TIP3    H252469   5.126   4.828  12.080 -0.5700  1.0210 -0.6811
10352TIP3   OH252470   1.153   4.670   5.083 -0.2815 -0.0806 -0.0223
10352TIP3    H152471   1.229   4.642   5.134  0.7186  0.6010 -1.1075
10352TIP3    H252472   1.114   4.740   5.136 -0.4094 -0.7013  0.7298
10353TIP3   OH252473   0.776   2.495  14.246  0.5874  0.0846  0.0467
10353TIP3    H152474   0.793   2.556  14.175  0.7420 -1.9274 -1.7439
10353TIP3    H252475   0.830   2.526  14.319  0.6387  2.0346 -0.7777
10354TIP3   OH252476   1.101   2.230   2.163  0.2892 -0.0956  0.4713
10354TIP3    H152477   1.098   2.142   2.199 -0.7378  0.2039  1.1763
10354TIP3    H252478   1.157   2.279   2.223  1.6790 -0.4803 -0.4688
10355TIP3   OH252479   3.341   5.638   2.907  0.0041 -0.6478 -0.0853
10355TIP3    H152480   3.289   5.592   2.841 -1.6563 -1.5507  1.7681
10355TIP3    H252481   3.294   5.720   2.921  0.4706 -0.3642 -0.1602
10356TIP3   OH252482   2.444   5.167   2.505  0.3873  0.0160  0.3955
10356TIP3    H152483   2.453   5.097   2.440  0.6814  0.3043  0.1228
10356TIP3    H252484   2.498   5.138   2.578 -0.8932 -0.8925  1.0275
10357TIP3   OH252485   6.592   1.086  10.668  0.5056 -0.1080  0.0776
10357TIP3    H152486   6.498   1.102  10.664  0.3173 -1.1345 -3.4608
10357TIP3    H252487   6.632   1.169  10.640  0.4787 -0.3666 -0.7662
10358TIP3   OH252488   5.814   1.176  11.797 -0.0846 -0.3485  0.4625
10358TIP3    H152489   5.820   1.219  11.712  0.3757  0.9846  1.1470
10358TIP3    H252490   5.783   1.088  11.777  0.3827 -0.1788 -1.1157
10359TIP3   OH252491   1.735   2.460  14.354 -0.3040 -0.0175 -0.1685
10359TIP3    H152492   1.776   2.545  14.372 -1.5873  0.6292 -0.1660
10359TIP3    H252493   1.774   2.401  14.418 -1.5919  1.2694  1.9312
10360TIP3   OH252494   1.674   1.197   1.016 -0.4565  0.6685 -0.3662
10360TIP3    H152495   1.615   1.123   1.030 -0.4310  0.7991  0.4432
10360TIP3    H252496   1.638   1.268   1.069  0.6447  0.6224  0.4891
10361TIP3   OH252497   4.750   6.122   0.844  0.1446 -0.8680  0.9404
10361TIP3    H152498   4.834   6.129   0.889  0.7487 -0.2398 -0.2349
10361TIP3    H252499   4.773   6.101   0.754 -0.9074  0.2624  0.3810
10362TIP3   OH252500   1.893   2.506  13.300  0.6019  0.4505 -0.0887
10362TIP3    H152501   1.953   2.476  13.232 -2.6974 -2.4374 -2.0628
10362TIP3    H252502   1.885   2.432  13.360 -2.0166  0.0691 -0.7675
10363TIP3   OH252503   5.993   4.372   3.855  0.0348 -0.5497 -0.3987
10363TIP3    H152504   6.012   4.285   3.888 -0.3597 -0.8508 -0.9549
10363TIP3    H252505   5.929   4.358   3.785  0.5118  0.1196 -0.9750
10364TIP3   OH252506   5.846   1.041   2.222 -0.7405 -0.0712  0.0645
10364TIP3    H152507   5.833   1.005   2.134  2.1581  0.9996 -0.9087
10364TIP3    H252508   5.810   1.129   2.217 -1.3892 -0.3144  0.2714
10365TIP3   OH252509   0.248   4.135   5.194  0.6255  0.6425 -0.2824
10365TIP3    H152510   0.222   4.162   5.282 -0.9267  1.3449 -0.9134
10365TIP3    H252511   0.175   4.161   5.138 -0.2521 -3.2207 -1.2632
10366TIP3   OH252512   1.805   4.647  16.677  0.2722 -0.3294 -0.2283
10366TIP3    H152513   1.859   4.725  16.688 -0.1018  0.1834 -1.7908
10366TIP3    H252514   1.819   4.621  16.586 -1.4435 -0.6941 -0.4134
10367TIP3   OH252515   6.355   3.298  15.114 -0.1125 -0.3718  0.9557
10367TIP3    H152516   6.430   3.238  15.112 -0.7261 -1.1776 -1.2934
10367TIP3    H252517   6.296   3.264  15.046 -0.2023  3.1775 -0.9273
10368TIP3   OH252518   3.323   5.131  17.147  1.2545  0.2034  0.2427
10368TIP3    H152519   3.350   5.167  17.063  0.4082  0.3584  0.0296
10368TIP3    H252520   3.228   5.141  17.148  1.0464 -1.5244  0.4123
10369TIP3   OH252521   2.710   1.056  15.051 -0.2517 -0.4813  0.1354
10369TIP3    H152522   2.780   1.000  15.016 -0.3596  0.5089 -1.7942
10369TIP3    H252523   2.703   1.128  14.988 -1.4956  0.6361  1.4825
10370TIP3   OH252524   3.273   3.133  14.820 -0.2758 -0.1234  0.1052
10370TIP3    H152525   3.189   3.108  14.781 -0.7934  1.3354  0.2146
10370TIP3    H252526   3.252   3.157  14.910  0.5475 -1.2644  0.6295
10371TIP3   OH252527   2.037   2.430  17.240 -0.3796 -0.4744 -0.5348
10371TIP3    H152528   1.987   2.383  17.173  0.8952  0.6583 -2.3446
10371TIP3    H252529   2.096   2.487  17.191  0.6316  0.3836  1.5677
10372TIP3   OH252530   0.217   2.582  13.466 -0.5990 -0.0156  0.0990
10372TIP3    H152531   0.193   2.519  13.398  0.4195 -1.0290  0.6311
10372TIP3    H252532   0.219   2.530  13.547  2.4184  0.1215  0.2235
10373TIP3   OH252533   6.145   1.547   6.166  1.0374  0.1075 -0.3076
10373TIP3    H152534   6.054   1.573   6.180  1.5151  1.4426  0.5490
10373TIP3    H252535   6.141   1.453   6.149 -0.4232 -0.0142  0.5549
10374TIP3   OH252536   1.641   0.530  15.225 -0.7314 -0.2961  0.1177
10374TIP3    H152537   1.566   0.569  15.181 -0.3344  0.2250 -0.1066
10374TIP3    H252538   1.646   0.575  15.310 -0.8202 -0.5036  0.2340
10375TIP3   OH252539   4.609   4.240  11.436 -0.4538  0.0718 -0.2593
10375TIP3    H152540   4.646   4.189  11.508  1.7683  0.8539 -0.7924
10375TIP3    H252541   4.654   4.208  11.358 -1.0210  0.9614 -0.9675
10376TIP3   OH252542   0.533   2.443  16.882 -0.3050 -0.2042  0.0092
10376TIP3    H152543   0.540   2.348  16.876 -0.2005 -0.1962  0.0171
10376TIP3    H252544   0.621   2.474  16.901 -0.5793 -0.1943  1.3138
10377TIP3   OH252545   3.288   3.893   3.263 -0.0833 -0.3087  0.2853
10377TIP3    H152546   3.203   3.937   3.272 -0.7627 -1.1694 -1.5616
10377TIP3    H252547   3.273   3.805   3.297  0.1361 -0.3786  0.1988
10378TIP3   OH252548   3.904   1.322  12.754 -0.4188  0.3904 -0.2653
10378TIP3    H152549   3.824   1.270  12.766 -2.0944  2.3555 -2.1170
10378TIP3    H252550   3.939   1.295  12.670  0.2008  0.4200 -0.0266
10379TIP3   OH252551   5.156   5.234  12.266  0.2214  0.1661 -0.2037
10379TIP3    H152552   5.108   5.268  12.191 -0.3732 -0.6911 -0.2198
10379TIP3    H252553   5.109   5.269  12.342 -0.3084 -0.5098 -0.2210
10380TIP3   OH252554   5.988   6.215  13.609  0.3661 -0.9799  0.0454
10380TIP3    H152555   6.035   6.203  13.526  1.2719 -0.8394  0.5277
10380TIP3    H252556   6.050   6.262  13.665 -1.1057  1.1769  0.0114
10381TIP3   OH252557   5.222   1.832  15.153 -0.1221 -0.1471  0.7770
10381TIP3    H152558   5.199   1.821  15.245  0.3169 -0.0578  0.9006
10381TIP3    H252559   5.152   1.887  15.117 -0.8458 -1.0176  0.8068
10382TIP3   OH252560   6.294   0.684   0.789 -0.3899 -0.1787  0.3687
10382TIP3    H152561   6.292   0.605   0.842 -0.4453 -0.5956 -0.2451
10382TIP3    H252562   6.232   0.668   0.718 -0.8210  0.6405  0.5483
10383TIP3   OH252563   1.927   4.253  17.293 -0.1816 -0.3047  0.3044
10383TIP3    H152564   1.881   4.293  17.367  0.9337  0.2656  0.7057
10383TIP3    H252565   2.001   4.312  17.276 -0.0020 -0.8280 -0.7826
10384TIP3   OH252566   3.834   0.949   5.093 -0.5219  0.3854  0.1407
10384TIP3    H152567   3.866   0.921   5.179 -1.1775 -0.9998 -0.0413
10384TIP3    H252568   3.889   1.023   5.070  1.1420 -0.5923  0.7906
10385TIP3   OH252569   6.510   6.725  11.799 -0.0287  0.7898 -0.0391
10385TIP3    H152570   6.498   6.646  11.745 -1.2342  0.5645  0.5255
10385TIP3    H252571   6.544   6.791  11.738  3.4103 -0.7714 -0.0713
10386TIP3   OH252572   0.085   1.517  17.268  0.1181 -0.1002 -0.5335
10386TIP3    H152573   0.062   1.426  17.282 -0.7209  0.0295 -1.0227
10386TIP3    H252574   0.082   1.556  17.356 -0.2456 -0.3795 -0.4192
10387TIP3   OH252575   2.116   1.211  17.148 -0.4743 -0.1476  0.0981
10387TIP3    H152576   2.128   1.229  17.242  1.1585 -0.9029  0.0704
10387TIP3    H252577   2.061   1.133  17.145  1.3485 -1.5231  0.5441
10388TIP3   OH252578   2.748   5.443   4.669  0.2636 -0.3562 -0.4670
10388TIP3    H152579   2.746   5.484   4.756  1.3978 -2.4087  0.6111
10388TIP3    H252580   2.809   5.497   4.619  0.1600  0.4455  0.2471
10389TIP3   OH252581   2.667   3.250  15.137  0.0030  0.3793 -0.2666
10389TIP3    H152582   2.679   3.331  15.187  0.9012 -0.4040  0.8085
10389TIP3    H252583   2.734   3.253  15.069 -0.0568  0.5969 -0.3171
10390TIP3   OH252584   5.949   0.299  11.415  0.1027  0.1033 -0.2224
10390TIP3    H152585   6.012   0.257  11.357 -0.6737 -1.6643  0.1335
10390TIP3    H252586   5.947   0.243  11.493 -0.7194  1.0228  0.4457
10391TIP3   OH252587   1.369   3.182   2.532 -0.2889  0.7280 -0.0657
10391TIP3    H152588   1.282   3.148   2.551 -0.5732  1.1660 -0.5775
10391TIP3    H252589   1.361   3.225   2.447  1.0917 -1.6982 -1.5326
10392TIP3   OH252590   1.022   2.663   2.683  0.0866  0.0089  0.4648
10392TIP3    H152591   0.965   2.621   2.747  0.1145  2.7178  2.4341
10392TIP3    H252592   0.963   2.692   2.613 -0.3324 -0.7160  0.5121
10393TIP3   OH252593   3.426   4.345  17.139  0.2615  0.1497 -0.6168
10393TIP3    H152594   3.438   4.421  17.196 -0.4459 -2.5409  3.6308
10393TIP3    H252595   3.506   4.295  17.149 -1.0066 -1.7922  0.5797
10394TIP3   OH252596   4.686   5.343  15.537 -0.1063 -0.2093 -0.2827
10394TIP3    H152597   4.700   5.388  15.454 -1.6428  1.7598  0.4727
10394TIP3    H252598   4.723   5.402  15.603 -1.8567 -0.1477  0.6986
10395TIP3   OH252599   0.038   2.237  12.004 -0.0701  0.0403 -0.6084
10395TIP3    H152600   0.097   2.181  11.954 -0.9745  0.4471 -2.2161
10395TIP3    H252601   0.005   2.182  12.075  0.5572 -0.8348 -0.9872
10396TIP3   OH252602   4.416   3.096   1.632 -0.3851 -0.4104 -0.2384
10396TIP3    H152603   4.330   3.112   1.593  0.1975 -1.0513 -1.9000
10396TIP3    H252604   4.452   3.183   1.648 -0.8660 -0.1307 -0.6362
10397TIP3   OH252605   6.102   2.006   0.393 -0.3907 -0.0305 -0.1022
10397TIP3    H152606   6.097   1.913   0.371  0.5660  0.5106 -3.0745
10397TIP3    H252607   6.011   2.033   0.400 -0.6889 -1.2584  1.4143
10398TIP3   OH252608   0.326   0.333  13.289 -0.1907 -0.4034  0.3300
10398TIP3    H152609   0.272   0.311  13.364 -0.5913 -0.7193 -0.0461
10398TIP3    H252610   0.373   0.253  13.268 -0.1135 -0.3298  0.2198
10399TIP3   OH252611   2.017   5.804  12.414  0.0835  0.0778  0.2311
10399TIP3    H152612   1.947   5.857  12.376  1.9664  1.8529 -0.9854
10399TIP3    H252613   1.990   5.790  12.505 -2.8483 -1.1943 -0.7250
10400TIP3   OH252614   5.999   2.732  11.706  0.1465  0.2561 -0.7349
10400TIP3    H152615   6.029   2.771  11.624 -1.4175  0.5960 -1.1898
10400TIP3    H252616   5.968   2.645  11.681 -2.0694  1.0279 -0.9263
10401TIP3   OH252617   4.064   2.153  10.892  0.4939 -0.0941  0.0962
10401TIP3    H152618   3.985   2.199  10.864  1.6226  1.2338 -1.0687
10401TIP3    H252619   4.054   2.064  10.858  0.1302  0.4689 -1.3304
10402TIP3   OH252620   6.585   0.764  11.188  0.4888  0.4414 -0.3438
10402TIP3    H152621   6.549   0.678  11.207  0.3977  0.5403 -0.0714
10402TIP3    H252622   6.571   0.776  11.094  1.3823 -0.2528 -0.5831
10403TIP3   OH252623   3.250   1.804   0.577 -0.0700 -0.0838 -0.2025
10403TIP3    H152624   3.163   1.795   0.615 -0.5532 -1.4023 -1.5272
10403TIP3    H252625   3.253   1.893   0.541  0.1247  0.9248  2.0959
10404TIP3   OH252626   2.405   1.513  14.963  0.1696 -0.1679  0.6812
10404TIP3    H152627   2.410   1.607  14.979 -1.7420  0.2170 -0.6666
10404TIP3    H252628   2.473   1.495  14.899 -0.7647  0.6958 -0.5883
10405TIP3   OH252629   1.832   2.881   5.015 -0.2842 -0.0357  0.1777
10405TIP3    H152630   1.748   2.849   4.982  0.6868 -1.0999 -1.3621
10405TIP3    H252631   1.885   2.802   5.027  1.0815  0.7354 -0.5673
10406TIP3   OH252632   3.926   0.361  16.920  0.5540  0.9398 -0.6389
10406TIP3    H152633   4.011   0.368  16.878  1.5482  0.6488  1.2471
10406TIP3    H252634   3.945   0.345  17.012 -1.5429  0.8561 -0.1619
10407TIP3   OH252635   0.006   0.563  11.765  0.0795  0.0554 -0.7374
10407TIP3    H152636   0.080   0.516  11.729  0.2133  0.1797 -0.6243
10407TIP3    H252637   0.037   0.653  11.776  0.0814 -0.0114 -0.1885
10408TIP3   OH252638   1.902   1.425  11.316  0.8412  0.1678  0.7113
10408TIP3    H152639   1.890   1.509  11.272 -0.6548  0.0485  0.8206
10408TIP3    H252640   1.972   1.382  11.268  2.1831  1.7842  1.1377
10409TIP3   OH252641   6.334   4.265  11.405 -0.5227 -0.2492 -0.5022
10409TIP3    H152642   6.362   4.355  11.389 -2.8241  0.5404 -0.4343
10409TIP3    H252643   6.361   4.217  11.327  0.5949  0.5151 -0.6070
10410TIP3   OH252644   4.101   0.888  12.512  0.2213 -0.5252 -0.7877
10410TIP3    H152645   4.083   0.852  12.599 -1.8934 -4.5786 -2.5937
10410TIP3    H252646   4.015   0.900  12.472  1.1244  0.0029 -2.7222
10411TIP3   OH252647   6.543   1.363  13.069  0.0426  0.3720 -0.1430
10411TIP3    H152648   6.530   1.354  12.974 -0.0638 -0.0983 -0.0879
10411TIP3    H252649   6.638   1.363  13.080  0.0714 -1.3925 -0.1043
10412TIP3   OH252650   6.348   4.343   1.699 -0.0954  0.2628 -0.2335
10412TIP3    H152651   6.294   4.394   1.760 -1.2326  1.2079 -1.9386
10412TIP3    H252652   6.285   4.286   1.654  0.5834  0.1680 -1.0805
10413TIP3   OH252653   1.868   0.761  16.938  0.2860  0.1522  0.2245
10413TIP3    H152654   1.916   0.729  17.014 -0.3467  1.7839  1.3850
10413TIP3    H252655   1.791   0.705  16.932  1.1896 -1.0611 -0.2819
10414TIP3   OH252656   1.073   0.025  12.786  0.2484 -0.2547 -0.0915
10414TIP3    H152657   1.014  -0.011  12.720  0.8678 -1.7926  0.1534
10414TIP3    H252658   1.161   0.012  12.750  0.6260 -1.6113  1.2250
10415TIP3   OH252659   3.833   6.672   5.003 -0.0044  0.2440  0.5663
10415TIP3    H152660   3.908   6.640   4.953  0.5955 -1.7159  2.5386
10415TIP3    H252661   3.802   6.748   4.955  1.4198 -0.6349 -1.9146
10416TIP3   OH252662   2.521   1.643  10.801 -0.1581  0.3096  0.1581
10416TIP3    H152663   2.606   1.648  10.758 -0.2603 -1.1777 -0.2974
10416TIP3    H252664   2.490   1.555  10.781 -2.3507  1.2179 -0.7219
10417TIP3   OH252665   0.897   0.831   6.086 -0.0096  0.2494  0.0005
10417TIP3    H152666   0.909   0.885   6.164 -0.2199  1.5060 -0.7959
10417TIP3    H252667   0.807   0.799   6.092 -0.0646  0.4434  0.2156
10418TIP3   OH252668   4.857   1.476   2.231 -0.4721  0.0949  0.2413
10418TIP3    H152669   4.833   1.504   2.319 -1.9383  0.9484 -0.3864
10418TIP3    H252670   4.902   1.392   2.243  1.0290  1.0690  1.9265
10419TIP3   OH252671   6.558   0.341  12.835  0.7087 -0.5696 -0.4535
10419TIP3    H152672   6.555   0.303  12.923  0.2961  1.5912  0.5403
10419TIP3    H252673   6.645   0.320  12.802  0.0841 -3.3953 -0.5308
10420TIP3   OH252674   2.881   2.696  14.128 -0.6266  0.1854 -0.1211
10420TIP3    H152675   2.848   2.732  14.045 -1.0481  0.0582 -0.0080
10420TIP3    H252676   2.807   2.649  14.165  0.4019 -2.3580 -1.1131
10421TIP3   OH252677   2.797   2.591   3.114 -0.1212  0.3595 -0.5836
10421TIP3    H152678   2.754   2.508   3.094 -1.4418  1.0283 -0.6475
10421TIP3    H252679   2.878   2.566   3.159 -1.1492 -0.9335  0.6383
10422TIP3   OH252680   3.929   6.203  16.990 -0.1523  0.3472 -0.3590
10422TIP3    H152681   3.913   6.208  16.896 -0.1275 -0.7092 -0.4311
10422TIP3    H252682   3.994   6.134  17.000 -0.6510 -0.0260  0.4819
10423TIP3   OH252683   4.732   4.584  13.751  0.3399 -0.3323 -0.0685
10423TIP3    H152684   4.743   4.515  13.685 -1.6004 -1.0911  0.3142
10423TIP3    H252685   4.752   4.541  13.834  1.8820  0.3737 -0.0408
10424TIP3   OH252686   2.005   4.831   1.546 -0.0091  0.1413  0.0813
10424TIP3    H152687   2.001   4.892   1.472 -0.6380  1.4910  1.1691
10424TIP3    H252688   1.968   4.880   1.619 -2.6069 -2.3031  0.5643
10425TIP3   OH252689   1.067   0.909  13.897  0.2814  0.0790  0.2178
10425TIP3    H152690   1.034   0.854  13.826 -0.2256  0.5219  0.1014
10425TIP3    H252691   1.024   0.993  13.883  1.6222  0.7447 -0.0590
10426TIP3   OH252692   4.274   2.476  12.706  0.1188  0.6603  0.3274
10426TIP3    H152693   4.364   2.454  12.680 -0.4715 -0.8531 -0.5726
10426TIP3    H252694   4.284   2.543  12.773  2.0639 -1.6715  2.5475
10427TIP3   OH252695   4.779   0.841   0.553  0.0215  0.3768 -0.0023
10427TIP3    H152696   4.686   0.842   0.529 -0.0823  0.1195  0.3700
10427TIP3    H252697   4.781   0.798   0.639  0.6024 -0.6310 -0.4954
10428TIP3   OH252698   5.962   4.456   5.775 -0.0544  0.1264 -0.4492
10428TIP3    H152699   5.986   4.511   5.850 -1.7970  0.3838 -0.0367
10428TIP3    H252700   5.922   4.517   5.713 -1.1885 -0.5063 -0.3686
10429TIP3   OH252701   4.186   5.523  15.798  0.0889  0.4088 -0.1815
10429TIP3    H152702   4.198   5.588  15.867 -0.0649  2.7350 -2.2192
10429TIP3    H252703   4.263   5.532  15.743  0.3569 -1.6304 -0.2308
10430TIP3   OH252704   4.160   0.669   3.227  0.1390  0.0423 -0.6920
10430TIP3    H152705   4.118   0.718   3.157 -0.0514 -0.9525 -1.2871
10430TIP3    H252706   4.222   0.731   3.266 -0.3262  0.8438 -1.2154
10431TIP3   OH252707   4.142   0.517   4.457 -0.2632 -0.1676 -0.5426
10431TIP3    H152708   4.141   0.460   4.381  0.2184  0.3551 -0.9461
10431TIP3    H252709   4.143   0.457   4.532  3.5230 -0.8490 -0.9119
10432TIP3   OH252710   4.124   1.307  17.317 -0.3618  0.2518  0.3808
10432TIP3    H152711   4.061   1.234  17.322  1.0993 -0.9580  2.1503
10432TIP3    H252712   4.167   1.295  17.233 -0.4740 -0.6409  0.4417
10433TIP3   OH252713   5.045   2.130  15.394  0.6409  0.6749 -0.5642
10433TIP3    H152714   5.078   2.137  15.304  0.9467 -2.4867 -0.8318
10433TIP3    H252715   5.122   2.108  15.446  0.0726 -0.0747 -0.0100
10434TIP3   OH252716   4.436   2.796   3.052 -0.5029  0.6575  0.1005
10434TIP3    H152717   4.485   2.714   3.061 -0.0791  0.9588  0.6632
10434TIP3    H252718   4.346   2.768   3.032 -0.5948  0.0140  1.3020
10435TIP3   OH252719   6.622   0.200   2.082  0.6019  0.0759 -0.2018
10435TIP3    H152720   6.601   0.281   2.035 -2.6830 -1.6096 -2.0137
10435TIP3    H252721   6.693   0.160   2.030  0.0691  0.3300 -1.1496
10436TIP3   OH252722   3.770   1.199   0.993  0.6616  0.0563 -0.1733
10436TIP3    H152723   3.754   1.290   1.018 -0.2763 -0.2009  0.2081
10436TIP3    H252724   3.815   1.205   0.909 -1.0729  0.8761 -1.1107
10437TIP3   OH252725   3.105   3.074   4.016  0.2423 -0.5781  0.3785
10437TIP3    H152726   3.102   3.013   3.942  0.1183 -0.7246  0.5053
10437TIP3    H252727   3.048   3.146   3.989  0.0942 -0.6921  0.3866
10438TIP3   OH252728   6.454   0.339   5.918  0.1963  0.5185 -0.8006
10438TIP3    H152729   6.360   0.355   5.925 -0.5019 -2.4176 -1.9040
10438TIP3    H252730   6.488   0.355   6.006 -1.0954  2.5377 -0.5893
10439TIP3   OH252731   4.480   3.055  15.583  0.0431  0.1105  0.2455
10439TIP3    H152732   4.488   3.120  15.514  0.1725  0.3494  0.4852
10439TIP3    H252733   4.462   3.106  15.662 -2.3872 -0.2773  0.0121
10440TIP3   OH252734   0.321   5.715   4.421 -0.6449 -0.5417  0.2925
10440TIP3    H152735   0.409   5.685   4.441 -0.7630 -3.2374 -2.5766
10440TIP3    H252736   0.264   5.658   4.473 -0.7396 -1.8311 -1.1692
10441TIP3   OH252737   1.653   1.813   5.740  0.1171 -0.2056  0.5878
10441TIP3    H152738   1.619   1.895   5.777 -1.7777 -1.9542  3.0926
10441TIP3    H252739   1.697   1.839   5.659 -3.0289  2.9107 -0.3655
10442TIP3   OH252740   2.482   6.629   6.268 -0.1335 -0.4046 -0.2642
10442TIP3    H152741   2.577   6.612   6.265  0.4876  2.3201  1.2457
10442TIP3    H252742   2.450   6.570   6.336  1.4321  1.9750  2.7683
10443TIP3   OH252743   2.454   0.764   5.741 -0.0739 -0.6310 -0.1760
10443TIP3    H152744   2.467   0.736   5.651 -1.2495  2.3940 -1.3973
10443TIP3    H252745   2.504   0.845   5.749  1.0865 -1.4869  2.3636
10444TIP3   OH252746   4.662   1.952  13.939 -0.0494 -0.5174 -0.3702
10444TIP3    H152747   4.573   1.977  13.965  0.0114 -2.0364  1.5352
10444TIP3    H252748   4.718   2.016  13.982 -0.1718  0.5320 -1.6935
10445TIP3   OH252749   1.757   5.044  11.108 -0.1992 -0.7734  0.0897
10445TIP3    H152750   1.772   4.962  11.061  0.3762 -0.6071 -0.0414
10445TIP3    H252751   1.809   5.036  11.188  2.0485  0.4523 -1.1149
10446TIP3   OH252752   5.178   4.463  12.090 -0.1237  0.5117 -0.3829
10446TIP3    H152753   5.154   4.546  12.050  1.3561  0.6476 -1.0678
10446TIP3    H252754   5.237   4.487  12.162 -1.1881  0.1491  0.6355
10447TIP3   OH252755   2.365   5.758   2.241 -0.5498  0.0799 -0.0701
10447TIP3    H152756   2.303   5.698   2.199 -0.4077  1.1561 -1.9119
10447TIP3    H252757   2.446   5.708   2.248 -0.5948 -0.1596 -1.0676
10448TIP3   OH252758   3.021   3.449   3.484 -0.6096  0.2482 -0.5786
10448TIP3    H152759   3.072   3.486   3.555  0.8215 -0.3984 -1.2255
10448TIP3    H252760   2.952   3.399   3.527  1.3383 -1.7266  0.4725
10449TIP3   OH252761   4.039   4.984  17.058  0.2454  0.3500 -0.1624
10449TIP3    H152762   3.947   4.957  17.058  0.3837 -0.2266  1.4152
10449TIP3    H252763   4.041   5.063  17.111  0.7898 -0.2472  0.7408
10450TIP3   OH252764   5.799   2.525   3.812  0.4849  0.1221  0.6613
10450TIP3    H152765   5.872   2.578   3.779  0.3656  0.5501  1.0810
10450TIP3    H252766   5.722   2.560   3.768  0.4165  0.2349  0.8725
10451TIP3   OH252767   0.976   6.080  14.493  0.1391 -0.5351  0.1833
10451TIP3    H152768   0.979   6.050  14.402 -1.5268  0.7335 -0.3353
10451TIP3    H252769   1.037   6.022  14.539  2.0257 -0.3772 -1.9488
10452TIP3   OH252770   5.489   2.850   4.818  0.5810 -0.1962  0.0397
10452TIP3    H152771   5.414   2.874   4.763  0.0454  0.9062  1.2011
10452TIP3    H252772   5.521   2.767   4.781 -0.5303 -0.1245 -1.1363
10453TIP3   OH252773   0.085   3.164   1.039 -0.3134  0.1117 -0.4347
10453TIP3    H152774   0.116   3.081   1.076  0.4783  0.7686  0.4452
10453TIP3    H252775   0.114   3.162   0.948 -0.0771 -0.4659 -0.3517
10454TIP3   OH252776   3.581   1.213  14.662  0.3607  0.0772  0.2211
10454TIP3    H152777   3.658   1.171  14.623  0.2522 -0.5029  0.6348
10454TIP3    H252778   3.511   1.199  14.598  0.6685  0.9305 -0.3367
10455TIP3   OH252779   6.029   3.586  14.399  0.1839  0.4558 -0.0227
10455TIP3    H152780   6.091   3.556  14.333  0.5802  2.1714 -0.4602
10455TIP3    H252781   6.082   3.635  14.461 -0.3460 -0.3125  1.0753
10456TIP3   OH252782   5.551   6.457  16.520 -0.1416  0.0408 -0.1140
10456TIP3    H152783   5.604   6.537  16.523 -0.8036  0.4663  1.9443
10456TIP3    H252784   5.476   6.480  16.464 -0.3321  0.8976  0.4667
10457TIP3   OH252785   6.087   1.080   5.375  0.4448 -0.1655  0.2990
10457TIP3    H152786   6.122   1.168   5.386  1.6187 -0.5537 -0.1746
10457TIP3    H252787   6.042   1.061   5.458 -0.1438  1.0095  0.2564
10458TIP3   OH252788   6.578   1.636   3.193  1.0115 -0.7207  0.5606
10458TIP3    H152789   6.617   1.701   3.251 -0.1089  0.1401  0.3765
10458TIP3    H252790   6.496   1.611   3.236 -0.3254  0.6421 -1.0604
10459TIP3   OH252791   2.128   1.478  13.415  0.1219 -0.2045 -0.4215
10459TIP3    H152792   2.159   1.561  13.452 -1.3530  0.9386 -1.6131
10459TIP3    H252793   2.182   1.464  13.338 -0.3478  0.2593 -0.8467
10460TIP3   OH252794   0.540   4.221   0.870 -0.1483  1.3209 -0.2026
10460TIP3    H152795   0.492   4.143   0.901 -0.5660  1.8598  0.5515
10460TIP3    H252796   0.493   4.248   0.791 -0.6661  1.4250  0.1332
10461TIP3   OH252797   6.276   5.433  11.545 -0.4953 -0.4725 -0.4881
10461TIP3    H152798   6.295   5.493  11.473  1.0052 -0.9615 -0.5491
10461TIP3    H252799   6.362   5.396  11.568 -1.2084 -1.6972  0.3294
10462TIP3   OH252800   2.553   0.973   4.634  0.3833  0.2947 -0.5592
10462TIP3    H152801   2.539   0.989   4.540 -0.9152  1.1036 -0.2443
10462TIP3    H252802   2.477   1.012   4.677  1.6347  1.1694  0.9550
10463TIP3   OH252803   4.851   5.827   6.126  0.3838  0.0211 -0.0970
10463TIP3    H152804   4.897   5.860   6.204  0.3686  0.0590 -0.1041
10463TIP3    H252805   4.765   5.802   6.158 -0.0695  1.2190 -0.3395
10464TIP3   OH252806   0.360   4.895   2.585  0.4056 -0.5209 -0.1209
10464TIP3    H152807   0.358   4.806   2.620  0.9186 -1.5302 -2.4920
10464TIP3    H252808   0.268   4.917   2.571  0.3149 -0.9465 -0.1967
10465TIP3   OH252809   6.642   5.146   5.456  0.0167 -0.5965  0.2255
10465TIP3    H152810   6.731   5.141   5.423 -0.6279 -1.3586 -1.4918
10465TIP3    H252811   6.645   5.216   5.522  2.6173 -2.8627  2.7983
10466TIP3   OH252812   4.496   5.905   5.853 -0.3661  0.5461 -0.0969
10466TIP3    H152813   4.454   5.971   5.798 -1.4190  0.3178  0.4002
10466TIP3    H252814   4.433   5.890   5.924  0.1658 -0.4819  0.1748
10467TIP3   OH252815   6.174   1.892  10.747 -0.1302 -0.4287  0.5880
10467TIP3    H152816   6.193   1.804  10.780  0.7615 -1.4553 -2.3353
10467TIP3    H252817   6.086   1.910  10.778 -0.2898 -2.2880  1.3868
10468TIP3   OH252818   1.406   0.282  15.871  0.0427  0.0616  0.0231
10468TIP3    H152819   1.416   0.375  15.848  1.2442  0.1839  0.9115
10468TIP3    H252820   1.369   0.283  15.959  0.2771 -0.2949  0.1275
10469TIP3   OH252821   1.207   2.532   6.511  0.4126  0.6556  0.3271
10469TIP3    H152822   1.293   2.551   6.548  0.3060  1.9823 -0.0476
10469TIP3    H252823   1.148   2.537   6.587  0.7204 -0.9122  0.7032
10470TIP3   OH252824   2.407   0.186  16.147  0.0271  0.5493  0.5385
10470TIP3    H152825   2.374   0.250  16.210  0.9405  1.9204 -0.3111
10470TIP3    H252826   2.354   0.201  16.068 -0.7664 -0.8060  0.7753
10471TIP3   OH252827   0.153   3.310  17.373 -0.2154  0.4033 -0.0876
10471TIP3    H152828   0.090   3.351  17.314  0.4824  0.8819 -0.5136
10471TIP3    H252829   0.136   3.349  17.458 -0.2763  0.7733 -0.2679
10472TIP3   OH252830   1.735   1.404   5.334 -0.3620  0.0555  0.2482
10472TIP3    H152831   1.744   1.447   5.249 -0.1430 -0.0005  0.2446
10472TIP3    H252832   1.640   1.402   5.349 -0.3593  0.8039  0.3815
10473TIP3   OH252833   0.766   3.644   2.501  0.1652  0.2765 -0.1158
10473TIP3    H152834   0.759   3.668   2.409 -0.0417  0.5856 -0.0216
10473TIP3    H252835   0.761   3.549   2.502  2.8121  0.0423 -0.6722
10474TIP3   OH252836   5.376   3.468  15.519  0.2379 -0.5844  0.4610
10474TIP3    H152837   5.458   3.505  15.552 -0.4012  0.9127  0.4698
10474TIP3    H252838   5.312   3.539  15.529 -0.9868 -1.5971  0.1341
10475TIP3   OH252839   1.798   2.273  13.413 -0.2549  0.4317  0.6959
10475TIP3    H152840   1.818   2.237  13.500 -0.7052  2.6892  1.8083
10475TIP3    H252841   1.808   2.198  13.354  0.6126 -1.0635  2.5962
10476TIP3   OH252842   6.486   3.910  16.706 -0.1659 -0.1768  0.6252
10476TIP3    H152843   6.580   3.902  16.721  0.2686  1.8935 -0.6271
10476TIP3    H252844   6.446   3.881  16.787  1.5796 -0.2010  1.5241
10477TIP3   OH252845   4.169   0.311   3.521 -0.0908 -0.3879 -0.9556
10477TIP3    H152846   4.254   0.328   3.563  0.2230 -2.5520 -0.5924
10477TIP3    H252847   4.117   0.389   3.541  1.4538  0.5215 -0.2645
10478TIP3   OH252848   6.311   6.335   1.865  0.2102 -0.1072 -0.5768
10478TIP3    H152849   6.391   6.364   1.909  0.0968  0.8798 -0.9746
10478TIP3    H252850   6.264   6.417   1.846 -0.5808 -0.6325 -0.9313
10479TIP3   OH252851   5.609   5.088   1.037  0.2696  0.4115  0.8264
10479TIP3    H152852   5.563   5.166   1.067  2.3103  2.7285 -1.5444
10479TIP3    H252853   5.658   5.059   1.114  1.6786  3.3014  1.1897
10480TIP3   OH252854   4.879   3.929  15.166 -0.0631 -0.2738  0.1066
10480TIP3    H152855   4.954   3.874  15.141  1.0232  1.3372 -0.3470
10480TIP3    H252856   4.870   3.917  15.260  1.9122  0.7825  0.4884
10481TIP3   OH252857   3.555   4.720  13.882 -0.2828  0.0854 -0.7340
10481TIP3    H152858   3.614   4.690  13.813  0.6029  1.0205 -0.4058
10481TIP3    H252859   3.472   4.739  13.837  0.0278 -0.1046 -1.3905
10482TIP3   OH252860   2.191   4.547   4.250 -0.6687  0.3032 -0.1800
10482TIP3    H152861   2.195   4.465   4.202 -2.3400 -0.9447  1.6958
10482TIP3    H252862   2.243   4.608   4.197 -0.8040 -1.4770 -2.5013
10483TIP3   OH252863   3.595   2.521  12.829 -0.2556  0.5482  0.0342
10483TIP3    H152864   3.642   2.442  12.800 -3.0181 -0.9780 -0.6418
10483TIP3    H252865   3.598   2.579  12.753  2.2709  1.4675  0.7140
10484TIP3   OH252866   2.913   5.133  14.904  0.0335 -0.0545  0.3971
10484TIP3    H152867   2.928   5.227  14.908 -0.3004  0.0005  0.3769
10484TIP3    H252868   2.985   5.095  14.955  0.2574  0.2020  0.2724
10485TIP3   OH252869   5.293   3.175  12.616 -0.0125 -0.0878 -0.3663
10485TIP3    H152870   5.333   3.247  12.568  1.8165 -1.0090 -0.3205
10485TIP3    H252871   5.289   3.103  12.552  0.4512 -0.6616  0.2229
10486TIP3   OH252872   0.829   5.216  14.118 -0.9047 -0.3359 -0.0520
10486TIP3    H152873   0.865   5.129  14.137  1.9965  0.8140  0.2975
10486TIP3    H252874   0.784   5.241  14.198 -0.3391 -0.8710  0.4452
10487TIP3   OH252875   4.320   0.903  16.588 -0.5794 -0.3417 -0.4479
10487TIP3    H152876   4.319   0.938  16.499 -0.1095  1.3891  0.1788
10487TIP3    H252877   4.409   0.871  16.601  0.2484  2.0276  0.2876
10488TIP3   OH252878   2.300   3.471  13.530 -0.1125 -0.1994 -0.4365
10488TIP3    H152879   2.373   3.422  13.493  0.3456  0.0737  0.0915
10488TIP3    H252880   2.312   3.464  13.625 -1.0271 -0.5314 -0.3410
10489TIP3   OH252881   1.788   5.395  15.552  0.7159  0.1903  0.5247
10489TIP3    H152882   1.770   5.431  15.638  1.2833  1.1650  0.2633
10489TIP3    H252883   1.882   5.411  15.539  0.3428  1.4473 -0.8711
10490TIP3   OH252884   5.243   2.028  11.262 -0.0588 -0.2277  0.0719
10490TIP3    H152885   5.212   2.043  11.173 -2.3615 -2.3821  0.4019
10490TIP3    H252886   5.315   1.966  11.253 -0.9352 -1.2279 -0.2934
10491TIP3   OH252887   6.642   2.932  15.836  0.0401  0.4350  0.1053
10491TIP3    H152888   6.680   2.846  15.851 -1.4289 -0.3500 -0.3941
10491TIP3    H252889   6.715   2.987  15.808  1.1913 -0.3555  1.4250
10492TIP3   OH252890   1.410   5.740  14.732  0.2320  0.0119 -0.2262
10492TIP3    H152891   1.470   5.666  14.726 -0.6302 -0.6990 -0.1743
10492TIP3    H252892   1.419   5.771  14.823  0.9098  0.2564 -0.3688
10493TIP3   OH252893   2.190   4.789  13.649 -0.7380  0.1649 -0.1460
10493TIP3    H152894   2.191   4.797  13.745 -1.2405  0.9739 -0.1988
10493TIP3    H252895   2.203   4.879  13.617 -0.2111 -0.1510 -0.8414
10494TIP3   OH252896   0.047   3.037   4.686 -0.2592 -0.1053  0.4997
10494TIP3    H152897   0.045   3.131   4.706  0.8506  0.5962 -2.2209
10494TIP3    H252898   0.140   3.016   4.677 -0.5352 -0.6341 -2.0270
10495TIP3   OH252899   6.171   3.997  12.121  0.0930  0.0043 -0.6193
10495TIP3    H152900   6.083   3.990  12.157 -0.3927 -0.5326 -1.8683
10495TIP3    H252901   6.164   4.060  12.050  0.8676  0.4568 -0.3123
10496TIP3   OH252902   1.620   1.582  10.950 -0.2215 -0.5593  0.3357
10496TIP3    H152903   1.618   1.666  10.904 -1.3563  0.5593  2.3067
10496TIP3    H252904   1.535   1.543  10.929  0.6711 -1.7437 -1.3635
10497TIP3   OH252905   1.717   6.170  14.028  0.5829  0.0205  0.7890
10497TIP3    H152906   1.737   6.100  14.090 -1.6766  0.3654  2.0140
10497TIP3    H252907   1.788   6.166  13.964  0.6452 -3.2655  0.8884
10498TIP3   OH252908   5.970   1.149   1.862 -0.5372 -0.9646  0.0436
10498TIP3    H152909   5.944   1.179   1.949 -0.6436 -0.4919 -0.1485
10498TIP3    H252910   6.050   1.100   1.877  0.6226  0.8729  0.1736
10499TIP3   OH252911   4.862   1.147  13.957 -0.0233 -0.4652  0.0745
10499TIP3    H152912   4.949   1.166  13.922  0.2973 -1.6156  0.2279
10499TIP3    H252913   4.870   1.163  14.051 -0.1567  0.0350  0.0041
10500TIP3   OH252914   6.252   2.325   2.041 -0.4350  0.8473 -0.2886
10500TIP3    H152915   6.199   2.249   2.016  0.3955  0.0943  0.2000
10500TIP3    H252916   6.243   2.330   2.136  0.3176  0.7387 -0.2062
10501TIP3   OH252917   3.537   1.471  12.505  0.2626  0.1004  0.2540
10501TIP3    H152918   3.496   1.479  12.419  0.0766  0.5689  0.3848
10501TIP3    H252919   3.475   1.419  12.557  0.6149 -0.6334 -0.0432
10502TIP3   OH252920   1.247   3.205  17.105  0.2387  0.8384  0.5797
10502TIP3    H152921   1.334   3.244  17.113  0.5909  1.1917 -3.1577
10502TIP3    H252922   1.261   3.112  17.118  0.9241  1.0349  1.3135
10503TIP3   OH252923   0.954   5.942  16.024 -0.6003  0.1054 -0.3066
10503TIP3    H152924   0.924   5.988  16.102  2.0555 -1.1022  1.5985
10503TIP3    H252925   0.922   5.853  16.034  1.2216 -0.5244  0.4408
10504TIP3   OH252926   5.354   2.333  17.011  0.0865 -0.0463  0.1771
10504TIP3    H152927   5.445   2.352  17.033  1.0739 -1.9136 -1.8306
10504TIP3    H252928   5.333   2.255  17.062 -0.2147  0.0751  0.2417
10505TIP3   OH252929   2.023   2.512  12.237 -0.3656 -0.2374 -0.3138
10505TIP3    H152930   2.023   2.587  12.297 -0.2896  1.6350 -2.5539
10505TIP3    H252931   1.932   2.507  12.206  0.4157  1.6252 -3.2604
10506TIP3   OH252932   2.176   3.154   3.489  0.3135  0.3055  0.4256
10506TIP3    H152933   2.101   3.120   3.537 -0.5750  1.3535 -0.1701
10506TIP3    H252934   2.184   3.245   3.518  1.2030  0.2845  0.2924
10507TIP3   OH252935   0.519   4.176   6.581 -0.2743 -0.1186  0.1272
10507TIP3    H152936   0.549   4.132   6.661 -1.1941  1.5650  1.4644
10507TIP3    H252937   0.424   4.183   6.592 -0.5774 -0.8312 -1.6742
10508TIP3   OH252938   5.898   0.649   3.439  0.6674 -0.0252 -0.5485
10508TIP3    H152939   5.952   0.592   3.385  0.5100 -1.6052  0.8866
10508TIP3    H252940   5.877   0.597   3.516  0.8714  2.1283  1.0609
10509TIP3   OH252941   3.000   2.554  11.332 -0.5962 -0.3150 -0.2676
10509TIP3    H152942   2.971   2.470  11.369 -2.0800  0.7185  1.0578
10509TIP3    H252943   3.055   2.592  11.400  1.3695 -0.8386 -1.4916
10510TIP3   OH252944   2.834   6.185   0.212 -0.3086 -0.5768 -0.1305
10510TIP3    H152945   2.851   6.226   0.296 -1.2779  0.0408 -0.2233
10510TIP3    H252946   2.758   6.231   0.177 -0.1749 -1.0972 -1.1602
10511TIP3   OH252947   5.611   4.999  13.956 -0.4252  0.3529 -0.4662
10511TIP3    H152948   5.562   5.058  13.899  1.2717  2.3229  0.0014
10511TIP3    H252949   5.562   4.999  14.038 -0.3022  1.3557 -0.3861
10512TIP3   OH252950   5.682   6.301  13.501 -0.4290  0.3031  0.7772
10512TIP3    H152951   5.731   6.265  13.427 -1.6122  2.4258 -1.1803
10512TIP3    H252952   5.738   6.372  13.534 -0.7030  0.5610  0.6950
10513TIP3   OH252953   4.355   5.352   1.628 -0.1330 -0.0011 -0.5216
10513TIP3    H152954   4.282   5.357   1.689 -0.6087 -0.6117 -1.0364
10513TIP3    H252955   4.367   5.258   1.612 -0.3890  0.1654 -1.8016
10514TIP3   OH252956   4.907   3.327   5.670 -0.0875  0.3836 -0.1526
10514TIP3    H152957   4.948   3.250   5.630 -0.3759  0.4830 -0.6522
10514TIP3    H252958   4.917   3.314   5.764 -0.2540 -0.3298 -0.2305
10515TIP3   OH252959   1.010   6.578  11.863 -0.0743 -0.1537 -0.0228
10515TIP3    H152960   0.994   6.659  11.911  0.6479 -0.6284  1.0681
10515TIP3    H252961   0.945   6.577  11.793 -0.8028  0.8282  0.6264
10516TIP3   OH252962   3.296   0.648  15.524  0.5041 -0.6486 -0.2795
10516TIP3    H152963   3.334   0.732  15.497  1.2934 -1.2400 -1.0936
10516TIP3    H252964   3.282   0.601  15.442 -0.6291 -1.0356  0.1218
10517TIP3   OH252965   2.361   0.575   2.021  0.5044 -0.1705  0.0650
10517TIP3    H152966   2.406   0.513   1.964  2.4158  0.2556  1.0217
10517TIP3    H252967   2.312   0.521   2.083 -0.8627 -0.6378 -1.3785
10518TIP3   OH252968   4.527   4.412   1.262  0.4602 -0.3180 -0.2427
10518TIP3    H152969   4.458   4.417   1.328  2.0704 -1.6132  1.6931
10518TIP3    H252970   4.521   4.494   1.214 -0.8788  0.6492  1.4725
10519TIP3   OH252971   4.748   2.885  14.561 -0.4460 -0.0926 -0.4136
10519TIP3    H152972   4.812   2.956  14.546  0.2714 -0.5348  0.4379
10519TIP3    H252973   4.670   2.913  14.514 -0.3281  1.4922  0.2554
10520TIP3   OH252974   2.897   3.492  15.247  0.3973 -0.4698  0.3208
10520TIP3    H152975   2.941   3.421  15.202 -0.3197 -1.3704  0.9754
10520TIP3    H252976   2.874   3.455  15.333  1.1566  0.9691  1.1952
10521TIP3   OH252977   4.841   1.345  16.963  0.0978 -0.4277 -0.1227
10521TIP3    H152978   4.753   1.340  16.925  0.8263  0.9479 -2.1609
10521TIP3    H252979   4.840   1.425  17.016 -0.1944 -1.0621  0.8691
10522TIP3   OH252980   1.474   0.040  13.909 -0.4505  0.0552  0.6049
10522TIP3    H152981   1.561   0.038  13.869 -0.1743 -2.0025  1.1901
10522TIP3    H252982   1.462  -0.048  13.946 -2.2250  0.7175  1.7518
10523TIP3   OH252983   5.043   1.838   2.404 -0.0522  0.6708 -0.4369
10523TIP3    H152984   5.010   1.824   2.493 -1.9030 -0.9331 -1.2804
10523TIP3    H252985   5.009   1.924   2.379 -0.2139  0.7765  0.1343
10524TIP3   OH252986   5.054   6.586  14.636  0.3200  0.3645  0.3520
10524TIP3    H152987   5.085   6.536  14.560 -0.8250 -1.4809  1.0476
10524TIP3    H252988   5.091   6.673  14.623  2.7980 -0.7357 -0.6827
10525TIP3   OH252989   2.386   5.561  11.316 -0.1972 -0.0618  0.4841
10525TIP3    H152990   2.326   5.630  11.341  0.1788 -0.0211  1.3084
10525TIP3    H252991   2.404   5.513  11.397  0.8351 -0.0982  0.2585
10526TIP3   OH252992   1.128   5.162  13.353  0.1692 -0.0869 -0.2717
10526TIP3    H152993   1.167   5.240  13.394  0.5905 -0.6707  0.4585
10526TIP3    H252994   1.203   5.104  13.336 -0.1814 -0.4713 -0.5164
10527TIP3   OH252995   1.078   5.227   3.598  0.4014 -0.0243  0.3781
10527TIP3    H152996   1.124   5.302   3.635  0.8850 -0.3504  0.4415
10527TIP3    H252997   1.089   5.157   3.662 -0.5050 -0.0089  0.5762
10528TIP3   OH252998   6.584   2.264   1.167  0.1663  0.8326  0.1057
10528TIP3    H152999   6.510   2.314   1.201 -1.8011 -1.3561 -0.7165
10528TIP3    H253000   6.588   2.186   1.223 -0.5484 -0.8534 -2.0417
10529TIP3   OH253001   2.962   1.592  14.976 -0.8685 -0.0921 -0.3698
10529TIP3    H153002   2.922   1.649  14.910 -0.9187 -0.3152 -0.5359
10529TIP3    H253003   2.971   1.508  14.932  2.4498  0.6188 -1.3881
10530TIP3   OH253004   2.888   6.708  14.005 -0.0951  0.2081 -0.0704
10530TIP3    H153005   2.844   6.624  13.996  1.6590 -0.6964 -0.8758
10530TIP3    H253006   2.931   6.722  13.921 -2.8039  3.5002 -1.1452
10531TIP3   OH253007   0.763   1.545   0.680  0.2356 -0.0874  0.2300
10531TIP3    H153008   0.794   1.461   0.645 -0.0209 -0.1014  0.0361
10531TIP3    H253009   0.704   1.578   0.613  0.0610  0.0828  0.4686
10532TIP3   OH253010   0.190   4.191  16.253  0.3757  0.1101  0.2158
10532TIP3    H153011   0.177   4.240  16.172 -0.0194 -1.2154 -0.5386
10532TIP3    H253012   0.282   4.206  16.276  0.5460  0.3052 -0.5879
10533TIP3   OH253013   4.787   6.115  12.603  0.0666  0.7605 -0.4241
10533TIP3    H153014   4.738   6.035  12.585  0.2660  0.6166 -0.3362
10533TIP3    H253015   4.829   6.098  12.688  1.1574  0.4455 -1.0104
10534TIP3   OH253016   1.928   6.711   2.172 -0.3093 -0.2793  0.2252
10534TIP3    H153017   2.020   6.684   2.170  0.2513  1.4971  0.3665
10534TIP3    H253018   1.916   6.748   2.260 -2.1713 -3.6109  1.5600
10535TIP3   OH253019   1.507   4.825  16.046  0.0372  0.2144  0.0493
10535TIP3    H153020   1.501   4.831  15.950  2.3644 -1.5771 -0.2963
10535TIP3    H253021   1.536   4.912  16.073 -1.1735  0.9095 -0.7941
10536TIP3   OH253022   0.021   5.451   0.948  0.5823  0.2758 -0.0337
10536TIP3    H153023   0.050   5.521   0.889  0.9904  1.0481  1.0528
10536TIP3    H253024   0.056   5.371   0.909 -2.5673  0.1624 -3.1059
10537TIP3   OH253025   2.918   1.410   3.985 -0.4103 -0.3943  0.2286
10537TIP3    H153026   2.949   1.500   3.975 -2.0299  0.1987  0.3206
10537TIP3    H253027   2.970   1.360   3.922  1.7147  0.2689  1.3442
10538TIP3   OH253028   1.530   5.955  14.300  0.0075 -0.3718 -0.0071
10538TIP3    H153029   1.490   5.868  14.307  1.7142 -1.1857  0.0940
10538TIP3    H253030   1.466   6.014  14.340 -1.7686 -1.3603 -1.2209
10539TIP3   OH253031   1.702   5.392   3.998  0.2729  0.4937 -0.4308
10539TIP3    H153032   1.769   5.438   4.048 -1.5535  0.3768  2.3897
10539TIP3    H253033   1.633   5.458   3.985  0.5482  0.4073 -2.5579
10540TIP3   OH253034   3.837   6.701  16.191  0.2426  0.4265 -0.1639
10540TIP3    H153035   3.748   6.671  16.172  1.0082 -1.1399 -1.5600
10540TIP3    H253036   3.881   6.702  16.105  1.0931  2.9591  0.2224
10541TIP3   OH253037   0.181   3.187  16.765 -0.4543 -0.2689 -0.5380
10541TIP3    H153038   0.166   3.244  16.841  0.1945 -1.2214  0.3252
10541TIP3    H253039   0.115   3.118  16.774 -1.3405  0.4012 -1.6684
10542TIP3   OH253040   2.391   6.034   2.247  0.1109 -0.4430  0.0391
10542TIP3    H153041   2.372   5.940   2.257 -1.1224 -0.0891  1.4785
10542TIP3    H253042   2.486   6.041   2.259  0.0687 -1.3839  1.0542
10543TIP3   OH253043   4.531   5.127  17.058  0.5066 -0.1500 -0.4136
10543TIP3    H153044   4.471   5.068  17.105  0.9327 -0.7781 -0.6553
10543TIP3    H253045   4.482   5.210  17.052 -0.8019 -0.9538 -1.5650
10544TIP3   OH253046   5.849   2.953  11.045 -0.9053 -0.4447 -0.2078
10544TIP3    H153047   5.823   2.948  11.137 -1.3404 -0.1645 -0.3082
10544TIP3    H253048   5.866   3.046  11.029 -0.3777 -0.5564 -0.2895
10545TIP3   OH253049   4.531   4.215   5.174  0.1815 -0.2788 -0.2520
10545TIP3    H153050   4.496   4.195   5.261 -0.0414  1.0472 -0.0253
10545TIP3    H253051   4.472   4.281   5.138 -0.6364 -1.8717 -2.0641
10546TIP3   OH253052   5.150   1.774   4.939 -0.2373 -0.0313 -0.6786
10546TIP3    H153053   5.192   1.699   4.896 -0.1002 -0.0324 -0.5459
10546TIP3    H253054   5.140   1.746   5.030 -0.1750  0.1155 -0.6259
10547TIP3   OH253055   2.422   0.114   4.468  0.3219 -0.0520 -0.2226
10547TIP3    H153056   2.405   0.206   4.446 -0.4149 -0.2909 -0.6632
10547TIP3    H253057   2.429   0.114   4.564  1.1862  0.5928 -0.2644
10548TIP3   OH253058   5.372   5.598   3.819 -0.2930  0.5087 -0.0745
10548TIP3    H153059   5.277   5.592   3.825 -0.2182 -3.6346 -0.2955
10548TIP3    H253060   5.389   5.645   3.738 -2.2087 -0.2286 -0.9504
10549TIP3   OH253061   1.531   0.816   5.320  0.3591  0.0402 -0.1041
10549TIP3    H153062   1.483   0.752   5.373  0.3691  0.9465  1.0516
10549TIP3    H253063   1.463   0.877   5.290  0.8584  2.5327  3.2426
10550TIP3   OH253064   3.952   1.146   1.679  0.2750  0.6409  0.2224
10550TIP3    H153065   3.921   1.081   1.742  1.7773 -2.4400 -1.9234
10550TIP3    H253066   3.888   1.142   1.607  0.8147  0.9587 -0.2868
10551TIP3   OH253067   6.498   4.048  15.725 -0.6999 -0.0101  0.0103
10551TIP3    H153068   6.498   4.070  15.818 -1.0954 -1.6631  0.4476
10551TIP3    H253069   6.560   4.109  15.685  0.3271  0.0092  1.5411
10552TIP3   OH253070   2.568   0.399   3.487  0.0887 -0.1541  0.0145
10552TIP3    H153071   2.532   0.483   3.515  0.2252 -0.0512 -0.1145
10552TIP3    H253072   2.541   0.391   3.395  0.1519 -0.2101  0.0007
10553TIP3   OH253073   1.975   0.302   0.205  0.2415  0.0618  0.5116
10553TIP3    H153074   1.964   0.232   0.269  2.2481  0.5579  1.4752
10553TIP3    H253075   1.902   0.361   0.220  0.7882  0.2732  2.5061
10554TIP3   OH253076   2.556   0.336   6.400  0.0323 -0.5624 -0.0949
10554TIP3    H153077   2.637   0.345   6.451 -0.5621  0.8900  0.6418
10554TIP3    H253078   2.537   0.424   6.370 -2.4066 -0.4426  1.5540
10555TIP3   OH253079   0.928   0.079  15.288 -0.0859 -0.6782  0.0039
10555TIP3    H153080   1.000   0.121  15.240  0.7335 -2.5832 -0.5350
10555TIP3    H253081   0.971   0.034  15.361 -1.1829  1.1322  1.8650
10556TIP3   OH253082   0.007   1.985   4.712 -0.3089  0.1987  0.8496
10556TIP3    H153083   0.048   2.004   4.796 -0.2455  1.6891  0.5050
10556TIP3    H253084  -0.040   2.065   4.690  0.3520  0.1349 -0.9212
10557TIP3   OH253085   1.800   3.927   4.013 -0.6056  0.0316 -0.1240
10557TIP3    H153086   1.772   3.838   4.034 -0.0770  0.0695  0.8220
10557TIP3    H253087   1.883   3.937   4.060 -0.7643  1.0871 -0.0509
10558TIP3   OH253088   3.769   3.881   1.876 -0.9496 -0.3147  0.0576
10558TIP3    H153089   3.802   3.946   1.938  0.4262 -1.2418  0.3263
10558TIP3    H253090   3.781   3.921   1.790 -1.6991  0.4589  0.2967
10559TIP3   OH253091   5.592   3.444  16.919  0.4764  0.0668 -0.2445
10559TIP3    H153092   5.585   3.380  16.848 -1.4603  0.5381 -0.5412
10559TIP3    H253093   5.682   3.475  16.915  0.5695 -0.3275 -2.1479
10560TIP3   OH253094   2.432   6.722   4.155  0.3158  0.1966  0.1117
10560TIP3    H153095   2.392   6.693   4.236  2.1603  0.2708  1.1022
10560TIP3    H253096   2.394   6.666   4.087 -1.2689  0.1577  0.9858
10561TIP3   OH253097   2.250   2.118  16.664 -0.0054 -0.6087  0.4403
10561TIP3    H153098   2.295   2.100  16.581  0.9555 -1.1901  1.0713
10561TIP3    H253099   2.203   2.036  16.683 -0.5333 -0.3445  0.2871
10562TIP3   OH253100   5.486   6.242   1.807  0.1093 -0.7309 -0.3670
10562TIP3    H153101   5.433   6.259   1.729 -2.1999  0.3402  1.2910
10562TIP3    H253102   5.507   6.149   1.803 -2.3426 -1.3416 -0.9536
10563TIP3   OH253103   5.480   4.734   6.107 -0.0436 -0.0776  0.4177
10563TIP3    H153104   5.438   4.767   6.187 -1.1799 -1.4091  0.4013
10563TIP3    H253105   5.411   4.736   6.041  0.4392 -0.5344 -0.1116
10564TIP3   OH253106   2.234   1.523   3.804 -0.3990 -0.3463 -0.4488
10564TIP3    H153107   2.176   1.538   3.729 -0.4795 -0.4555 -0.4080
10564TIP3    H253108   2.313   1.573   3.783  0.0620 -1.3402 -1.1656
10565TIP3   OH253109   2.134   3.738   0.557 -0.5995  0.1763 -0.1363
10565TIP3    H153110   2.081   3.711   0.483 -0.0808 -0.1075 -0.4089
10565TIP3    H253111   2.182   3.659   0.583 -0.7912  0.2640  0.5163
10566TIP3   OH253112   3.482   4.057  15.081  0.1357  0.5534 -0.4596
10566TIP3    H153113   3.469   3.965  15.103 -0.4279  0.9741  1.1529
10566TIP3    H253114   3.542   4.056  15.007  1.6630 -1.0547  0.7011
10567TIP3   OH253115   0.681   5.086   2.101 -0.0946  0.6294 -0.0721
10567TIP3    H153116   0.618   5.023   2.136 -1.3172  0.9345 -1.5962
10567TIP3    H253117   0.707   5.049   2.016  1.7041  0.5903  0.4536
10568TIP3   OH253118   1.443   6.548   0.534  0.2915 -0.3113 -0.0241
10568TIP3    H153119   1.385   6.620   0.561 -0.6792 -0.7745 -0.8044
10568TIP3    H253120   1.383   6.481   0.500  1.3159 -0.6174 -1.2965
10569TIP3   OH253121   3.227   0.056   0.120  0.3976 -0.4550 -0.2631
10569TIP3    H153122   3.313   0.094   0.138  0.5613 -0.8544 -0.1731
10569TIP3    H253123   3.231   0.030   0.028  0.5067 -0.8024 -0.1625
10570TIP3   OH253124   5.911   1.011  13.836 -0.1673 -0.1437  0.3964
10570TIP3    H153125   5.822   0.973  13.835 -0.5590  0.6760  1.6439
10570TIP3    H253126   5.967   0.941  13.803 -1.1581 -1.0431  0.5503
10571TIP3   OH253127   2.806   3.681   2.394  0.2855 -0.0958  0.0865
10571TIP3    H153128   2.822   3.587   2.395 -1.9860 -0.5836 -1.5435
10571TIP3    H253129   2.846   3.711   2.312  0.1909  0.1860  0.1418
10572TIP3   OH253130   1.197   0.478   5.680 -0.2377 -0.3321  0.4818
10572TIP3    H153131   1.106   0.480   5.650 -0.1986 -0.6388  0.3385
10572TIP3    H253132   1.194   0.518   5.768 -0.1952  1.5049 -0.3006
10573TIP3   OH253133   5.041   5.203  15.205 -0.4620 -0.0078  0.0614
10573TIP3    H153134   4.955   5.231  15.173 -0.8622  0.5175  1.5409
10573TIP3    H253135   5.039   5.108  15.199 -0.1331  0.0666 -2.3722
10574TIP3   OH253136   4.164   5.928   6.272 -0.0101  0.1438  0.1756
10574TIP3    H153137   4.069   5.927   6.267  0.0364  0.0072 -0.8701
10574TIP3    H253138   4.183   5.946   6.364 -1.0428  1.8098  0.1069
10575TIP3   OH253139   3.033   3.786  16.641 -0.0060  0.0744 -0.0843
10575TIP3    H153140   2.993   3.867  16.673  0.8410  0.1958  0.7106
10575TIP3    H253141   2.997   3.775  16.553 -0.9301  0.7519  0.1950
10576TIP3   OH253142   1.302   3.072  11.272 -0.1249 -0.4035 -0.2260
10576TIP3    H153143   1.393   3.082  11.300  0.1174  0.0991 -1.1306
10576TIP3    H253144   1.263   3.013  11.336  0.3766  0.7315  1.1613
10577TIP3   OH253145   6.092   1.044   0.310  0.6671 -0.1243 -0.1866
10577TIP3    H153146   6.051   1.116   0.262  0.7210 -1.0981 -1.7499
10577TIP3    H253147   6.077   0.967   0.256  1.8319 -1.0565  0.7537
10578TIP3   OH253148   3.726   3.215  14.305  0.5526  0.5679  0.6292
10578TIP3    H153149   3.812   3.203  14.263  0.8115  0.6754  1.1159
10578TIP3    H253150   3.746   3.262  14.386  0.0856  0.1744  0.9781
10579TIP3   OH253151   4.710   0.420  14.564  0.0428  0.0613 -0.1366
10579TIP3    H153152   4.767   0.377  14.628  1.5030  0.7419 -0.9240
10579TIP3    H253153   4.767   0.436  14.488 -1.6567 -0.8166 -1.6635
10580TIP3   OH253154   3.696   6.093  15.744 -0.0305 -0.0764 -0.2896
10580TIP3    H153155   3.730   6.032  15.678 -1.4703 -1.1893 -0.0627
10580TIP3    H253156   3.616   6.050  15.776 -0.6154  1.5499  0.4989
10581TIP3   OH253157   6.741   3.399   1.213 -0.2634 -0.5964 -0.1969
10581TIP3    H153158   6.799   3.331   1.180 -0.9493 -0.7668 -1.0967
10581TIP3    H253159   6.656   3.378   1.175 -0.5953  0.4753 -0.0781
10582TIP3   OH253160   1.260   4.664   2.958  0.1870  0.2178 -0.4779
10582TIP3    H153161   1.168   4.644   2.940  0.0968 -2.7897  2.3705
10582TIP3    H253162   1.257   4.730   3.028  0.0467 -1.3433  1.0534
10583TIP3   OH253163   3.414   6.686   4.291  0.4294 -0.3788 -0.2431
10583TIP3    H153164   3.365   6.608   4.319  1.1815 -0.3251  1.3281
10583TIP3    H253165   3.359   6.726   4.225 -0.7521 -1.3614  0.0998
10584TIP3   OH253166   2.230   4.687  12.361  0.5364  0.4192  0.7557
10584TIP3    H153167   2.177   4.730  12.428  0.7401  0.6837  0.7478
10584TIP3    H253168   2.170   4.673  12.288  0.1344 -0.4681  1.2300
10585TIP3   OH253169   6.181   6.065  13.086  0.2659 -0.5427 -0.2948
10585TIP3    H153170   6.111   6.091  13.025 -0.3751  1.2814  1.1026
10585TIP3    H253171   6.262   6.083  13.039 -0.2109 -0.0538 -0.9488
10586TIP3   OH253172   4.935   5.860  13.915 -0.0223 -0.0132 -0.5335
10586TIP3    H153173   4.897   5.940  13.951 -0.1986 -0.9330  1.4760
10586TIP3    H253174   5.011   5.843  13.971  0.2127 -1.0620 -1.1524
10587TIP3   OH253175   3.641   3.966   1.153  0.2489  0.8775 -0.1032
10587TIP3    H153176   3.598   3.893   1.199 -0.4958  0.5288 -1.3058
10587TIP3    H253177   3.637   3.941   1.061  1.5680  1.6390 -0.3792
10588TIP3   OH253178   5.865   1.161   1.381  0.0382 -0.1686  0.6518
10588TIP3    H153179   5.909   1.135   1.300  0.0197 -1.1607  0.9439
10588TIP3    H253180   5.837   1.079   1.421 -0.6491  0.3484  1.2820
10589TIP3   OH253181   2.674   5.588  14.335 -0.1097 -0.4371  0.1167
10589TIP3    H153182   2.668   5.681  14.358 -1.9484 -0.5005  0.0851
10589TIP3    H253183   2.671   5.542  14.419 -1.5502 -0.4991  0.0698
10590TIP3   OH253184   1.343   2.906  11.729 -0.4076 -0.0888 -0.4565
10590TIP3    H153185   1.413   2.902  11.795 -0.3860 -0.5485 -0.5049
10590TIP3    H253186   1.308   2.817  11.725 -1.5134  0.2988  0.1212
10591TIP3   OH253187   4.896   1.722   5.880 -0.0877  0.4146  0.0457
10591TIP3    H153188   4.947   1.752   5.954 -0.8305  1.4895  0.1449
10591TIP3    H253189   4.805   1.736   5.906 -0.4162 -0.6777 -0.4499
10592TIP3   OH253190   0.820   6.166   2.962 -0.0874  0.3687  0.7577
10592TIP3    H153191   0.791   6.193   3.049  1.2217  1.4559  0.8976
10592TIP3    H253192   0.786   6.235   2.904 -0.8789 -0.3046  0.4001
10593TIP3   OH253193   2.332   4.727   6.673 -0.2127 -0.7322  0.0436
10593TIP3    H153194   2.251   4.734   6.623 -1.3936 -1.2957  1.7724
10593TIP3    H253195   2.349   4.816   6.705  0.5291 -0.3772 -1.2540
10594TIP3   OH253196   3.216   3.177  16.620  0.0277  0.1706 -0.0941
10594TIP3    H153197   3.127   3.162  16.651  0.0549 -1.5500 -0.7489
10594TIP3    H253198   3.265   3.201  16.700 -0.9923  1.1482  0.2611
10595TIP3   OH253199   0.649   0.469  16.090 -0.5602 -0.5253  0.1568
10595TIP3    H153200   0.588   0.524  16.139 -0.4583  1.6550 -1.9845
10595TIP3    H253201   0.735   0.508  16.105  0.1704 -2.5449  1.7522
10596TIP3   OH253202   2.210   3.439  15.893  0.0748  0.0119 -0.0917
10596TIP3    H153203   2.159   3.467  15.969  0.6018 -1.1916  0.7501
10596TIP3    H253204   2.300   3.434  15.925  0.3262 -0.3711 -0.8305
10597TIP3   OH253205   3.601   1.249  15.389  0.2353 -0.4004  0.7443
10597TIP3    H153206   3.630   1.186  15.456  0.5033 -1.7872 -0.6266
10597TIP3    H253207   3.527   1.294  15.431  1.5057  0.0571  2.6226
10598TIP3   OH253208   1.378   4.010   2.926  0.2279  0.0872  0.1770
10598TIP3    H153209   1.454   3.959   2.955 -0.4750 -1.6677 -0.8680
10598TIP3    H253210   1.331   4.031   3.006  0.7589 -0.5960  0.6814
10599TIP3   OH253211   0.241   4.719  13.742 -0.0614  0.1786 -0.1895
10599TIP3    H153212   0.249   4.624  13.738 -0.7125  0.0202  1.5963
10599TIP3    H253213   0.249   4.740  13.835 -2.4829  1.6220 -0.2443
10600TIP3   OH253214   6.490   0.102  14.124  0.2853 -0.5625  0.1347
10600TIP3    H153215   6.438   0.113  14.045  1.2334 -2.6120 -0.8507
10600TIP3    H253216   6.568   0.155  14.109 -0.5310  0.8802  0.7413
10601TIP3   OH253217   6.662   0.292  14.685 -0.3048  0.3743  0.6463
10601TIP3    H153218   6.726   0.302  14.755 -2.1813  3.2722  2.1231
10601TIP3    H253219   6.715   0.292  14.605  1.6451  1.2099  1.8587
10602TIP3   OH253220   4.580   4.489  15.132  0.3885 -0.8350 -0.1503
10602TIP3    H153221   4.570   4.583  15.144 -0.2130 -1.0181  0.8769
10602TIP3    H253222   4.670   4.478  15.100  1.0563 -0.0569  1.3868
10603TIP3   OH253223   3.368   4.376   3.984 -0.0189 -0.1351 -0.1264
10603TIP3    H153224   3.343   4.407   4.071 -1.9047 -0.9936 -0.3267
10603TIP3    H253225   3.305   4.417   3.925 -0.3358 -1.5270 -0.7822
10604TIP3   OH253226   4.369   3.316  11.917  0.5745  0.1180 -0.4845
10604TIP3    H153227   4.394   3.235  11.874  0.0241  0.1403 -0.8553
10604TIP3    H253228   4.451   3.352  11.950  0.7844 -0.7560 -0.0194
10605TIP3   OH253229   6.247   4.960   1.100  0.2334 -0.1921 -0.5516
10605TIP3    H153230   6.282   4.898   1.036  2.2065  0.9768 -0.6760
10605TIP3    H253231   6.293   4.939   1.182 -0.2351  0.1017 -0.2061
10606TIP3   OH253232   5.153   4.246  17.162  0.0545  0.6256 -0.0415
10606TIP3    H153233   5.211   4.243  17.239 -0.9566 -0.9525  0.7263
10606TIP3    H253234   5.065   4.247  17.200 -0.5243 -2.0083 -1.1223
10607TIP3   OH253235   4.676   6.279   6.233 -0.6759  0.2411  0.3075
10607TIP3    H153236   4.606   6.243   6.288 -1.2472  0.3349 -0.3529
10607TIP3    H253237   4.650   6.258   6.144  0.2811  0.0340  0.0636
10608TIP3   OH253238   5.487   0.642  15.750  0.1820  0.4266  0.7738
10608TIP3    H153239   5.505   0.655  15.656 -0.2472  1.2216  0.7953
10608TIP3    H253240   5.458   0.551  15.757 -1.2829  0.7984 -0.1007
10609TIP3   OH253241   3.884   4.920   5.807 -0.3631  0.4913 -0.7029
10609TIP3    H153242   3.885   5.009   5.844 -0.0312  0.5998 -0.9623
10609TIP3    H253243   3.807   4.918   5.751 -4.2207 -1.3722  3.9888
10610TIP3   OH253244   3.651   2.145   2.323 -0.1567  0.3196  0.1446
10610TIP3    H153245   3.557   2.130   2.333 -1.0514  3.2343 -2.4741
10610TIP3    H253246   3.686   2.059   2.300 -2.1741 -0.7863  0.9480
10611TIP3   OH253247   0.070   3.514   6.511  0.0649 -0.2524  0.3611
10611TIP3    H153248   0.161   3.484   6.515  0.0298 -1.4829 -3.7650
10611TIP3    H253249   0.075   3.599   6.467 -0.8117 -1.0761 -1.4137
10612TIP3   OH253250   1.205   4.553  12.409  0.0634 -0.0169  0.4606
10612TIP3    H153251   1.187   4.640  12.444 -0.8226 -0.4157  1.0394
10612TIP3    H253252   1.284   4.525  12.454 -1.0848 -0.5427  2.2451
10613TIP3   OH253253   1.376   5.736  13.140  0.2097 -0.9441  0.1829
10613TIP3    H153254   1.461   5.699  13.114 -0.2458 -1.6234 -0.3615
10613TIP3    H253255   1.370   5.818  13.090  0.9454 -0.4122  0.9269
10614TIP3   OH253256   2.079   5.347   1.328  0.5078 -0.2812  0.8691
10614TIP3    H153257   2.013   5.370   1.263  0.5941  0.6264  1.0878
10614TIP3    H253258   2.043   5.376   1.411  1.9056  1.9713  0.7945
10615TIP3   OH253259   1.316   6.638   3.516  0.4918  0.2504 -0.0080
10615TIP3    H153260   1.318   6.676   3.604 -0.6244  1.0585 -0.3092
10615TIP3    H253261   1.363   6.701   3.462 -0.3759  0.6588 -0.3036
10616TIP3   OH253262   1.575   4.096   3.208  0.1210  0.1830  0.2482
10616TIP3    H153263   1.617   4.049   3.280  0.6292 -0.6574 -0.5744
10616TIP3    H253264   1.637   4.090   3.135 -1.3140 -0.9733 -0.9604
10617TIP3   OH253265   3.946   0.859   4.599  0.1976  0.2878 -0.4899
10617TIP3    H153266   3.953   0.937   4.655  1.6206 -0.0127 -0.2250
10617TIP3    H253267   4.032   0.818   4.603 -0.2345 -0.7708 -1.4273
10618TIP3   OH253268   1.243   3.500   4.227 -0.0438 -0.6349  0.1820
10618TIP3    H153269   1.225   3.561   4.155 -1.4091 -1.9352 -0.6585
10618TIP3    H253270   1.207   3.543   4.305 -1.6174 -0.6043 -0.5127
10619TIP3   OH253271   3.991   3.838  15.976 -0.2066  0.1903 -0.3430
10619TIP3    H153272   3.941   3.773  15.927  0.9213 -0.4288 -0.7061
10619TIP3    H253273   4.040   3.788  16.040  0.7862  0.6596 -0.7165
10620TIP3   OH253274   1.486   2.732  17.240  0.6030  0.1198 -0.4481
10620TIP3    H153275   1.400   2.733  17.283 -1.4521  1.1002 -4.1448
10620TIP3    H253276   1.549   2.731  17.312 -2.4601 -0.3065  2.4736
10621TIP3   OH253277   5.891   0.858  15.905 -0.6669 -0.2682 -0.4358
10621TIP3    H153278   5.849   0.859  15.818 -0.7625 -1.2200 -0.4172
10621TIP3    H253279   5.821   0.883  15.965 -1.2087 -1.6719 -0.4250
10622TIP3   OH253280   5.081   1.740  14.652  0.3611  0.3530 -0.0756
10622TIP3    H153281   5.125   1.684  14.716 -0.3781  1.5818  1.5999
10622TIP3    H253282   5.036   1.679  14.593  1.0762 -0.8289  0.5710
10623TIP3   OH253283   4.015   6.524  11.474 -0.4601  0.1202  0.7601
10623TIP3    H153284   4.096   6.571  11.453 -1.0971  0.2164 -1.8208
10623TIP3    H253285   3.949   6.593  11.480 -0.6059 -0.0794  1.6127
10624TIP3   OH253286   2.364   2.146  17.167  0.3400  0.2790 -0.8981
10624TIP3    H153287   2.277   2.106  17.169 -0.1695  1.3780 -0.2886
10624TIP3    H253288   2.412   2.096  17.101 -0.9046 -0.0318 -1.5927
10625TIP3   OH253289   5.070   1.114  16.290  0.1958 -0.0501  0.2634
10625TIP3    H153290   4.990   1.165  16.276  0.1745  0.2047  1.2386
10625TIP3    H253291   5.042   1.042  16.347  0.3788 -0.7526 -0.5235
10626TIP3   OH253292   0.317   6.386  13.907  0.0472  0.4755 -0.4920
10626TIP3    H153293   0.385   6.411  13.969 -1.3592  1.0423  0.9091
10626TIP3    H253294   0.333   6.440  13.829  1.7314 -0.1148 -0.5878
10627TIP3   OH253295   2.404   5.601  12.129 -0.3676  0.5811 -0.2878
10627TIP3    H153296   2.378   5.668  12.193  1.8546  0.0167  1.3253
10627TIP3    H253297   2.361   5.521  12.160 -0.7333  0.6746 -0.5527
10628TIP3   OH253298   0.283   5.096   6.506  0.2290 -0.7052 -0.0045
10628TIP3    H153299   0.348   5.056   6.448  0.7799 -1.0201  0.8047
10628TIP3    H253300   0.316   5.185   6.521  1.2643 -1.2923  1.5105
10629TIP3   OH253301   6.195   4.476  13.532  0.6081 -0.0989  0.0626
10629TIP3    H153302   6.169   4.462  13.623 -1.7146  1.0336 -0.3640
10629TIP3    H253303   6.156   4.404  13.484 -1.4795  1.3264 -0.5092
10630TIP3   OH253304   5.560   6.056  14.153 -0.0877 -0.1760  0.1587
10630TIP3    H153305   5.632   6.108  14.117 -0.4065  0.6038  0.6009
10630TIP3    H253306   5.529   6.108  14.227  0.2456 -1.5073  1.2743
10631TIP3   OH253307   4.704   4.529   2.230 -0.0564 -0.3568  0.1496
10631TIP3    H153308   4.768   4.600   2.240 -2.6071  2.2316 -0.3977
10631TIP3    H253309   4.663   4.545   2.145 -0.8856 -2.3910  0.0979
10632TIP3   OH253310   0.661   4.582  16.818 -0.5421 -0.4056  0.3053
10632TIP3    H153311   0.652   4.541  16.903 -2.0719 -0.0742  0.3226
10632TIP3    H253312   0.617   4.523  16.757  1.5327 -1.2408 -0.4981
10633TIP3   OH253313   6.448   5.850  14.087 -0.6830  0.0026  0.0802
10633TIP3    H153314   6.516   5.785  14.101 -0.6417  0.2308  1.0160
10633TIP3    H253315   6.463   5.883  13.999 -0.0554 -0.4951 -0.0007
10634TIP3   OH253316   2.179   1.785   1.414 -0.3243  0.4546  0.3128
10634TIP3    H153317   2.223   1.805   1.332 -0.9884  1.7852  0.2623
10634TIP3    H253318   2.198   1.693   1.429  2.4653  0.9416  0.2841
10635TIP3   OH253319   6.498   2.226  13.240  0.0314 -0.6543 -0.4589
10635TIP3    H153320   6.570   2.289  13.231  0.4297 -1.3183 -2.5533
10635TIP3    H253321   6.423   2.279  13.266  0.7174  0.4553 -0.6524
10636TIP3   OH253322   4.942   3.288  12.266  0.1314 -0.6398 -0.7406
10636TIP3    H153323   4.924   3.253  12.178 -0.6671 -0.0325 -0.8264
10636TIP3    H253324   5.029   3.255  12.287  0.9008  0.2612 -2.3003
10637TIP3   OH253325   2.071   3.083   5.170  0.3209 -0.1571 -0.4471
10637TIP3    H153326   2.097   3.073   5.079 -2.0883 -1.1062 -1.1313
10637TIP3    H253327   2.021   3.003   5.189 -1.8620  1.3687  0.6691
10638TIP3   OH253328   1.113   5.498  16.418  0.2342  0.1667 -0.6614
10638TIP3    H153329   1.134   5.576  16.367 -0.9219  0.8206 -0.1998
10638TIP3    H253330   1.113   5.528  16.509 -0.6095 -0.2518 -0.5044
10639TIP3   OH253331   0.496   4.762   2.929  0.0650 -0.3819 -0.2960
10639TIP3    H153332   0.567   4.698   2.919 -1.3458 -1.7964 -2.0633
10639TIP3    H253333   0.441   4.725   2.998  0.0118 -0.2985 -0.2943
10640TIP3   OH253334   1.148   0.126  14.246  0.4117  0.0889 -0.1079
10640TIP3    H153335   1.172   0.217  14.263 -2.0041  1.4411 -2.9117
10640TIP3    H253336   1.090   0.103  14.318  2.1452  0.2152  1.3824
10641TIP3   OH253337   0.114   5.327   2.895  0.4103 -0.2193 -0.1070
10641TIP3    H153338   0.142   5.344   2.985  0.7096  0.6963 -0.3604
10641TIP3    H253339   0.191   5.292   2.851  0.7954  0.9691 -0.4368
10642TIP3   OH253340   2.909   5.398  14.936  0.5112  0.3417  0.0288
10642TIP3    H153341   2.999   5.428  14.951  0.3904  0.9790 -0.4896
10642TIP3    H253342   2.857   5.478  14.932 -0.1055 -0.0289  0.4379
10643TIP3   OH253343   0.267   5.051  16.467 -0.0029 -0.2662  0.0031
10643TIP3    H153344   0.251   4.982  16.403 -0.0485 -0.9259  0.7087
10643TIP3    H253345   0.195   5.042  16.530  0.4030 -0.0669  0.5067
10644TIP3   OH253346   4.636   0.829  11.182 -0.2404 -0.0541  0.2610
10644TIP3    H153347   4.595   0.859  11.101  0.0566  0.6765  0.3656
10644TIP3    H253348   4.651   0.736  11.169  0.8164  0.2538 -0.9923
10645TIP3   OH253349   6.120   4.979  13.186  0.4498  0.0300  0.2797
10645TIP3    H153350   6.201   4.988  13.237  0.6504 -1.1479  0.1947
10645TIP3    H253351   6.147   4.932  13.107 -0.1512  0.4992 -0.2180
10646TIP3   OH253352   3.716   0.996   3.391 -0.0051  0.0810 -0.0714
10646TIP3    H153353   3.684   0.978   3.303  0.0537  0.0213 -0.0805
10646TIP3    H253354   3.774   1.072   3.380 -0.9454  0.8393  0.1056
10647TIP3   OH253355   0.609   0.573   3.439 -0.1636 -0.5878 -0.2699
10647TIP3    H153356   0.595   0.607   3.527 -0.4474 -2.0902  0.2972
10647TIP3    H253357   0.699   0.596   3.418 -0.8118  1.9029 -0.5950
10648TIP3   OH253358   3.473   3.231   4.546  0.5554  0.2509 -0.1885
10648TIP3    H153359   3.468   3.185   4.462 -2.2412 -0.2179  0.1606
10648TIP3    H253360   3.558   3.205   4.582  0.4025 -2.2407 -1.3969
10649TIP3   OH253361   2.692   0.299   4.480 -0.3769  0.2115  0.4449
10649TIP3    H153362   2.700   0.351   4.560 -1.3723 -0.6187  1.1011
10649TIP3    H253363   2.621   0.342   4.431 -1.3151 -0.5691  1.0634
10650TIP3   OH253364   2.653   5.507   1.065  0.3073 -0.0361  0.0099
10650TIP3    H153365   2.620   5.437   1.009 -1.8640  1.5343 -0.8065
10650TIP3    H253366   2.585   5.518   1.132  1.4529  0.1344  1.1859
10651TIP3   OH253367   5.735   1.573   3.611  0.0220  0.1137 -0.7801
10651TIP3    H153368   5.817   1.523   3.603  0.5184  0.8844 -0.5772
10651TIP3    H253369   5.759   1.662   3.586 -1.0185  0.1280 -1.8200
10652TIP3   OH253370   4.579   0.095  11.938  0.4682 -0.5901 -0.1948
10652TIP3    H153371   4.551   0.176  11.980  1.2905  0.8730 -2.2883
10652TIP3    H253372   4.498   0.058  11.903  0.3673  0.6908 -1.4034
10653TIP3   OH253373   4.354   5.596  10.764  0.2244  0.6391  0.1268
10653TIP3    H153374   4.296   5.671  10.776  0.2808  0.7258 -0.1539
10653TIP3    H253375   4.322   5.552  10.686 -1.8329 -1.4710  2.0096
10654TIP3   OH253376   1.318   2.693  16.113 -0.0798 -0.2107 -0.2971
10654TIP3    H153377   1.362   2.624  16.064  0.0326 -0.1413 -0.2936
10654TIP3    H253378   1.378   2.768  16.110  0.7570 -0.7585  1.4838
10655TIP3   OH253379   2.941   4.464   5.872  0.2321 -0.4513 -0.5741
10655TIP3    H153380   2.939   4.403   5.799  1.6087 -0.6500 -0.4654
10655TIP3    H253381   2.849   4.471   5.900  0.0002 -2.1774 -0.8098
10656TIP3   OH253382   1.536   1.674  14.175  0.0417 -0.2622 -0.3341
10656TIP3    H153383   1.510   1.763  14.200 -1.0807  0.1516 -2.7414
10656TIP3    H253384   1.590   1.685  14.097 -1.2797 -1.7350 -1.5320
10657TIP3   OH253385   0.133   4.794  15.993  0.0018 -0.3081  0.3713
10657TIP3    H153386   0.172   4.880  16.010  0.0405 -0.5172  1.4260
10657TIP3    H253387   0.194   4.731  16.031  0.1523 -0.8329 -0.7214
10658TIP3   OH253388   5.349   1.628  16.315  0.4199  0.1173  0.2308
10658TIP3    H153389   5.268   1.679  16.317  0.2515 -0.0673 -0.9447
10658TIP3    H253390   5.363   1.608  16.222 -0.9308 -4.1216  0.6955
10659TIP3   OH253391   0.313   2.603  16.923 -0.0274 -0.0438  1.0232
10659TIP3    H153392   0.236   2.553  16.895 -0.0968  0.9596 -0.7664
10659TIP3    H253393   0.387   2.549  16.897 -0.1240  0.2305  0.1028
10660TIP3   OH253394   4.180   1.300  12.814 -0.1667  0.2867 -0.4692
10660TIP3    H153395   4.197   1.370  12.878  0.0106  0.4401 -0.6807
10660TIP3    H253396   4.086   1.303  12.799 -0.2288  0.1719 -0.1284
10661TIP3   OH253397   2.988   1.890   5.874 -0.1146  0.6800 -0.3839
10661TIP3    H153398   3.040   1.903   5.953 -0.4016  1.2905 -0.2839
10661TIP3    H253399   2.960   1.978   5.850 -2.0110  0.2867  0.1899
10662TIP3   OH253400   4.174   6.487  15.994  0.4130  0.4059 -0.5298
10662TIP3    H153401   4.187   6.481  16.088  1.2103  1.3543 -0.5647
10662TIP3    H253402   4.161   6.580  15.977 -3.3361 -0.0600 -0.9348
10663TIP3   OH253403   2.326   4.504  15.101  0.4265 -0.1332 -0.1314
10663TIP3    H153404   2.324   4.536  15.011  2.5599 -0.3441 -0.3125
10663TIP3    H253405   2.412   4.531  15.134  0.4181 -1.6114  1.2438
10664TIP3   OH253406   0.361   6.244  10.780  0.0989 -0.0542 -0.0691
10664TIP3    H153407   0.278   6.216  10.819 -1.1346 -0.0143 -2.4627
10664TIP3    H253408   0.376   6.332  10.816 -1.1634  0.1209  0.0758
10665TIP3   OH253409   2.348   4.534  16.389  0.0458  0.0343  0.2238
10665TIP3    H153410   2.335   4.589  16.312  2.1776  0.6534  0.2622
10665TIP3    H253411   2.360   4.445  16.354 -3.1549 -0.5238  0.1517
10666TIP3   OH253412   1.644   5.231   4.691  0.2051  0.7697 -0.3229
10666TIP3    H153413   1.697   5.178   4.751 -1.6835 -1.0612 -0.1571
10666TIP3    H253414   1.686   5.221   4.606 -0.1590 -1.1531 -0.3113
10667TIP3   OH253415   3.182   5.653   0.279 -0.3738  0.2815 -0.9054
10667TIP3    H153416   3.133   5.587   0.328 -1.6662  1.3957 -0.6481
10667TIP3    H253417   3.119   5.689   0.217  0.5390  0.7150 -1.6044
10668TIP3   OH253418   0.595   0.143   2.160  0.0629 -0.1124 -0.5494
10668TIP3    H153419   0.631   0.192   2.086 -1.4232  0.2357 -1.0665
10668TIP3    H253420   0.553   0.210   2.215 -0.2111 -0.5634 -0.2006
10669TIP3   OH253421   0.702   5.856  15.004  0.0182 -0.6051 -0.0969
10669TIP3    H153422   0.757   5.778  14.996 -1.2030 -1.4444 -0.6105
10669TIP3    H253423   0.619   5.823  15.040 -0.4148  0.4993 -0.0554
10670TIP3   OH253424   5.307   1.709   6.608 -0.2245 -0.2870 -0.0910
10670TIP3    H153425   5.296   1.614   6.604 -1.3332 -0.1353 -1.8409
10670TIP3    H253426   5.398   1.723   6.580 -0.1042 -0.8281  0.0115
10671TIP3   OH253427   6.235   2.322   5.370  0.9375  0.7844  0.3903
10671TIP3    H153428   6.246   2.245   5.426  1.4631  1.2022  0.8718
10671TIP3    H253429   6.276   2.393   5.419  2.4141  0.9520 -1.0083
10672TIP3   OH253430   1.531   3.762   2.171 -0.1589 -0.1414  0.6978
10672TIP3    H153431   1.596   3.719   2.116  0.1898 -1.6178  2.1851
10672TIP3    H253432   1.572   3.766   2.258 -0.9232  1.5682  1.0161
10673TIP3   OH253433   3.787   0.772   1.028 -0.7251 -0.0753 -0.3693
10673TIP3    H153434   3.840   0.849   1.049  0.1061 -0.5678 -0.6008
10673TIP3    H253435   3.767   0.733   1.112 -0.7152  0.1112 -0.2792
10674TIP3   OH253436   2.995   3.372   6.032 -0.3570  0.3326  0.5464
10674TIP3    H153437   3.043   3.296   6.065 -0.2333 -0.4453 -1.3479
10674TIP3    H253438   2.950   3.406   6.110  1.4026 -0.2663  1.9127
10675TIP3   OH253439   4.534   5.595   1.982 -0.2302 -0.7411  0.1255
10675TIP3    H153440   4.505   5.505   1.968  0.8873 -1.3583  1.4650
10675TIP3    H253441   4.595   5.589   2.056 -0.6480  1.2218  0.6884
10676TIP3   OH253442   1.385   4.407  16.214  0.0311 -0.4836  0.2060
10676TIP3    H153443   1.464   4.438  16.258  0.3869  0.2087 -0.8762
10676TIP3    H253444   1.376   4.465  16.138 -2.7010  0.8419  1.4285
10677TIP3   OH253445   3.738   6.004   3.095  0.2215 -0.2188 -0.0122
10677TIP3    H153446   3.683   5.950   3.039  0.9358 -0.0433 -0.9034
10677TIP3    H253447   3.684   6.079   3.118  0.1899  0.1293 -1.1646
10678TIP3   OH253448   0.445   4.808  16.325 -0.0504  0.7376  0.1840
10678TIP3    H153449   0.472   4.724  16.287 -0.3302  1.1757 -1.0175
10678TIP3    H253450   0.356   4.821  16.292  0.6763  2.4271 -1.2544
10679TIP3   OH253451   6.649   3.796  14.491  0.1949  0.9446  1.0187
10679TIP3    H153452   6.633   3.708  14.456  1.0468 -0.1251  3.0972
10679TIP3    H253453   6.742   3.796  14.513  0.2301  2.4262  0.9352
10680TIP3   OH253454   6.121   6.704   1.219  0.1173 -0.0065 -0.2944
10680TIP3    H153455   6.184   6.660   1.162 -1.1819  0.2202 -1.9554
10680TIP3    H253456   6.052   6.734   1.161 -1.2111  0.3621  1.3937
10681TIP3   OH253457   4.738   2.497  13.620 -0.6466  0.3208 -0.3500
10681TIP3    H153458   4.772   2.486  13.708  0.6155  0.3102 -0.8139
10681TIP3    H253459   4.672   2.566  13.628 -1.3181 -0.4378  0.7737
10682TIP3   OH253460   6.362   4.228   4.021 -0.0005  0.2001  0.0277
10682TIP3    H153461   6.304   4.230   3.945  0.9819 -0.5409 -0.7673
10682TIP3    H253462   6.308   4.262   4.093 -1.4699 -0.6361 -0.6311
10683TIP3   OH253463   3.125   5.558   6.814 -0.3661  0.4862 -0.4776
10683TIP3    H153464   3.200   5.499   6.823 -1.5635 -1.6553 -2.9484
10683TIP3    H253465   3.061   5.525   6.877 -0.0457  0.8972  0.0656
10684TIP3   OH253466   4.547   2.436  11.407 -0.0217 -0.5415  0.0535
10684TIP3    H153467   4.480   2.415  11.342  0.9941  1.2136 -1.6544
10684TIP3    H253468   4.532   2.529  11.427  2.5531  0.2506 -1.2861
10685TIP3   OH253469   1.695   3.486  14.674 -0.5189  0.1095  0.0923
10685TIP3    H153470   1.692   3.427  14.599 -1.8739 -1.2655  1.1729
10685TIP3    H253471   1.731   3.567  14.639  2.3144 -1.5976 -1.2354
10686TIP3   OH253472   2.316   3.362  12.763  0.1598  0.1156  0.4009
10686TIP3    H153473   2.220   3.358  12.762  0.1943 -1.9540 -0.3335
10686TIP3    H253474   2.343   3.270  12.760  2.1886  0.6550 -3.6465
10687TIP3   OH253475   0.920   1.946   5.077  0.2298 -0.3513  0.1145
10687TIP3    H153476   0.940   1.856   5.050  0.1988  0.2484 -2.0908
10687TIP3    H253477   0.827   1.944   5.098 -0.0087 -0.6538 -0.9026
10688TIP3   OH253478   6.566   0.594   2.930  0.1350 -0.1103  0.3767
10688TIP3    H153479   6.656   0.568   2.947  0.2506  1.2767  2.1684
10688TIP3    H253480   6.531   0.618   3.016 -1.2457  1.4616 -0.5545
10689TIP3   OH253481   2.292   6.646   4.389 -0.0115  0.1499  0.5793
10689TIP3    H153482   2.325   6.724   4.433  0.3263  1.2870 -1.5384
10689TIP3    H253483   2.200   6.666   4.370  0.0099 -0.0647  0.2328
10690TIP3   OH253484   0.892   6.319   1.563 -0.0065 -0.3434  0.5388
10690TIP3    H153485   0.836   6.372   1.506 -0.9202 -0.7868  0.9966
10690TIP3    H253486   0.865   6.228   1.546  1.0163 -0.6240  0.3120
10691TIP3   OH253487   4.313   1.440   1.968  0.1364  0.2186  0.2215
10691TIP3    H153488   4.328   1.473   1.879  0.7030 -2.1996 -0.6419
10691TIP3    H253489   4.228   1.398   1.965 -0.8915  2.0481  1.4996
10692TIP3   OH253490   5.280   6.149   1.012 -0.1176 -0.1160  0.0351
10692TIP3    H153491   5.285   6.108   0.925 -0.2265 -0.8643  0.3744
10692TIP3    H253492   5.323   6.087   1.070  0.4128  0.6194  0.4442
10693TIP3   OH253493   6.447   0.901   0.432 -0.8536 -0.0368  0.3361
10693TIP3    H153494   6.357   0.912   0.401 -0.3845  0.2789 -0.9780
10693TIP3    H253495   6.440   0.910   0.527 -2.4209 -1.5433  0.4112
10694TIP3   OH253496   0.920   1.762   0.730 -0.3862 -0.4666  0.3696
10694TIP3    H153497   1.009   1.748   0.698 -0.9218 -1.3917 -0.8359
10694TIP3    H253498   0.870   1.688   0.695 -1.8562  0.6045  0.0633
10695TIP3   OH253499   4.550   4.337  12.974 -0.3241  0.7355  0.6760
10695TIP3    H153500   4.574   4.282  13.048 -0.8808  1.1224  1.1583
10695TIP3    H253501   4.622   4.328  12.912  1.5938  2.6143  2.4560
10696TIP3   OH253502   1.867   3.903   0.699 -0.0768 -0.0934 -0.5030
10696TIP3    H153503   1.785   3.951   0.715 -0.4442 -1.0271  0.6286
10696TIP3    H253504   1.843   3.835   0.636 -0.4252 -0.9266  0.4936
10697TIP3   OH253505   1.935   1.312   0.201  0.2354 -0.4198  0.3572
10697TIP3    H153506   1.918   1.396   0.245 -0.8931 -1.1864  1.4273
10697TIP3    H253507   1.955   1.251   0.272  2.4257 -0.7969 -0.4941
10698TIP3   OH253508   3.522   5.242  10.827 -0.3873  0.0550 -0.2554
10698TIP3    H153509   3.565   5.168  10.870  0.9829  1.3288  0.6468
10698TIP3    H253510   3.523   5.218  10.734  1.2752 -0.4959 -0.1378
10699TIP3   OH253511   3.394   4.220   4.491  0.2646  0.4664 -0.1628
10699TIP3    H153512   3.312   4.259   4.459 -0.2388 -0.5067 -0.1089
10699TIP3    H253513   3.366   4.142   4.539  1.1484  0.8468  0.9988
10700TIP3   OH253514   4.061   5.026  11.826 -0.1076  0.7735  0.1210
10700TIP3    H153515   4.021   5.098  11.874 -1.6119 -0.5363  0.9195
10700TIP3    H253516   4.128   4.992  11.885  0.5864  1.4503 -0.2456
10701TIP3   OH253517   3.118   5.243   6.757  0.5342  0.1691 -0.9033
10701TIP3    H153518   3.139   5.158   6.794 -0.8928 -0.0237 -0.4623
10701TIP3    H253519   3.178   5.304   6.798  0.1221 -0.3083  0.4442
10702TIP3   OH253520   1.303   1.936  17.014  0.1632 -0.5914 -0.6821
10702TIP3    H153521   1.349   1.922  17.096  0.7533 -1.2697 -1.1128
10702TIP3    H253522   1.348   1.880  16.951 -1.5102 -1.6311 -1.0393
10703TIP3   OH253523   5.712   1.296   1.018 -0.6402  0.4733 -0.0798
10703TIP3    H153524   5.672   1.216   1.053  3.7751 -2.8470 -1.7478
10703TIP3    H253525   5.730   1.349   1.096 -0.6235 -1.7522  1.5390
10704TIP3   OH253526   5.195   0.811  13.307 -0.4936  1.2374  0.2392
10704TIP3    H153527   5.170   0.883  13.365 -0.5312  1.5035 -0.1018
10704TIP3    H253528   5.277   0.840  13.267  0.1076  0.5889  0.9673
10705TIP3   OH253529   4.073   2.006   0.121  0.0281  0.3234  0.7204
10705TIP3    H153530   4.029   2.086   0.093 -0.9569 -0.0408  1.1993
10705TIP3    H253531   4.147   1.998   0.061 -2.3862 -0.8295 -2.3850
10706TIP3   OH253532   1.763   4.450  12.656 -0.6227  0.6548  0.1573
10706TIP3    H153533   1.691   4.412  12.606 -1.4396  2.9936 -0.5773
10706TIP3    H253534   1.831   4.467  12.591  0.0171 -0.1263  0.5966
10707TIP3   OH253535   4.534   2.579  11.946 -0.0509  0.0331 -0.1513
10707TIP3    H153536   4.461   2.517  11.943 -0.6512  0.5298  2.1252
10707TIP3    H253537   4.504   2.655  11.896 -0.4127 -0.4137 -0.6199
10708TIP3   OH253538   2.000   1.736  15.172 -0.0274  0.2721 -0.0984
10708TIP3    H153539   1.929   1.719  15.111 -0.4419  0.2010  0.4017
10708TIP3    H253540   2.032   1.649  15.197  0.6627  0.3116 -0.8132
10709TIP3   OH253541   4.367   5.084   5.478  0.3928  0.1203  1.0147
10709TIP3    H153542   4.302   5.092   5.549 -1.1871 -3.6839  0.2167
10709TIP3    H253543   4.437   5.032   5.516  0.1983 -0.7246  0.2552
10710TIP3   OH253544   0.133   0.607   5.037 -0.1766  0.4800 -0.2905
10710TIP3    H153545   0.204   0.590   5.100 -0.0409  0.0350 -0.5569
10710TIP3    H253546   0.088   0.683   5.073  0.5945  0.9354 -0.2489
10711TIP3   OH253547   0.284   3.650   5.054  0.5641  0.8206  0.0706
10711TIP3    H153548   0.327   3.723   5.009  0.4801  0.0808 -1.2559
10711TIP3    H253549   0.353   3.611   5.107  0.7920  1.4072  0.2152
10712TIP3   OH253550   3.943   1.194   5.294 -0.1715 -0.4640  0.0617
10712TIP3    H153551   4.016   1.133   5.287  0.5881  0.4564 -0.3189
10712TIP3    H253552   3.874   1.144   5.337 -0.0353 -1.9965 -1.3727
10713TIP3   OH253553   3.821   3.611   1.717  0.8139 -0.5892 -0.1819
10713TIP3    H153554   3.822   3.524   1.678 -0.1367 -1.1983  1.0810
10713TIP3    H253555   3.906   3.619   1.761  0.7577 -1.0280  0.0083
10714TIP3   OH253556   6.728   1.753  10.815  0.0651 -0.0191 -0.5014
10714TIP3    H153557   6.755   1.696  10.743 -1.3161  1.1867 -2.0584
10714TIP3    H253558   6.728   1.841  10.778 -0.5320  0.6722  1.0300
10715TIP3   OH253559   2.140   6.426   6.047  0.2939  0.4611 -0.0991
10715TIP3    H153560   2.088   6.443   6.126 -0.0797 -0.2814 -0.1736
10715TIP3    H253561   2.231   6.428   6.077  0.2514  1.8170  0.0275
10716TIP3   OH253562   2.559   6.753  13.278 -0.2121 -0.3334  0.1533
10716TIP3    H153563   2.540   6.710  13.195  2.6548 -0.8270 -0.3758
10716TIP3    H253564   2.560   6.847  13.257 -0.6772 -0.3855 -0.0984
10717TIP3   OH253565   5.969   1.497  14.413  0.2209 -0.3855 -0.2026
10717TIP3    H153566   6.057   1.471  14.439  0.3230  0.4507  0.3248
10717TIP3    H253567   5.941   1.429  14.352 -0.2308 -2.7483  2.4394
10718TIP3   OH253568   1.369   0.625  16.711  0.9042  0.3996 -0.4356
10718TIP3    H153569   1.408   0.708  16.737  1.9006 -0.3827  0.7425
10718TIP3    H253570   1.277   0.632  16.735  1.1545  0.8741  0.4166
10719TIP3   OH253571   0.337   6.042  17.110  0.5485  0.4186 -0.3244
10719TIP3    H153572   0.332   6.103  17.184  1.8140  1.0118 -0.7027
10719TIP3    H253573   0.354   5.957  17.151  0.1232  0.5439  0.1294
10720TIP3   OH253574   6.692   0.904  15.164  0.2786 -0.5696 -0.3763
10720TIP3    H153575   6.605   0.863  15.163 -0.3481  0.5013  2.0887
10720TIP3    H253576   6.692   0.962  15.088 -0.0619 -2.5950 -2.0152
10721TIP3   OH253577   4.507   3.343  17.248  0.3680  0.9262  0.1632
10721TIP3    H153578   4.522   3.344  17.343  1.6637 -0.9988  0.0209
10721TIP3    H253579   4.412   3.348  17.239  0.0021 -1.7235  1.6924
10722TIP3   OH253580   4.355   3.408  15.788  0.3573 -0.0745 -0.4680
10722TIP3    H153581   4.356   3.341  15.857 -0.3715  1.0164  0.6317
10722TIP3    H253582   4.448   3.424  15.770  0.5567 -0.5110  0.1214
10723TIP3   OH253583   2.231   3.635  15.710  0.2409 -0.2645 -0.4560
10723TIP3    H153584   2.285   3.703  15.751  1.9334  0.0629 -2.9855
10723TIP3    H253585   2.220   3.568  15.778  0.7802  1.3095  1.2551
10724TIP3   OH253586   6.259   1.392  14.476  0.2975 -0.5604  0.0676
10724TIP3    H153587   6.345   1.434  14.484  0.0095  0.3123 -1.1089
10724TIP3    H253588   6.278   1.305  14.443  0.9539 -1.6923  3.0605
10725TIP3   OH253589   5.520   4.750  14.881  0.1200  0.6297  0.0688
10725TIP3    H153590   5.448   4.709  14.834 -1.7896  1.1119  2.3670
10725TIP3    H253591   5.591   4.685  14.879  0.2726  0.6926 -3.4415
10726TIP3   OH253592   4.597   1.610  16.880  0.1509  0.3108  0.0922
10726TIP3    H153593   4.579   1.688  16.828 -1.4844 -0.0757  0.0184
10726TIP3    H253594   4.522   1.601  16.938  1.2793 -0.0724  1.5728
10727TIP3   OH253595   3.436   4.033  11.445  0.0029  0.2224  0.0085
10727TIP3    H153596   3.368   4.031  11.377  0.5981  2.8048 -0.7769
10727TIP3    H253597   3.397   4.084  11.516  0.3652 -0.0889  0.4285
10728TIP3   OH253598   4.450   5.299   1.000  0.0327 -0.4085 -0.0274
10728TIP3    H153599   4.536   5.318   1.039 -0.1106 -0.0533  0.1193
10728TIP3    H253600   4.465   5.305   0.906 -0.0461  0.6567  0.0113
10729TIP3   OH253601   6.664   4.859   4.040 -0.4638  0.5444  0.1052
10729TIP3    H153602   6.611   4.798   3.989 -1.2391  1.2469  0.0612
10729TIP3    H253603   6.754   4.832   4.023 -0.7424  0.2707 -1.0056
10730TIP3   OH253604   0.034   5.803  14.783  0.6241  0.1310  0.1560
10730TIP3    H153605   0.056   5.815  14.875  1.3914  1.0219 -0.1182
10730TIP3    H253606   0.057   5.887  14.742 -1.7593  0.5295 -0.4824
10731TIP3   OH253607   0.912   4.571   4.234  0.0055 -0.0395  0.6065
10731TIP3    H153608   0.971   4.500   4.260  0.4775  0.1806  0.1601
10731TIP3    H253609   0.939   4.646   4.287  0.6461  0.2746 -0.1510
10732TIP3   OH253610   2.983   1.540   3.722  0.5703  0.1156 -0.0041
10732TIP3    H153611   3.024   1.582   3.646  0.8108  0.2580  0.2040
10732TIP3    H253612   2.891   1.567   3.718 -0.2352 -2.5080 -2.1223
10733TIP3   OH253613   2.307   6.507  15.026  0.3078  0.8114  0.0645
10733TIP3    H153614   2.358   6.575  14.982  1.4824 -0.6149 -0.8617
10733TIP3    H253615   2.333   6.426  14.984 -3.2909  0.0211 -0.9995
10734TIP3   OH253616   0.401   6.252  16.954  0.3822  0.3293  0.0720
10734TIP3    H153617   0.371   6.173  16.999  2.0255 -1.2153 -1.3943
10734TIP3    H253618   0.470   6.222  16.895  0.3975  2.7246 -1.2742
10735TIP3   OH253619   1.236   6.149   0.364  0.3568 -0.2364 -0.5633
10735TIP3    H153620   1.157   6.190   0.400  1.4921 -0.1369  2.0097
10735TIP3    H253621   1.298   6.222   0.354  0.2158 -0.3208 -2.5022
10736TIP3   OH253622   6.734   5.145   3.116 -0.2638 -0.1267  0.4120
10736TIP3    H153623   6.718   5.239   3.110 -1.7535 -0.3764 -0.1236
10736TIP3    H253624   6.741   5.127   3.210 -1.7148  0.2832  0.6175
10737TIP3   OH253625   0.683   4.635  12.870 -0.4690 -0.2899  0.3919
10737TIP3    H153626   0.604   4.652  12.922 -0.1125 -1.8519  1.5068
10737TIP3    H253627   0.690   4.711  12.812 -4.0011 -1.0193 -1.3179
10738TIP3   OH253628   2.949   2.650   5.481 -0.5696  0.4214 -0.0660
10738TIP3    H153629   2.872   2.681   5.531 -0.8512 -0.2502 -0.0729
10738TIP3    H253630   3.020   2.706   5.511 -1.0779  1.1318 -0.1354
10739TIP3   OH253631   4.542   2.532   2.625 -0.0045 -0.2421  0.0794
10739TIP3    H153632   4.518   2.612   2.579 -0.5678 -0.8849 -0.7886
10739TIP3    H253633   4.617   2.497   2.577  0.9432  0.2986  1.1034
10740TIP3   OH253634   2.459   4.467  16.891 -0.7700  0.2480  0.3317
10740TIP3    H153635   2.389   4.486  16.828 -2.8870 -0.3571  2.3673
10740TIP3    H253636   2.474   4.373  16.883  0.0920  0.4228 -0.3129
10741TIP3   OH253637   4.598   3.278   2.860  0.6517 -0.2250  0.1740
10741TIP3    H153638   4.612   3.344   2.928  0.2603 -0.3496  0.3751
10741TIP3    H253639   4.538   3.215   2.899  1.8857 -1.3193  0.4089
10742TIP3   OH253640   4.398   5.947  17.076  0.2739  0.1594 -0.2985
10742TIP3    H153641   4.375   6.039  17.091  2.4277  0.4868  1.4118
10742TIP3    H253642   4.431   5.945  16.987 -2.1755  0.4835 -1.2837
10743TIP3   OH253643   0.705   5.363   2.059  0.1274 -0.4487  0.1988
10743TIP3    H153644   0.620   5.394   2.090  0.6516  0.2805  0.9641
10743TIP3    H253645   0.692   5.269   2.044 -0.9814 -0.2311 -0.3383
10744TIP3   OH253646   5.940   2.370   4.014  0.2092 -0.4219  0.2419
10744TIP3    H153647   5.938   2.463   4.039  2.5043 -0.5257  1.0577
10744TIP3    H253648   5.887   2.366   3.934 -2.0701  1.0925  1.5737
10745TIP3   OH253649   2.994   6.196  16.301  0.3105 -0.2304 -0.0035
10745TIP3    H153650   2.934   6.188  16.375 -1.4753  0.2818 -1.3193
10745TIP3    H253651   3.062   6.131  16.318 -0.9429 -1.2766  1.2653
10746TIP3   OH253652   0.443   2.294  13.697  0.6903 -0.0456 -0.4249
10746TIP3    H153653   0.501   2.348  13.643  0.6570 -0.1861 -0.6027
10746TIP3    H253654   0.357   2.335  13.688  0.9510  0.7839  0.6766
10747TIP3   OH253655   6.586   2.416  11.982  0.2493 -0.2949 -0.2684
10747TIP3    H153656   6.627   2.482  11.925  0.7998  0.8439  1.3907
10747TIP3    H253657   6.657   2.353  12.000  0.3585 -0.1064 -0.0349
10748TIP3   OH253658   3.869   0.077  16.857 -0.3577 -0.1652 -0.3726
10748TIP3    H153659   3.888   0.167  16.882  1.9501 -0.1563 -1.8573
10748TIP3    H253660   3.774   0.076  16.843 -1.0214  1.0561  3.0533
10749TIP3   OH253661   3.030   4.188   0.355 -0.3843  0.3112 -0.0553
10749TIP3    H153662   3.007   4.279   0.340  1.1131  0.9439  1.1386
10749TIP3    H253663   3.013   4.174   0.449 -0.1504 -0.4922 -0.1203
10750TIP3   OH253664   0.336   4.274   6.019 -0.3160  0.5090 -0.3739
10750TIP3    H153665   0.344   4.369   6.025  0.2747  0.6130 -2.0233
10750TIP3    H253666   0.279   4.260   5.943 -0.4895 -0.4590 -0.0784
10751TIP3   OH253667   6.636   5.170   2.836  0.0430  1.1800  0.5194
10751TIP3    H153668   6.610   5.128   2.918  1.8006  1.1069  1.0719
10751TIP3    H253669   6.707   5.228   2.860 -1.4570  3.5781 -0.4657
10752TIP3   OH253670   0.236   3.267   1.471 -0.1131 -0.3398 -0.8451
10752TIP3    H153671   0.265   3.358   1.465  1.4963 -0.7545  0.0875
10752TIP3    H253672   0.284   3.222   1.402 -0.3751 -0.6172 -0.8477
10753TIP3   OH253673   2.098   1.522  11.093 -0.4335 -0.6506  0.3402
10753TIP3    H153674   2.189   1.527  11.065 -0.6654 -0.6510 -0.4380
10753TIP3    H253675   2.075   1.611  11.119 -0.7638 -0.2319 -1.2784
10754TIP3   OH253676   3.052   1.253  14.240 -0.0369 -0.1986 -0.0821
10754TIP3    H153677   3.114   1.241  14.167  0.0175 -1.8052  0.1798
10754TIP3    H253678   3.054   1.169  14.286  1.3286  1.3167  2.9230
10755TIP3   OH253679   1.093   4.629  11.341 -0.2437 -0.1164  0.1087
10755TIP3    H153680   1.103   4.659  11.250  1.3382  1.0954  0.6188
10755TIP3    H253681   1.011   4.669  11.370  0.4471  1.5070 -0.0791
10756TIP3   OH253682   3.443   3.920  13.429 -0.8915 -0.8479 -0.0295
10756TIP3    H153683   3.383   3.873  13.372 -0.9649 -0.5821 -0.1717
10756TIP3    H253684   3.425   3.885  13.517 -2.8342  0.7800  0.2911
10757TIP3   OH253685   2.349   2.489   2.579  0.0331  0.3173  1.0306
10757TIP3    H153686   2.408   2.564   2.588  0.4012  0.1078  0.3862
10757TIP3    H253687   2.337   2.478   2.485 -0.6843  0.0761  1.1436
10758TIP3   OH253688   1.770   5.780   2.166  0.0522  0.4074 -0.0496
10758TIP3    H153689   1.698   5.746   2.220 -0.8008  2.3987  0.1793
10758TIP3    H253690   1.780   5.717   2.095 -0.7691 -0.7758  0.8500
10759TIP3   OH253691   1.701   2.665  14.066 -0.1377 -0.1998 -0.5762
10759TIP3    H153692   1.741   2.662  13.979  0.0978  1.0139 -0.5200
10759TIP3    H253693   1.635   2.733  14.060  2.2997  2.5255  1.1472
10760TIP3   OH253694   5.679   1.657   5.360  0.2700  0.4720  0.4195
10760TIP3    H153695   5.701   1.568   5.335  0.4169  0.7567 -0.5054
10760TIP3    H253696   5.748   1.682   5.422  0.5347  0.1232  0.2717
10761TIP3   OH253697   2.601   5.508  11.849  0.1075  0.4021 -0.0270
10761TIP3    H153698   2.646   5.473  11.926 -1.1226 -0.5973  0.2643
10761TIP3    H253699   2.599   5.602  11.863  0.2140  0.2658  0.9936
10762TIP3   OH253700   1.756   0.198   1.452  0.4032  0.7114  0.5664
10762TIP3    H153701   1.798   0.130   1.400 -1.2859  0.6720 -0.8716
10762TIP3    H253702   1.731   0.156   1.534  2.8180  0.6772  1.3362
10763TIP3   OH253703   5.934   2.237   1.209 -0.3621 -0.1216 -0.3445
10763TIP3    H153704   5.932   2.189   1.126  0.8556 -0.9871  0.0937
10763TIP3    H253705   5.901   2.174   1.274  0.2946 -0.0346  0.0826
10764TIP3   OH253706   0.320   4.507   5.696  0.3545 -0.2673 -0.1094
10764TIP3    H153707   0.292   4.483   5.608  1.0125  1.4951 -0.8703
10764TIP3    H253708   0.264   4.457   5.755 -0.7143 -0.8067 -1.5376
10765TIP3   OH253709   2.044   4.212  15.608 -0.1637 -0.0215 -0.0162
10765TIP3    H153710   2.109   4.221  15.538  0.4686 -5.3058 -0.5726
10765TIP3    H253711   2.095   4.217  15.689 -0.1456  1.5799 -0.0937
10766TIP3   OH253712   4.798   6.443   2.291  0.5952 -0.4829 -0.1915
10766TIP3    H153713   4.825   6.510   2.228  2.5571 -1.2855 -0.2955
10766TIP3    H253714   4.714   6.473   2.325  1.1248  1.7005 -0.6879
10767TIP3   OH253715   1.577   0.448  16.586 -0.1695  0.4295 -0.2739
10767TIP3    H153716   1.517   0.505  16.635  0.9047  0.8729  0.5626
10767TIP3    H253717   1.635   0.508  16.540  1.8616  0.1216  1.6858
10768TIP3   OH253718   5.129   6.463   6.438 -0.0457  0.2076  0.4876
10768TIP3    H153719   5.113   6.524   6.510  2.6574  0.0587  1.3486
10768TIP3    H253720   5.160   6.383   6.480  0.1594 -0.4190 -0.7803
10769TIP3   OH253721   5.638   4.331  15.000 -0.3239  0.3197  0.1392
10769TIP3    H153722   5.716   4.280  15.024 -1.1546 -0.5931  0.9679
10769TIP3    H253723   5.625   4.391  15.073 -0.6785  0.1275  0.2360
10770TIP3   OH253724   3.445   2.941  10.685  0.2639  0.0236  0.0460
10770TIP3    H153725   3.467   2.873  10.749 -1.9330 -0.1644  0.6689
10770TIP3    H253726   3.403   3.010  10.737  0.1136  0.7036 -0.9539
10771TIP3   OH253727   5.524   2.448   0.044  0.2006  0.3816  0.8015
10771TIP3    H153728   5.541   2.530  -0.004 -1.7232 -0.2301 -1.0702
10771TIP3    H253729   5.606   2.399   0.037  1.5224  2.2139  2.2683
10772TIP3   OH253730   5.694   1.050  14.114 -0.2458  0.3598  0.4951
10772TIP3    H153731   5.753   1.023  14.184 -0.2940  1.0357  0.8057
10772TIP3    H253732   5.751   1.091  14.049  0.0579 -1.8832 -0.7510
10773TIP3   OH253733   2.140   5.313  11.589 -0.1744  0.2594  0.0061
10773TIP3    H153734   2.147   5.295  11.496 -1.1501 -0.7449  0.0974
10773TIP3    H253735   2.100   5.400  11.594 -1.2817 -0.1992 -0.5346
10774TIP3   OH253736   5.613   4.450   3.292 -0.2188 -0.1812  0.7608
10774TIP3    H153737   5.605   4.355   3.281  0.4358 -0.1167 -0.4980
10774TIP3    H253738   5.707   4.465   3.301 -0.2403  0.4191  0.0477
10775TIP3   OH253739   3.941   4.508  16.008 -0.6358 -0.1425  0.4171
10775TIP3    H153740   3.990   4.517  16.089 -1.0589  0.3381  0.6328
10775TIP3    H253741   3.897   4.593  15.998  0.0652  0.0934 -0.7485
10776TIP3   OH253742   1.689   3.636   2.003 -0.1968 -0.1436 -0.4803
10776TIP3    H153743   1.778   3.614   2.030 -0.3980  0.0755  0.3936
10776TIP3    H253744   1.695   3.646   1.908  0.6925 -0.2030 -0.4441
10777TIP3   OH253745   5.166   6.671   4.333  0.6376 -0.3947  0.2192
10777TIP3    H153746   5.171   6.765   4.350 -0.0803 -0.3024 -0.0545
10777TIP3    H253747   5.254   6.647   4.305  0.7152  0.2834 -0.1314
10778TIP3   OH253748   5.301   0.197   2.819  0.1082 -0.3654  0.6010
10778TIP3    H153749   5.353   0.256   2.764  0.6617 -2.0429 -0.7699
10778TIP3    H253750   5.231   0.167   2.762 -0.0296 -1.1857  1.1916
10779TIP3   OH253751   1.848   6.432  16.893 -0.1484  0.4045  0.1868
10779TIP3    H153752   1.900   6.352  16.890 -2.1395 -0.9250 -1.3985
10779TIP3    H253753   1.866   6.475  16.809  1.6036  2.1763  1.3824
10780TIP3   OH253754   5.427   2.812   3.219  0.3315  0.1059 -0.2506
10780TIP3    H153755   5.424   2.880   3.152 -0.3947  0.5846  0.2516
10780TIP3    H253756   5.520   2.803   3.240  0.5383  0.1642 -1.0988
10781TIP3   OH253757   2.239   6.581   1.724  0.1509  0.2836  0.1658
10781TIP3    H153758   2.184   6.506   1.748 -0.4258  0.8236  0.5603
10781TIP3    H253759   2.322   6.542   1.698 -0.0687 -0.4827  0.5773
10782TIP3   OH253760   3.450   3.948   6.024 -0.6056 -0.3405  0.1859
10782TIP3    H153761   3.530   3.954   6.076  0.7534  0.3130 -1.8201
10782TIP3    H253762   3.475   3.893   5.949 -2.1437 -0.4045 -0.3082
10783TIP3   OH253763   2.780   0.418   6.561  0.1203 -0.7299  0.4212
10783TIP3    H153764   2.863   0.372   6.576  0.6542  0.5396  1.5444
10783TIP3    H253765   2.805   0.508   6.543 -0.9577 -0.6727 -0.9373
10784TIP3   OH253766   6.621   5.904   0.958 -0.6166 -0.3090 -0.0469
10784TIP3    H153767   6.553   5.903   0.891 -0.2200  1.2233 -0.5141
10784TIP3    H253768   6.646   5.997   0.966 -0.7330 -0.4061  2.3078
10785TIP3   OH253769   6.747   0.496   2.599  0.2613  0.3589  0.2881
10785TIP3    H153770   6.814   0.544   2.648  1.1919 -0.7611  0.1574
10785TIP3    H253771   6.794   0.424   2.558 -1.2092 -1.2597  1.2653
10786TIP3   OH253772   0.040   2.645  12.769  0.0151 -0.7018 -0.5243
10786TIP3    H153773   0.092   2.568  12.791 -1.1776 -1.9466 -1.8613
10786TIP3    H253774  -0.019   2.616  12.699 -1.4818  1.0381 -0.0785
10787TIP3   OH253775   2.693   6.445   1.794 -0.1183  0.1531  0.1205
10787TIP3    H153776   2.663   6.536   1.800 -1.6844 -0.2756 -0.6799
10787TIP3    H253777   2.613   6.395   1.780  0.7184 -1.3718  0.6470
10788TIP3   OH253778   2.584   4.074  15.972 -0.0071 -0.0587  0.3256
10788TIP3    H153779   2.506   4.036  15.931 -1.4880  3.6342 -0.6480
10788TIP3    H253780   2.574   4.054  16.065 -0.7944 -1.7273 -0.0755
10789TIP3   OH253781   3.493   2.228   0.091  0.0689 -0.3940  0.0883
10789TIP3    H153782   3.559   2.250   0.024 -0.0535 -0.1414  0.0469
10789TIP3    H253783   3.518   2.281   0.167 -0.9888  0.9157 -0.4420
10790TIP3   OH253784   6.734   4.122   0.928 -0.1492 -0.1383  0.1465
10790TIP3    H153785   6.756   4.043   0.877  0.4217 -0.8147  1.4060
10790TIP3    H253786   6.819   4.155   0.957 -0.4231  0.7001 -0.0005
10791TIP3   OH253787   5.685   0.821  14.312  0.1332  0.0780  0.1588
10791TIP3    H153788   5.681   0.845  14.219 -0.2550 -0.6774 -0.0332
10791TIP3    H253789   5.713   0.900  14.357 -1.3943  0.9711 -0.4016
10792TIP3   OH253790   0.889   4.617  11.602  0.2627  0.4813 -0.2330
10792TIP3    H153791   0.888   4.670  11.522 -1.3193 -1.0686 -1.3470
10792TIP3    H253792   0.805   4.636  11.644 -1.5694 -2.7949 -1.9804
10793TIP3   OH253793   2.076   0.240   1.675 -0.1701 -0.2566  0.1333
10793TIP3    H153794   2.152   0.290   1.704 -0.9615  1.4987 -0.6538
10793TIP3    H253795   2.032   0.213   1.755  0.1607  0.4903  0.5699
10794TIP3   OH253796   5.904   6.382  15.497 -0.1297  0.2155 -0.0419
10794TIP3    H153797   5.811   6.384  15.517 -0.2983 -0.6369 -0.7080
10794TIP3    H253798   5.933   6.295  15.522  0.3774  0.2950 -0.3371
10795TIP3   OH253799   5.852   1.065  12.062 -0.6499  0.1279  0.1831
10795TIP3    H153800   5.948   1.071  12.066 -0.6483  0.8110 -0.6883
10795TIP3    H253801   5.829   1.105  11.979 -1.7280  0.2985  0.5522
10796TIP3   OH253802   2.915   5.858  17.178 -0.4444 -0.1678  0.1622
10796TIP3    H153803   2.875   5.943  17.196  0.6977  0.5034 -0.3802
10796TIP3    H253804   2.953   5.831  17.262 -0.7354 -0.1072  0.3148
10797TIP3   OH253805   3.425   4.568  15.778 -0.1648  0.4546 -0.0327
10797TIP3    H153806   3.457   4.658  15.786 -0.7892  0.7894 -1.0657
10797TIP3    H253807   3.495   4.514  15.815  0.0967  1.3778  0.8555
10798TIP3   OH253808   1.029   2.348  11.399  0.1452  0.5956 -0.0632
10798TIP3    H153809   1.124   2.345  11.407  0.2205 -0.0062 -1.0306
10798TIP3    H253810   1.006   2.440  11.415  1.2135  1.4568 -2.7886
10799TIP3   OH253811   1.600   1.479   0.090  0.0090 -0.2055  0.0469
10799TIP3    H153812   1.510   1.511   0.101 -0.4847 -0.7991 -1.8698
10799TIP3    H253813   1.646   1.550   0.046  0.7846  0.4700  1.8495
10800TIP3   OH253814   4.787   6.450   2.791 -0.4212  0.0972  0.2725
10800TIP3    H153815   4.786   6.546   2.796 -1.0193  0.1710 -0.9755
10800TIP3    H253816   4.744   6.422   2.872  2.4159  0.7577  2.1842
10801TIP3   OH253817   5.715   1.356  10.526 -0.2821 -0.2018  0.7727
10801TIP3    H153818   5.791   1.378  10.580  0.2142 -0.1499  0.0657
10801TIP3    H253819   5.694   1.437  10.479  0.1180 -0.5897 -0.1001
10802TIP3   OH253820   6.455   0.398  10.778  0.0500  0.0753 -0.5945
10802TIP3    H153821   6.537   0.349  10.773 -0.2460 -0.4367 -0.5123
10802TIP3    H253822   6.475   0.482  10.737 -0.0216 -0.8845 -2.6962
10803TIP3   OH253823   1.947   5.970  13.522 -0.2323  0.1919  0.7948
10803TIP3    H153824   1.986   6.057  13.531 -0.4859  0.3595  0.3240
10803TIP3    H253825   2.019   5.914  13.494 -0.5685  0.8021 -1.5861
10804TIP3   OH253826   3.806   2.784   2.858  0.3363  0.4530  0.1653
10804TIP3    H153827   3.863   2.723   2.904 -0.4995 -0.6331 -0.2072
10804TIP3    H253828   3.852   2.801   2.776 -0.1526 -0.9630 -0.4390
10805TIP3   OH253829   3.678   4.584  13.622  0.3367 -0.4342 -0.2708
10805TIP3    H153830   3.641   4.625  13.544 -0.2306  0.0902  0.2636
10805TIP3    H253831   3.661   4.490  13.610  0.2028 -0.3509 -0.7495
10806TIP3   OH253832   6.114   1.187   1.558 -0.2639  0.0579 -0.4956
10806TIP3    H153833   6.101   1.143   1.474  0.6752 -1.8653  0.3088
10806TIP3    H253834   6.056   1.140   1.619 -0.0960  0.6835  0.1664
10807TIP3   OH253835   0.593   1.638   5.140 -0.2305  0.2102 -0.5704
10807TIP3    H153836   0.580   1.730   5.162  0.4334  0.2630 -0.3858
10807TIP3    H253837   0.672   1.613   5.187 -0.4625 -0.4839 -0.5425
10808TIP3   OH253838   6.272   6.155   2.896 -0.4429  0.0104  0.2528
10808TIP3    H153839   6.316   6.072   2.877 -0.7817 -0.0970 -0.0599
10808TIP3    H253840   6.242   6.146   2.986 -1.6449 -0.7278 -0.2026
10809TIP3   OH253841   2.913   3.494   0.913  0.4571  0.0491  0.0719
10809TIP3    H153842   2.986   3.432   0.924  0.0674 -0.5188 -0.5037
10809TIP3    H253843   2.863   3.486   0.994  0.2952 -0.5436 -0.0804
10810TIP3   OH253844   6.708   5.190   5.845  0.5971  0.2540  0.3855
10810TIP3    H153845   6.710   5.103   5.885  1.9262 -0.8548 -1.8500
10810TIP3    H253846   6.800   5.218   5.844  0.4606  0.7325 -0.7822
10811TIP3   OH253847   5.093   2.469   0.340  0.5032  0.3839  0.0821
10811TIP3    H153848   5.108   2.492   0.432  0.4975 -1.2296  0.5102
10811TIP3    H253849   5.180   2.444   0.307  0.7389  2.0829 -0.7278
10812TIP3   OH253850   1.043   2.658  15.348 -0.1219  0.3104 -0.6501
10812TIP3    H153851   1.090   2.717  15.290 -1.8278  2.3433 -0.0863
10812TIP3    H253852   0.982   2.714  15.396 -0.3699 -1.6104  1.4860
10813TIP3   OH253853   2.877   4.460   3.313 -0.2525 -0.1388  0.1146
10813TIP3    H153854   2.899   4.434   3.403 -0.5683 -0.3446  0.1307
10813TIP3    H253855   2.853   4.379   3.269  0.3634 -0.1161 -0.2948
10814TIP3   OH253856   0.414   1.221  12.506  0.0699  0.1050  0.6010
10814TIP3    H153857   0.319   1.220  12.516  0.0759  0.8345  0.8018
10814TIP3    H253858   0.432   1.159  12.435 -0.5595  0.0389  0.4977
10815TIP3   OH253859   3.505   2.799   5.339  0.2788 -0.7920 -0.0533
10815TIP3    H153860   3.411   2.818   5.340  0.2508 -0.9611  0.5249
10815TIP3    H253861   3.533   2.826   5.252 -0.6697 -2.4839 -0.9535
10816TIP3   OH253862   4.172   4.935   1.485 -0.1249 -0.1745 -0.9330
10816TIP3    H153863   4.108   4.939   1.414  0.1576 -0.0132 -1.1802
10816TIP3    H253864   4.219   4.853   1.471 -0.4941 -0.4551 -0.5601
10817TIP3   OH253865   0.981   1.739  12.142 -0.4994  0.0886 -0.3170
10817TIP3    H153866   0.930   1.815  12.116  0.9179  0.4239 -2.4203
10817TIP3    H253867   0.924   1.690  12.201 -2.2400  1.6942 -0.5860
10818TIP3   OH253868   5.467   2.103   3.358  0.1448  0.1358 -0.0558
10818TIP3    H153869   5.444   2.193   3.334  2.8648  1.4514  1.7747
10818TIP3    H253870   5.527   2.075   3.289  0.3555  0.2508  0.0791
10819TIP3   OH253871   6.497   5.862   3.436 -0.2892 -1.0311  0.1689
10819TIP3    H153872   6.467   5.782   3.480 -0.8024 -0.5070  0.7833
10819TIP3    H253873   6.424   5.923   3.444  0.4001 -0.2151  0.4312
10820TIP3   OH253874   5.129   1.775  11.862 -0.1656 -0.6792  0.2878
10820TIP3    H153875   5.127   1.740  11.951  0.8909 -0.3259  0.4668
10820TIP3    H253876   5.052   1.736  11.819  0.2818 -2.2341  0.8336
10821TIP3   OH253877   0.699   0.825  11.370 -0.5753  0.6716  0.7411
10821TIP3    H153878   0.692   0.744  11.321 -1.1525  1.0042  0.2512
10821TIP3    H253879   0.791   0.849  11.366 -0.6395  0.7889 -0.3571
10822TIP3   OH253880   3.460   0.794   0.081 -0.5597  0.0804  0.0123
10822TIP3    H153881   3.542   0.748   0.098 -0.4139  1.5232  4.1311
10822TIP3    H253882   3.485   0.864   0.021  0.7888 -0.5716 -0.2450
10823TIP3   OH253883   3.748   1.609   4.318 -0.0781  0.2801 -0.1628
10823TIP3    H153884   3.743   1.673   4.247 -1.5219  1.3177  0.8247
10823TIP3    H253885   3.657   1.589   4.339  0.3359 -1.0693  0.4791
10824TIP3   OH253886   0.417   2.611  15.435 -0.1244  0.6576 -0.2886
10824TIP3    H153887   0.453   2.697  15.412  0.7611  0.1620 -0.8155
10824TIP3    H253888   0.477   2.548  15.396  0.3421 -0.2434  1.7398
10825TIP3   OH253889   0.040   3.985  13.891 -0.2161 -0.2867 -0.1449
10825TIP3    H153890  -0.030   4.046  13.867 -1.3041 -0.6374  1.8175
10825TIP3    H253891   0.102   4.038  13.941 -1.2611 -0.7058  1.7339
10826TIP3   OH253892   3.004   0.496  13.521  0.7751  0.0048 -0.2024
10826TIP3    H153893   2.928   0.438  13.514  0.1568  0.5980  1.2096
10826TIP3    H253894   3.046   0.491  13.435 -0.7522 -0.4843 -0.9638
10827TIP3   OH253895   4.845   2.313  16.406 -0.2895  0.1210 -0.3178
10827TIP3    H153896   4.830   2.218  16.410 -1.0846  0.2416 -0.1212
10827TIP3    H253897   4.757   2.350  16.398  0.0011  0.8548 -0.1630
10828TIP3   OH253898   1.765   5.947   3.935 -0.0009  0.6563  0.0928
10828TIP3    H153899   1.675   5.942   3.965 -0.1891  0.7965 -0.4445
10828TIP3    H253900   1.798   5.857   3.944 -0.5624  0.3514 -0.8395
10829TIP3   OH253901   2.718   5.903  14.985  0.0216 -0.0652  0.2722
10829TIP3    H153902   2.658   5.842  15.027  0.2095 -0.3731  0.1043
10829TIP3    H253903   2.741   5.966  15.053 -0.8951  0.3615  0.1965
10830TIP3   OH253904   4.467   6.520  12.997 -0.1814 -0.3821  0.0505
10830TIP3    H153905   4.446   6.443  13.050 -0.3032 -0.1223  0.3788
10830TIP3    H253906   4.517   6.484  12.923 -0.0449 -0.7501  0.3152
10831TIP3   OH253907   0.872   0.278  17.291 -0.0272  0.2070 -0.4437
10831TIP3    H153908   0.855   0.274  17.385  0.5800  0.9618 -0.2927
10831TIP3    H253909   0.786   0.298  17.252 -0.0473  1.1620  0.0640
10832TIP3   OH253910   1.280   5.698   4.855  0.3388 -0.0998 -0.6923
10832TIP3    H153911   1.199   5.659   4.887  0.6064  0.7963  1.1787
10832TIP3    H253912   1.339   5.624   4.840  0.4835 -0.5591  1.7622
10833TIP3   OH253913   0.139   5.015   2.201 -0.0480 -0.1658 -0.1314
10833TIP3    H153914   0.199   4.941   2.202  0.3651  0.1567 -0.5725
10833TIP3    H253915   0.119   5.029   2.108  1.7312  1.7227 -0.3101
10834TIP3   OH253916   1.357   5.935  12.716 -0.1123  0.1319 -0.1545
10834TIP3    H153917   1.263   5.943  12.704 -0.4271 -2.8261 -0.4274
10834TIP3    H253918   1.369   5.926  12.811  0.1501  2.3021  0.0671
10835TIP3   OH253919   5.062   5.526   4.241 -0.2942 -0.4129  0.4430
10835TIP3    H153920   4.966   5.536   4.241 -0.4535 -1.3984 -1.4947
10835TIP3    H253921   5.075   5.433   4.224  1.0152 -0.0517 -0.5822
10836TIP3   OH253922   0.898   3.781   4.684 -0.3235  0.0610  0.3888
10836TIP3    H153923   0.815   3.762   4.640 -0.4103 -0.7865  0.8947
10836TIP3    H253924   0.948   3.700   4.675  0.3745  0.4981  0.2676
10837TIP3   OH253925   4.613   4.713   1.303 -0.3373  0.3349  0.4238
10837TIP3    H153926   4.604   4.809   1.304  0.8062  0.4596  1.6854
10837TIP3    H253927   4.578   4.687   1.218 -2.1456  1.7118  0.6874
10838TIP3   OH253928   4.012   0.730   4.341 -0.3546 -0.1281  0.1515
10838TIP3    H153929   4.035   0.651   4.389  1.4279  1.6096  2.4077
10838TIP3    H253930   4.041   0.713   4.251  1.6167 -1.4227  0.9533
10839TIP3   OH253931   3.081   4.056   6.726  0.2743 -0.2665  0.0469
10839TIP3    H153932   3.137   4.105   6.666  0.1561 -1.4716 -1.1199
10839TIP3    H253933   3.139   4.028   6.797  0.1618  2.2098  1.2020
10840TIP3   OH253934   0.181   3.140   0.776  0.3533 -0.4192  0.2775
10840TIP3    H153935   0.123   3.089   0.719  0.9701  0.4241 -1.1500
10840TIP3    H253936   0.229   3.198   0.717  0.5556  0.9683  1.7168
10841TIP3   OH253937   3.350   5.278  13.625 -0.2013  0.2381 -0.3043
10841TIP3    H153938   3.357   5.356  13.679  0.9052 -0.3137  0.3708
10841TIP3    H253939   3.327   5.312  13.538 -1.1486  1.1888  0.2855
10842TIP3   OH253940   1.766   6.146  11.872 -0.2760  0.0949  0.0246
10842TIP3    H153941   1.834   6.089  11.908 -2.5863 -1.6126  2.0564
10842TIP3    H253942   1.724   6.186  11.949 -3.0028 -0.7115 -0.9131
10843TIP3   OH253943   6.163   2.497   2.911 -0.1153  0.4434  0.2018
10843TIP3    H153944   6.122   2.460   2.989  1.6814 -0.3979  0.8247
10843TIP3    H253945   6.120   2.452   2.838 -1.1250  0.5059  0.7425
10844TIP3   OH253946   2.366   5.284  11.892 -0.2374 -0.4179 -0.5234
10844TIP3    H153947   2.287   5.255  11.936 -0.4559 -1.0435 -1.3074
10844TIP3    H253948   2.437   5.260  11.951 -0.6115  0.0166  0.1150
10845TIP3   OH253949   2.183   1.496   2.568  0.5692  0.1563  0.9571
10845TIP3    H153950   2.208   1.544   2.489 -0.7375 -0.1365  0.3340
10845TIP3    H253951   2.098   1.533   2.592  1.0410  0.3782  2.3611
10846TIP3   OH253952   5.862   5.856   1.989 -0.0646 -0.7154 -0.1707
10846TIP3    H153953   5.873   5.940   1.945 -0.5928  0.5536  1.9546
10846TIP3    H253954   5.861   5.791   1.919  0.8957  0.9896 -1.8304
10847TIP3   OH253955   2.645   1.702  12.687 -0.6595  0.2677  0.9593
10847TIP3    H153956   2.636   1.718  12.593  0.3844  0.5852  0.9044
10847TIP3    H253957   2.731   1.661  12.696  0.2854  2.3329  1.9931
10848TIP3   OH253958   3.137   3.344   3.904  0.5826  0.1704  0.7625
10848TIP3    H153959   3.048   3.356   3.936  0.5841 -1.5807  1.5153
10848TIP3    H253960   3.153   3.422   3.849 -0.8314  1.2645  1.8157
10849TIP3   OH253961   1.338   5.101   5.673 -0.6455 -0.6951  0.4571
10849TIP3    H153962   1.391   5.107   5.593  0.3382  2.0959  1.2072
10849TIP3    H253963   1.403   5.103   5.744 -1.6028  1.8719  1.3767
10850TIP3   OH253964   1.304   1.632  13.301 -0.4937 -0.3119  0.1944
10850TIP3    H153965   1.291   1.700  13.235 -0.1619  0.3464  0.7901
10850TIP3    H253966   1.220   1.624  13.344 -0.0276  1.1553  1.4447
10851TIP3   OH253967   3.721   5.765   3.422 -0.1343  0.1993  0.3639
10851TIP3    H153968   3.645   5.820   3.400 -0.5386 -0.1282  0.9100
10851TIP3    H253969   3.695   5.719   3.501  0.6359  0.0598  0.5428
10852TIP3   OH253970   2.656   5.623  15.871  0.5703  0.7031 -0.1520
10852TIP3    H153971   2.606   5.696  15.834  2.9101  2.7664  0.4786
10852TIP3    H253972   2.664   5.561  15.799 -1.9886  0.6973 -0.5439
10853TIP3   OH253973   4.438   6.209   2.982 -0.2720  0.5129  0.1055
10853TIP3    H153974   4.416   6.151   2.909 -0.0240 -0.6885  0.9452
10853TIP3    H253975   4.426   6.155   3.060  0.8502  1.3162  0.8682
10854TIP3   OH253976   6.239   2.745   2.269  0.6585 -0.5815 -0.3502
10854TIP3    H153977   6.200   2.691   2.200 -0.4846 -1.4309  0.9064
10854TIP3    H253978   6.311   2.693   2.304  0.0756 -0.9639  0.3085
10855TIP3   OH253979   3.112   2.758   2.997  0.1729  0.3073 -0.0850
10855TIP3    H153980   3.099   2.666   2.974 -3.0247  0.3825  0.8740
10855TIP3    H253981   3.133   2.801   2.915 -2.4388 -0.7247 -1.4174
10856TIP3   OH253982   5.011   3.255   0.859 -0.3604 -0.4828 -0.0673
10856TIP3    H153983   4.974   3.307   0.788  0.8723  0.1295 -0.2972
10856TIP3    H253984   5.025   3.168   0.820 -1.0300 -0.5601 -0.1370
10857TIP3   OH253985   0.044   1.143  11.927 -0.1751 -0.0229 -0.2442
10857TIP3    H153986   0.119   1.111  11.976 -0.5380  1.0511  1.0701
10857TIP3    H253987   0.014   1.219  11.976 -1.3157  0.3641 -1.4773
10858TIP3   OH253988   1.764   5.317   5.440 -0.1878  0.2027  0.2861
10858TIP3    H153989   1.796   5.361   5.519  3.0723  0.9621 -1.2826
10858TIP3    H253990   1.813   5.234   5.437 -0.4255  0.0891 -0.8008
10859TIP3   OH253991   2.759   6.088  11.428  0.4531  0.4768  0.1197
10859TIP3    H153992   2.784   6.153  11.493  0.1987  0.1521  0.5468
10859TIP3    H253993   2.767   6.133  11.344  0.8646  0.8740  0.3681
10860TIP3   OH253994   4.669   2.322  13.406 -0.0472  0.0419  0.2308
10860TIP3    H153995   4.597   2.383  13.395 -0.3644 -0.0208  1.7726
10860TIP3    H253996   4.703   2.340  13.494  0.8642 -0.9290  0.1016
10861TIP3   OH253997   0.691   6.050   4.043 -0.2646  0.4036  0.1725
10861TIP3    H153998   0.713   6.019   3.955 -0.1787  1.2615 -0.1205
10861TIP3    H253999   0.603   6.016   4.059  0.2685 -0.9526  0.3398
10862TIP3   OH254000   2.197   4.030  10.699  0.1346 -0.3241  0.0585
10862TIP3    H154001   2.257   3.983  10.757  1.9376  0.3308 -1.1588
10862TIP3    H254002   2.255   4.084  10.644 -1.6353  0.8355 -0.7695
10863TIP3   OH254003   3.807   1.862  13.660 -0.1723 -0.1405  1.0243
10863TIP3    H154004   3.878   1.817  13.707  0.1944  0.9455  1.5486
10863TIP3    H254005   3.728   1.836  13.708  0.2304  1.1865  2.4713
10864TIP3   OH254006   6.057   1.542   5.128  0.1796  0.2075 -0.0376
10864TIP3    H154007   6.030   1.628   5.097  0.7220  0.0468 -0.9992
10864TIP3    H254008   6.114   1.508   5.058  1.7431 -0.0300  1.2773
10865TIP3   OH254009   0.031   6.485   2.023 -0.3752 -0.0462  0.3168
10865TIP3    H154010   0.100   6.551   2.017 -1.6956  1.2904 -0.6555
10865TIP3    H254011   0.046   6.443   2.108  1.1344  0.7680  0.4853
10866TIP3   OH254012   0.810   4.941  15.547 -0.0527  0.0155  0.1129
10866TIP3    H154013   0.775   4.903  15.628  0.6515  0.6519  0.7403
10866TIP3    H254014   0.902   4.958  15.566  0.2727 -0.3825 -1.0444
10867TIP3   OH254015   3.992   1.865  16.787 -0.4832 -0.5124 -0.0736
10867TIP3    H154016   4.064   1.803  16.803  0.4044  0.1406 -1.3718
10867TIP3    H254017   4.030   1.931  16.729 -2.6115 -1.0964 -2.3007
10868TIP3   OH254018   6.248   1.639   1.507  0.5502 -0.8135  0.0323
10868TIP3    H154019   6.291   1.705   1.562  0.4339 -0.8087  0.1173
10868TIP3    H254020   6.225   1.686   1.427 -0.9266 -0.3461  0.6974
10869TIP3   OH254021   3.882   5.613   4.665 -0.6996  0.0871 -0.1411
10869TIP3    H154022   3.846   5.693   4.627 -1.1406 -0.7422 -1.5160
10869TIP3    H254023   3.889   5.633   4.759 -0.6214  1.7856 -0.4798
10870TIP3   OH254024   2.123   5.094  12.748 -0.4518 -0.0486 -0.8072
10870TIP3    H154025   2.185   5.031  12.784  0.5885  1.1216 -0.4669
10870TIP3    H254026   2.175   5.174  12.735 -2.0820  1.2699  0.3684
10871TIP3   OH254027   3.996   0.155   5.646 -0.4365  0.4325  0.1062
10871TIP3    H154028   4.037   0.078   5.685 -0.2819 -0.4987 -1.8046
10871TIP3    H254029   3.944   0.193   5.718 -1.4841 -2.1229  0.8211
10872TIP3   OH254030   1.797   5.075   0.481 -0.0056 -0.7797 -0.6823
10872TIP3    H154031   1.855   5.001   0.501 -0.0568 -0.6890 -0.1808
10872TIP3    H254032   1.848   5.153   0.504 -1.2877 -0.7534  2.5552
10873TIP3   OH254033   1.632   1.521  15.310 -0.1915  0.0027 -0.7570
10873TIP3    H154034   1.620   1.457  15.380 -2.7303  2.8812  1.7400
10873TIP3    H254035   1.564   1.500  15.246 -1.1903  0.2720  0.1791
10874TIP3   OH254036   4.474   5.192   5.883  0.0121  0.3398  0.2953
10874TIP3    H154037   4.531   5.152   5.817  0.4363  0.1466  0.7716
10874TIP3    H254038   4.534   5.221   5.952 -0.2787  1.7330  0.0041
10875TIP3   OH254039   1.079   1.388  13.266 -0.4065  0.3690 -0.0673
10875TIP3    H154040   1.045   1.476  13.285  4.1345  2.4807 -0.3121
10875TIP3    H254041   1.115   1.396  13.177  0.3997 -1.6212  0.0426
10876TIP3   OH254042   5.909   1.166   2.597 -0.1571  0.5442  0.4164
10876TIP3    H154043   5.932   1.074   2.581 -2.7859 -0.0981 -0.2828
10876TIP3    H254044   5.929   1.210   2.515  0.0905  0.3646  0.3782
10877TIP3   OH254045   4.594   4.452  11.149 -0.3085  0.0945 -0.7100
10877TIP3    H154046   4.684   4.432  11.120  0.0493 -1.5204  1.3310
10877TIP3    H254047   4.539   4.397  11.094  0.1056 -0.4055 -0.6353
10878TIP3   OH254048   0.966   2.345  13.965  0.2799 -0.1220 -0.1644
10878TIP3    H154049   0.979   2.288  13.889  1.0117 -1.9950  1.2741
10878TIP3    H254050   0.944   2.285  14.036 -3.1717  1.7595  0.5900
10879TIP3   OH254051   1.274   3.697  13.235 -0.2739  0.3110  0.8801
10879TIP3    H154052   1.271   3.737  13.322 -0.5609  0.1882  0.9260
10879TIP3    H254053   1.360   3.722  13.201 -0.1791  0.4011  1.1784
10880TIP3   OH254054   1.621   4.504  16.358 -0.0167 -0.3348  0.7045
10880TIP3    H154055   1.687   4.449  16.315 -0.5264 -0.7766  0.4688
10880TIP3    H254056   1.636   4.592  16.323 -0.1034 -0.5932 -0.0125
10881TIP3   OH254057   2.082   2.097   2.791  0.3552  0.1251 -0.2463
10881TIP3    H154058   2.110   2.013   2.754 -0.6729  0.0058 -0.7870
10881TIP3    H254059   2.098   2.160   2.720 -2.6849 -0.2793 -1.4159
10882TIP3   OH254060   3.996   1.019   3.600 -0.5596  0.0429 -0.5280
10882TIP3    H154061   3.988   1.106   3.561 -0.5565  0.8983  1.3228
10882TIP3    H254062   3.968   1.029   3.690  1.0992 -1.4917  0.2227
10883TIP3   OH254063   5.564   4.705   4.906  0.6811  0.3356 -0.3475
10883TIP3    H154064   5.530   4.618   4.924  2.7255 -0.7602 -1.4778
10883TIP3    H254065   5.486   4.762   4.906 -1.0209 -1.8484 -2.0059
10884TIP3   OH254066   2.310   4.159   3.877 -0.4137 -0.1135  0.0028
10884TIP3    H154067   2.292   4.191   3.789  0.9312 -1.1138 -0.6503
10884TIP3    H254068   2.277   4.069   3.878  0.3936 -0.4107  0.2361
10885TIP3   OH254069   6.612   3.322  13.488  0.0044 -0.3185 -0.2689
10885TIP3    H154070   6.587   3.270  13.411 -1.6414 -0.4319  0.2937
10885TIP3    H254071   6.539   3.382  13.500  2.0864  2.6433 -1.2498
10886TIP3   OH254072   1.331   0.606  14.631  0.0223 -0.6078 -0.2156
10886TIP3    H154073   1.387   0.645  14.564  0.5544 -0.6218  0.2080
10886TIP3    H254074   1.337   0.668  14.705  1.3073 -1.7220  0.6702
10887TIP3   OH254075   1.782   0.004  13.465 -0.2426 -0.1535  0.2049
10887TIP3    H154076   1.728   0.004  13.386  0.1054  0.2517 -0.0398
10887TIP3    H254077   1.763  -0.079  13.507 -1.4533  0.2087  0.4051
10888TIP3   OH254078   0.023   2.986   5.350 -0.0967  0.0196 -0.4901
10888TIP3    H154079  -0.038   2.915   5.365  0.2075  0.0430  0.9483
10888TIP3    H254080  -0.029   3.066   5.362 -0.1278  0.0438 -0.7744
10889TIP3   OH254081   2.701   2.658  13.726 -0.5012 -0.0021 -0.4103
10889TIP3    H154082   2.753   2.734  13.698  0.6045 -0.9341 -0.9878
10889TIP3    H254083   2.638   2.693  13.789  3.0574  0.7713  3.1606
10890TIP3   OH254084   1.862   6.442  13.268 -0.2127  0.2255 -0.3470
10890TIP3    H154085   1.834   6.474  13.354 -0.8655  1.6021 -1.0336
10890TIP3    H254086   1.782   6.406  13.229 -0.8487  2.8044 -1.7169
10891TIP3   OH254087   3.000   4.541  12.282 -0.1313  0.0738  0.1820
10891TIP3    H154088   3.033   4.451  12.275 -1.9745 -0.5901 -0.8397
10891TIP3    H254089   2.947   4.541  12.362 -1.0988 -0.1331 -0.4341
10892TIP3   OH254090   1.875   5.073  12.885  0.6207  0.3123 -0.0376
10892TIP3    H154091   1.810   5.090  12.817 -0.0951  0.2223  0.6082
10892TIP3    H254092   1.959   5.069  12.838  0.1710  0.4844 -0.8734
10893TIP3   OH254093   1.039   0.675   1.841 -0.2367 -0.2406 -0.4029
10893TIP3    H154094   1.057   0.751   1.785  1.4350  0.0746  0.4999
10893TIP3    H254095   1.116   0.668   1.898 -2.0550 -0.2518  2.2332
10894TIP3   OH254096   1.127   0.902   2.422  0.6458  0.5288  0.4271
10894TIP3    H154097   1.147   0.989   2.457  1.0513  0.5316  0.1921
10894TIP3    H254098   1.046   0.913   2.373  1.6846  1.1948 -1.1932
10895TIP3   OH254099   5.534   2.099   4.185 -0.0500  0.0708  0.0093
10895TIP3    H154100   5.533   2.082   4.279  2.7891 -1.6903 -0.1546
10895TIP3    H254101   5.583   2.180   4.175 -0.9875  0.6523  0.0630
10896TIP3   OH254102   4.124   1.564   0.140  0.3120  0.4186 -0.2030
10896TIP3    H154103   4.124   1.481   0.092  0.2880  2.1840 -3.4972
10896TIP3    H254104   4.036   1.569   0.180 -0.0917 -0.6220 -0.9268
10897TIP3   OH254105   0.714   6.402   2.552 -0.3177  0.3894  0.1552
10897TIP3    H154106   0.796   6.445   2.525 -0.1161  0.3074  0.6300
10897TIP3    H254107   0.698   6.337   2.484 -0.5485  1.1111 -0.4987
10898TIP3   OH254108   5.001   5.044   3.266  0.3276 -0.0864 -0.1419
10898TIP3    H154109   4.907   5.044   3.285  0.4966  0.1895  0.7096
10898TIP3    H254110   5.042   5.070   3.348  1.1955 -0.9052 -0.3116
10899TIP3   OH254111   4.083   2.063   4.499  0.3534  0.0929  0.1340
10899TIP3    H154112   4.141   2.120   4.448 -0.3722  0.4487 -0.3098
10899TIP3    H254113   4.001   2.112   4.505 -0.0440 -0.5956  0.3664
10900TIP3   OH254114   3.589   5.782  14.971  0.2325 -0.0075 -0.3963
10900TIP3    H154115   3.628   5.695  14.962  0.4850 -0.0054  0.5148
10900TIP3    H254116   3.627   5.816  15.052 -0.9317  0.3942 -0.0105
10901TIP3   OH254117   2.727   2.476  13.152  0.1418  0.0182 -0.5578
10901TIP3    H154118   2.720   2.493  13.059 -0.1431 -1.3013 -0.8018
10901TIP3    H254119   2.785   2.544  13.185  0.4575  0.3420 -1.7472
10902TIP3   OH254120   2.942   0.539  16.383  0.4751  0.2532  0.1757
10902TIP3    H154121   2.910   0.566  16.469  1.1097  0.2548  0.4197
10902TIP3    H254122   2.870   0.488  16.345  0.4303 -0.2960  0.9694
10903TIP3   OH254123   1.536   2.723   0.916 -0.4414 -0.0204 -0.1649
10903TIP3    H154124   1.511   2.634   0.890 -0.4011 -0.3421  0.8257
10903TIP3    H254125   1.629   2.716   0.938 -0.8007 -0.1359  1.4640
10904TIP3   OH254126   6.189   1.821   2.423 -0.4889 -0.2984  0.3356
10904TIP3    H154127   6.163   1.733   2.452 -0.7722 -0.7895 -1.3489
10904TIP3    H254128   6.225   1.808   2.336 -1.1921  1.3532 -0.2272
10905TIP3   OH254129   1.797   3.149  14.065 -0.1232  0.3014 -0.1836
10905TIP3    H154130   1.834   3.154  14.153 -0.1558  0.7585 -0.1958
10905TIP3    H254131   1.724   3.088  14.072  0.3482 -0.2510 -0.0567
10906TIP3   OH254132   6.704   1.231  17.051 -0.6375 -0.5309  0.3279
10906TIP3    H154133   6.629   1.173  17.039 -0.9604 -0.3898  1.5110
10906TIP3    H254134   6.781   1.173  17.043 -0.7929 -0.5031 -1.8840
10907TIP3   OH254135   4.844   3.456  17.120 -0.4879 -0.5220  0.7267
10907TIP3    H154136   4.806   3.543  17.134 -0.9752 -0.7213  0.6303
10907TIP3    H254137   4.849   3.417  17.207  1.1392  0.1763  0.9900
10908TIP3   OH254138   4.741   0.608  12.395 -0.4134  0.3221 -0.4585
10908TIP3    H154139   4.708   0.691  12.361  0.4009  0.7316 -0.2897
10908TIP3    H254140   4.809   0.634  12.457 -0.0651 -0.4783 -0.4993
10909TIP3   OH254141   3.788   2.614   3.601  0.3708  0.1902  0.3954
10909TIP3    H154142   3.742   2.696   3.620 -0.2099 -0.4201  1.8326
10909TIP3    H254143   3.826   2.627   3.514 -0.7473  1.5118  0.0644
10910TIP3   OH254144   6.059   0.131   5.651 -0.0109 -0.3701  0.0612
10910TIP3    H154145   6.115   0.204   5.679 -0.7526  0.2631 -0.0703
10910TIP3    H254146   5.984   0.173   5.608 -0.4342 -1.2132 -0.0506
10911TIP3   OH254147   6.303   1.576  14.220  0.2452  0.6652  0.6383
10911TIP3    H154148   6.367   1.611  14.158  0.4129 -2.5766 -1.2453
10911TIP3    H254149   6.357   1.542  14.292  0.3832  0.7799  0.5901
10912TIP3   OH254150   2.315   4.194   3.620  0.2417 -0.1523 -0.2753
10912TIP3    H154151   2.373   4.118   3.626 -1.5973 -1.6843 -1.1368
10912TIP3    H254152   2.369   4.267   3.652  1.8499 -1.8928  1.2187
10913TIP3   OH254153   5.432   5.263  16.029 -0.5751  0.4260 -0.2224
10913TIP3    H154154   5.456   5.175  16.000  2.7183  0.8235  0.8821
10913TIP3    H254155   5.345   5.278  15.991 -0.1581 -2.2859 -2.5852
10914TIP3   OH254156   0.548   0.589   3.685  0.5067  0.1776  0.2879
10914TIP3    H154157   0.571   0.591   3.778  0.1331  1.1307  0.3756
10914TIP3    H254158   0.481   0.522   3.678  0.6046  0.0348  0.6947
10915TIP3   OH254159   3.167   1.985  14.520  0.4663 -1.0974  0.6349
10915TIP3    H154160   3.091   1.929  14.504  0.3665 -0.8406  0.1801
10915TIP3    H254161   3.171   2.042  14.443  0.0374  0.1184  1.4673
10916TIP3   OH254162   3.608   5.910  15.933 -0.7176 -0.0512 -0.5183
10916TIP3    H154163   3.526   5.959  15.934 -0.1092  0.9846 -0.8807
10916TIP3    H254164   3.662   5.951  16.000  0.0641  0.2505 -1.3172
10917TIP3   OH254165   4.158   5.653   4.164 -0.0323  0.2717  0.5212
10917TIP3    H154166   4.103   5.576   4.177 -0.1426  0.0509 -1.0555
10917TIP3    H254167   4.117   5.722   4.216 -0.8682 -0.3211  0.6474
10918TIP3   OH254168   4.228   0.704  10.914 -1.0151  0.4434  0.4135
10918TIP3    H154169   4.288   0.696  10.840  1.8921  0.5255  2.5735
10918TIP3    H254170   4.184   0.788  10.900 -1.0156  0.1605 -1.5025
10919TIP3   OH254171   1.009   4.045   5.885  0.5227 -0.0856 -0.2470
10919TIP3    H154172   0.984   3.979   5.950 -0.0104  0.3377 -0.0069
10919TIP3    H254173   1.100   4.025   5.863 -0.0633 -1.7861 -1.2792
10920TIP3   OH254174   4.869   4.836  17.104 -0.3898  0.3213  0.1244
10920TIP3    H154175   4.778   4.864  17.100 -0.3817  0.5431  1.2242
10920TIP3    H254176   4.919   4.917  17.096 -0.2229  0.0870 -1.8049
10921TIP3   OH254177   3.990   3.083  17.119 -0.3057 -0.2698  0.6362
10921TIP3    H154178   3.935   3.100  17.195  0.2594  2.8592  0.4627
10921TIP3    H254179   4.005   3.169  17.079  0.7117 -1.5845 -2.1319
10922TIP3   OH254180   1.428   5.358  14.460  0.1438  0.1617 -0.3750
10922TIP3    H154181   1.417   5.412  14.382  2.4556  0.6364 -0.4494
10922TIP3    H254182   1.418   5.268  14.428 -0.3755  0.4101 -0.9251
10923TIP3   OH254183   2.046   0.904   1.523 -0.4524 -0.4039  0.0233
10923TIP3    H154184   1.986   0.883   1.452  0.9760 -0.4104 -1.2297
10923TIP3    H254185   2.075   0.993   1.504  1.1447 -0.9606 -0.3294
10924TIP3   OH254186   0.329   1.844  16.554 -0.1220 -0.7404 -0.1738
10924TIP3    H154187   0.283   1.823  16.635 -0.6208 -0.4806 -0.3889
10924TIP3    H254188   0.294   1.784  16.489 -1.7488  0.8632 -0.8527
10925TIP3   OH254189   1.405   3.327  14.824  0.5702 -0.1928 -0.0408
10925TIP3    H154190   1.486   3.285  14.793  0.2561 -0.4499 -0.5170
10925TIP3    H254191   1.356   3.348  14.745  0.6740  1.0113  0.1933
10926TIP3   OH254192   5.946   3.758   3.249 -0.2498 -0.0916 -0.1961
10926TIP3    H154193   6.023   3.813   3.266 -0.3579 -0.4818  1.7255
10926TIP3    H254194   5.895   3.762   3.329 -0.5135 -2.5832 -0.1714
10927TIP3   OH254195   0.376   4.468   4.866 -0.1813  0.4827 -0.2273
10927TIP3    H154196   0.397   4.491   4.776 -1.2881  1.1805 -0.3352
10927TIP3    H254197   0.288   4.430   4.861  0.0913 -0.2728  0.4564
10928TIP3   OH254198   3.720   3.270   3.537 -0.5686  0.5505  0.4292
10928TIP3    H154199   3.716   3.244   3.629 -1.5604  0.6829  0.4405
10928TIP3    H254200   3.787   3.338   3.533  3.9108 -3.3915  0.0034
10929TIP3   OH254201   6.095   0.120  12.767  0.1919 -0.1219 -0.5003
10929TIP3    H154202   6.133   0.039  12.732 -1.5298 -0.4683 -1.7095
10929TIP3    H254203   6.135   0.190  12.715  3.6044  0.1891  2.1759
10930TIP3   OH254204   4.082   5.038   2.003  0.1736 -0.1561 -0.3888
10930TIP3    H154205   4.086   4.963   2.063  1.6889 -0.1112 -0.3802
10930TIP3    H254206   4.129   5.009   1.924 -0.1769  0.4066 -0.8158
10931TIP3   OH254207   3.256   6.389   2.488 -0.4712  0.2007  0.3291
10931TIP3    H154208   3.278   6.411   2.579  2.2221  1.5809 -0.5459
10931TIP3    H254209   3.319   6.320   2.464 -0.8295  0.1971 -0.6419
10932TIP3   OH254210   0.312   0.452   3.756 -0.0137 -0.2627 -0.5470
10932TIP3    H154211   0.299   0.462   3.850  0.4881 -0.5099 -0.4518
10932TIP3    H254212   0.223   0.456   3.719 -0.2971 -1.0766  0.0219
10933TIP3   OH254213   5.796   2.342   2.929  0.2693 -0.0552 -0.2675
10933TIP3    H154214   5.830   2.266   2.882  0.5740 -0.8228  1.1339
10933TIP3    H254215   5.713   2.363   2.884 -0.3971 -1.9312  0.0174
10934TIP3   OH254216   1.390   3.402   3.882  0.2613  0.0692 -0.8314
10934TIP3    H154217   1.444   3.386   3.804 -1.0867  1.7553 -2.1940
10934TIP3    H254218   1.323   3.334   3.879  0.3440 -0.0053 -1.0317
10935TIP3   OH254219   6.438   2.989  11.544  0.4272  0.6896  0.2067
10935TIP3    H154220   6.524   2.970  11.581  0.2050  0.5609  0.6720
10935TIP3    H254221   6.378   2.932  11.592  0.0074  1.1925  0.2883
10936TIP3   OH254222   3.521   3.453  17.211 -0.3071  0.7116  0.8958
10936TIP3    H154223   3.484   3.375  17.170  1.7439  1.0292 -1.8942
10936TIP3    H254224   3.546   3.425  17.299  0.1911 -1.7630  0.0538
10937TIP3   OH254225   6.616   2.749   1.084 -0.3385  0.0467  0.2723
10937TIP3    H154226   6.604   2.660   1.119 -0.8228 -0.2744 -0.6741
10937TIP3    H254227   6.709   2.753   1.062 -0.3587 -0.3113  0.1110
10938TIP3   OH254228   2.065   3.236   4.002  0.1709 -0.3652 -0.0393
10938TIP3    H154229   1.998   3.264   3.940  1.5775  1.8952 -0.6296
10938TIP3    H254230   2.067   3.141   3.994 -1.4472 -0.3151 -1.5622
10939TIP3   OH254231   5.613   0.123   3.395  0.5898  0.0874 -0.5363
10939TIP3    H154232   5.680   0.060   3.421 -0.2572 -0.1310  1.2243
10939TIP3    H254233   5.585   0.094   3.309  0.7664 -1.4877 -0.0887
10940TIP3   OH254234   6.369   0.386   0.463 -0.4939 -0.2215 -0.1492
10940TIP3    H154235   6.391   0.447   0.533  0.5252 -1.1597  0.3734
10940TIP3    H254236   6.427   0.411   0.391 -0.0446 -0.6027  0.0805
10941TIP3   OH254237   4.001   4.668   4.673  0.3913  0.2133  0.0543
10941TIP3    H154238   4.026   4.631   4.588  0.4727  3.2670 -1.3729
10941TIP3    H254239   4.050   4.750   4.680 -0.0399  0.3435  2.8315
10942TIP3   OH254240   2.782   0.120   1.771 -0.4331 -0.2433 -0.3051
10942TIP3    H154241   2.776   0.041   1.825 -2.3486  0.1488  0.1313
10942TIP3    H254242   2.694   0.130   1.735 -0.0889  1.4312 -0.7310
10943TIP3   OH254243   4.108   3.536  16.675  0.0123  0.0153  0.2592
10943TIP3    H154244   4.101   3.574  16.588 -2.8855 -1.6518 -0.3552
10943TIP3    H254245   4.020   3.541  16.711  0.8456 -0.5679  2.5731
10944TIP3   OH254246   6.087   2.293   1.711 -0.2708 -0.4699 -0.0775
10944TIP3    H154247   6.064   2.382   1.739  1.9465 -0.0114  0.4296
10944TIP3    H254248   6.023   2.237   1.755  0.0446  0.6542  1.9308
10945TIP3   OH254249   4.108   1.014   5.784 -0.3620 -0.2831 -0.0263
10945TIP3    H154250   4.040   0.965   5.830  0.7934 -2.5079 -0.5515
10945TIP3    H254251   4.164   1.049   5.853 -0.1345 -1.3512  0.3423
10946TIP3   OH254252   5.091   6.079   0.034 -0.0831  0.1044  0.4620
10946TIP3    H154253   5.029   6.035  -0.023 -0.9191  1.5849  0.1615
10946TIP3    H254254   5.041   6.097   0.114  0.0387  0.9901  0.3525
10947TIP3   OH254255   6.390   0.770   3.316 -0.0479  0.3834 -0.3381
10947TIP3    H154256   6.326   0.702   3.333  0.7890 -0.6162 -1.0732
10947TIP3    H254257   6.404   0.812   3.401 -0.9703  0.0060  0.0097
10948TIP3   OH254258   5.926   6.439   0.319 -0.3027  0.1422 -0.3129
10948TIP3    H154259   5.978   6.396   0.252  0.1410 -0.4180  0.3777
10948TIP3    H254260   5.840   6.397   0.314  0.0394 -0.6308  0.1587
10949TIP3   OH254261   5.253   6.256  12.286  0.1338 -0.1133  0.6463
10949TIP3    H154262   5.303   6.179  12.256  0.4494 -0.3562  1.7493
10949TIP3    H254263   5.166   6.221  12.307  0.8681 -0.6204  3.1216
10950TIP3   OH254264   3.835   4.870   1.734  0.5697  0.1322 -0.0654
10950TIP3    H154265   3.898   4.939   1.757 -0.1844  1.2451 -1.1754
10950TIP3    H254266   3.872   4.829   1.656  1.0748 -0.8310  0.6622
10951TIP3   OH254267   5.461   4.807   6.825  0.2386  0.0987  0.9962
10951TIP3    H154268   5.418   4.890   6.844  0.3481  0.4986 -0.3670
10951TIP3    H254269   5.396   4.757   6.775  0.4504 -0.3227  1.1380
10952TIP3   OH254270   2.355   1.668   5.743 -0.0228  0.2121 -0.0254
10952TIP3    H154271   2.349   1.587   5.693 -0.1905  0.2556 -0.0789
10952TIP3    H254272   2.299   1.653   5.820 -1.0389  0.7060 -0.6372
10953TIP3   OH254273   0.323   4.180  12.598 -0.2417 -0.1945  0.3406
10953TIP3    H154274   0.305   4.160  12.690  0.0529 -1.3300  0.1635
10953TIP3    H254275   0.271   4.258  12.580  1.4612  1.4485  2.1038
10954TIP3   OH254276   6.551   3.993  13.589 -0.1267 -0.1991  0.1346
10954TIP3    H154277   6.582   4.034  13.508 -0.0503  2.3940  1.3507
10954TIP3    H254278   6.458   3.976  13.574 -0.2051  0.6272 -0.3986
10955TIP3   OH254279   2.630   5.227  11.088  0.3353  1.1076  0.3513
10955TIP3    H154280   2.569   5.213  11.161 -0.2435 -0.7503 -0.4417
10955TIP3    H254281   2.579   5.274  11.022 -0.3074 -0.4436 -0.3114
10956TIP3   OH254282   6.334   6.409  10.742 -0.2027  0.1969  0.3237
10956TIP3    H154283   6.278   6.482  10.719 -0.6238 -0.3408 -0.3972
10956TIP3    H254284   6.369   6.378  10.658  0.1411 -0.2902  0.6409
10957TIP3   OH254285   2.917   2.399   1.713  0.0405  0.0041  0.4577
10957TIP3    H154286   2.939   2.325   1.657 -1.8125  1.5544 -2.6479
10957TIP3    H254287   2.900   2.361   1.799  2.9045 -2.5684  0.0267
10958TIP3   OH254288   4.406   0.015  16.395  0.2644  1.1407 -0.5751
10958TIP3    H154289   4.327  -0.018  16.351  2.0223 -4.1805 -0.4160
10958TIP3    H254290   4.465   0.037  16.324  0.6679 -0.8437 -0.9275
10959TIP3   OH254291   5.473   4.824  14.424 -0.2417 -0.4900  0.0687
10959TIP3    H154292   5.419   4.767  14.479 -1.4215 -1.3386 -1.8542
10959TIP3    H254293   5.421   4.904  14.415 -0.0625 -0.3614  0.1893
10960TIP3   OH254294   3.280   4.337  13.279 -0.0080 -0.8133 -0.1137
10960TIP3    H154295   3.305   4.367  13.191 -0.4368 -3.3040 -1.1955
10960TIP3    H254296   3.216   4.401  13.309  1.4640  1.0891 -0.8080
10961TIP3   OH254297   1.906   6.334   5.108 -0.7633  0.4176  0.0923
10961TIP3    H154298   1.992   6.337   5.150 -0.8070  0.1522  0.1992
10961TIP3    H254299   1.867   6.419   5.129 -0.4157  0.6517 -0.1960
10962TIP3   OH254300   2.187   6.589   3.371  0.1976  0.8534 -0.2243
10962TIP3    H154301   2.107   6.545   3.400  0.2702  1.1743  0.4799
10962TIP3    H254302   2.217   6.639   3.447  2.3507 -1.0695  0.3179
10963TIP3   OH254303   6.126   2.948   2.756 -0.4056 -0.5733 -0.0530
10963TIP3    H154304   6.150   2.885   2.687 -1.0005 -1.3467  0.4274
10963TIP3    H254305   6.039   2.978   2.731 -0.0634  0.1818 -0.3568
10964TIP3   OH254306   0.479   4.898  12.649  0.6797 -0.3006  0.5868
10964TIP3    H154307   0.458   4.921  12.558 -1.6098  0.7989  1.3301
10964TIP3    H254308   0.477   4.802  12.649 -1.2405 -0.3087 -0.1585
10965TIP3   OH254309   3.814   6.005  15.485 -0.0509  0.6037  0.5623
10965TIP3    H154310   3.902   6.036  15.506  0.1545  0.2343  0.2553
10965TIP3    H254311   3.797   6.038  15.397 -0.6194  1.5167  0.9900
10966TIP3   OH254312   5.585   3.961  15.685  0.4997  0.4534 -0.1877
10966TIP3    H154313   5.574   3.957  15.780  2.0458  0.9370  0.0398
10966TIP3    H254314   5.517   4.023  15.656 -0.8592 -0.7067  0.4036
10967TIP3   OH254315   0.181   5.436   2.630 -0.3670  0.0173  0.5363
10967TIP3    H154316   0.230   5.460   2.708 -1.4398 -0.1769  1.2890
10967TIP3    H254317   0.242   5.385   2.577  0.3361  0.0643  1.2903
10968TIP3   OH254318   6.352   0.906   5.551  0.3382 -0.8867 -0.1597
10968TIP3    H154319   6.386   0.949   5.472  0.2499 -0.6698 -0.0806
10968TIP3    H254320   6.308   0.976   5.599  0.1978 -1.0660 -0.0266
10969TIP3   OH254321   1.133   0.114  15.985 -0.4264 -0.1255 -0.0149
10969TIP3    H154322   1.142   0.024  15.954  0.4951 -0.2330  0.5430
10969TIP3    H254323   1.047   0.142  15.952  0.2439 -0.4203 -2.1346
10970TIP3   OH254324   6.549   4.751  11.199  0.1600  0.2115 -0.4423
10970TIP3    H154325   6.576   4.778  11.111 -0.5046 -0.0280 -0.7220
10970TIP3    H254326   6.560   4.656  11.200 -0.7006  0.1044 -0.5739
10971TIP3   OH254327   4.309   1.495  12.974 -0.6782 -0.3187 -0.6637
10971TIP3    H154328   4.340   1.425  13.032 -1.2140  1.8743  2.5336
10971TIP3    H254329   4.389   1.540  12.946 -0.4708 -0.6884 -0.6801
10972TIP3   OH254330   0.858   4.859  13.235  0.7012 -0.9249  0.4187
10972TIP3    H154331   0.913   4.877  13.311  0.9088  1.5803 -0.2463
10972TIP3    H254332   0.769   4.872  13.266  0.7587 -0.3650  0.3495
10973TIP3   OH254333   5.637   6.598   2.724 -0.3160 -0.5762 -0.1748
10973TIP3    H154334   5.594   6.553   2.651 -0.4878 -1.9730  0.7511
10973TIP3    H254335   5.728   6.606   2.696 -1.0075  2.2559 -2.0846
10974TIP3   OH254336   4.992   3.273   1.788  0.0677 -0.2189 -0.1227
10974TIP3    H154337   5.072   3.302   1.745 -0.1892  2.7842  1.2067
10974TIP3    H254338   4.926   3.276   1.719  0.7924 -1.5978 -0.9424
10975TIP3   OH254339   2.136   1.918  17.379  0.3384 -0.1629 -0.7692
10975TIP3    H154340   2.092   1.935  17.296 -1.3183 -0.0869  0.0893
10975TIP3    H254341   2.091   1.973  17.442  2.6225  1.0207 -0.0485
10976TIP3   OH254342   3.313   1.514   1.368 -0.1111 -0.0119  0.4473
10976TIP3    H154343   3.328   1.434   1.318 -3.3492 -1.0780  0.9603
10976TIP3    H254344   3.221   1.534   1.355 -0.5935  0.9302  4.1286
10977TIP3   OH254345   3.260   4.463  14.217  0.3271 -0.9753  0.1677
10977TIP3    H154346   3.292   4.550  14.239  0.4803 -1.1158  0.5027
10977TIP3    H254347   3.308   4.439  14.138  1.4205 -1.3868  0.9389
10978TIP3   OH254348   0.946   6.595   2.082  0.3253  0.2751  0.0841
10978TIP3    H154349   0.894   6.675   2.092 -0.8088 -0.4935  0.5788
10978TIP3    H254350   1.034   6.621   2.108  0.2809  1.6820 -1.0321
10979TIP3   OH254351   6.154   5.634   4.404  0.5396 -0.4036 -0.1037
10979TIP3    H154352   6.184   5.588   4.483  0.6304  1.6617  1.1472
10979TIP3    H254353   6.060   5.618   4.402  0.6503 -1.1274 -0.0475
10980TIP3   OH254354   6.119   1.342   2.349 -0.2561 -0.2415  0.0593
10980TIP3    H154355   6.058   1.311   2.282 -0.4266  0.6686 -0.2281
10980TIP3    H254356   6.199   1.291   2.335  0.8655  2.0390 -2.9607
10981TIP3   OH254357   1.180   6.626  13.975  0.1871 -0.0117 -0.1609
10981TIP3    H154358   1.202   6.608  14.066 -0.8578 -1.9117 -0.2253
10981TIP3    H254359   1.114   6.560  13.953 -1.4826  2.0044 -1.5540
10982TIP3   OH254360   3.978   5.232   0.938  0.3397 -0.2065 -0.3400
10982TIP3    H154361   3.929   5.154   0.914 -2.0472  0.4179  2.0820
10982TIP3    H254362   4.042   5.201   1.003 -0.0668 -0.2788  0.0283
10983TIP3   OH254363   0.568   2.695  11.353  0.3923 -0.5234 -0.0677
10983TIP3    H154364   0.475   2.712  11.369  0.7078  0.6710  0.6150
10983TIP3    H254365   0.591   2.754  11.282  1.0819  0.6710  1.1074
10984TIP3   OH254366   5.202   4.832   3.985 -0.7054 -0.3283 -1.0355
10984TIP3    H154367   5.115   4.858   4.014 -0.5755 -1.0294  0.0269
10984TIP3    H254368   5.195   4.738   3.967  0.0671 -0.6187  0.0560
10985TIP3   OH254369   6.536   3.746   3.661 -0.1197 -0.1137 -0.6809
10985TIP3    H154370   6.537   3.826   3.714 -0.9746 -0.0381 -0.7614
10985TIP3    H254371   6.628   3.722   3.652  0.0480 -0.5487  1.4892
10986TIP3   OH254372   0.966   3.235   6.060  0.4437 -0.1463 -0.4809
10986TIP3    H154373   0.887   3.182   6.073  1.1968 -0.9091  1.2920
10986TIP3    H254374   0.934   3.325   6.059 -0.3960 -0.4066  0.8600
10987TIP3   OH254375   0.331   1.027  15.050  0.1250  0.0538 -0.2604
10987TIP3    H154376   0.321   1.006  15.142  0.7770  0.6662 -0.0393
10987TIP3    H254377   0.246   1.007  15.011  0.0011 -0.6890  0.3728
10988TIP3   OH254378   2.369   3.806   1.421  0.2164 -0.0530  0.4579
10988TIP3    H154379   2.366   3.901   1.407  0.9361 -0.0907  0.0071
10988TIP3    H254380   2.435   3.794   1.489 -0.6256 -0.1644  1.2866
10989TIP3   OH254381   2.783   3.240   3.059  0.3466 -0.0251  0.0624
10989TIP3    H154382   2.815   3.313   3.112 -0.4044  1.2213 -1.1367
10989TIP3    H254383   2.859   3.185   3.045  1.1654  1.0489  0.1668
10990TIP3   OH254384   3.338   0.838   4.502  0.0630  0.2867 -0.3344
10990TIP3    H154385   3.317   0.926   4.469 -0.0271  0.7496  0.8907
10990TIP3    H254386   3.264   0.816   4.560  1.0450  0.2862  0.9720
10991TIP3   OH254387   6.186   2.754   3.661 -0.3377 -0.0073  0.2923
10991TIP3    H154388   6.127   2.716   3.726  1.2119 -0.0366  1.7428
10991TIP3    H254389   6.252   2.801   3.712  0.3182  0.9134 -1.3070
10992TIP3   OH254390   1.373   2.010  11.358 -0.2097 -0.1360  0.2418
10992TIP3    H154391   1.297   2.009  11.416 -0.2640  0.3519  0.1840
10992TIP3    H254392   1.336   2.000  11.270 -0.2188  0.2422  0.2029
10993TIP3   OH254393   5.910   1.915   4.545  0.2053  0.4511  0.4850
10993TIP3    H154394   5.817   1.910   4.570 -0.0515  0.2639 -0.4583
10993TIP3    H254395   5.915   1.867   4.462  0.8142  1.8720 -0.3472
10994TIP3   OH254396   3.075   2.238   3.721 -0.0412 -0.4143  0.1693
10994TIP3    H154397   3.053   2.245   3.814  0.4152 -0.5159  0.2841
10994TIP3    H254398   3.058   2.326   3.686 -0.5158 -0.4566  0.2766
10995TIP3   OH254399   3.582   1.685  15.634  0.1315  0.0823 -0.3754
10995TIP3    H154400   3.507   1.729  15.594 -0.0772  0.5442  0.4921
10995TIP3    H254401   3.643   1.669  15.562  0.1998  1.7674 -0.7297
10996TIP3   OH254402   1.200   3.524  12.239 -0.2054  0.0789  0.3498
10996TIP3    H154403   1.128   3.468  12.211 -1.3224  1.5874  0.1186
10996TIP3    H254404   1.229   3.568  12.159  2.0320 -1.5867  0.1289
10997TIP3   OH254405   6.300   3.272   1.824  0.1770  0.3716 -0.6044
10997TIP3    H154406   6.289   3.361   1.858  0.5097 -0.1037  0.7954
10997TIP3    H254407   6.316   3.284   1.730  1.1775  1.8524 -0.2803
10998TIP3   OH254408   5.562   6.409   2.970 -0.4566 -0.1858  0.0450
10998TIP3    H154409   5.572   6.489   2.919 -1.4885 -0.7543 -1.0857
10998TIP3    H254410   5.644   6.361   2.955 -0.1730  0.2819  0.0699
10999TIP3   OH254411   1.703   5.302   2.113  0.3925 -0.3741 -1.1042
10999TIP3    H154412   1.725   5.318   2.204  1.4356  0.6613 -1.5111
10999TIP3    H254413   1.786   5.313   2.066 -0.8383  3.6211 -2.7076
11000TIP3   OH254414   4.123   0.947   2.444  0.3439  0.5956 -0.2616
11000TIP3    H154415   4.051   0.910   2.494  0.0552  1.1629 -0.2481
11000TIP3    H254416   4.200   0.935   2.500  0.5679 -1.4011 -0.9181
11001TIP3   OH254417   1.842   0.106   1.040 -0.3431 -0.3462  0.2261
11001TIP3    H154418   1.918   0.129   0.987 -0.9758  2.1027  0.2764
11001TIP3    H254419   1.879   0.064   1.118  0.9993  1.0833  0.4067
11002TIP3   OH254420   0.203   2.445  15.439  0.3504  0.4170  0.0905
11002TIP3    H154421   0.191   2.415  15.529 -0.3789  0.3246 -0.0276
11002TIP3    H254422   0.286   2.492  15.440  0.4225  0.2867  0.7766
11003TIP3   OH254423   5.730   0.080  11.277  0.0041 -0.1808 -0.0536
11003TIP3    H154424   5.715   0.032  11.358  1.4775 -1.5038 -0.5161
11003TIP3    H254425   5.772   0.161  11.305  0.8631 -0.7979  0.4928
11004TIP3   OH254426   2.301   6.674  14.483 -0.5751  0.4931  0.8223
11004TIP3    H154427   2.303   6.728  14.404 -1.2233  0.0836  0.5134
11004TIP3    H254428   2.349   6.725  14.549 -0.5325  1.0976  0.3335
11005TIP3   OH254429   3.549   2.776  17.116  0.1742 -0.1554  0.1341
11005TIP3    H154430   3.473   2.833  17.108 -0.1749 -0.7084 -0.6649
11005TIP3    H254431   3.623   2.829  17.085 -0.1909 -0.2249 -0.8755
11006TIP3   OH254432   1.437   4.162   2.234  0.9502 -0.5103 -0.2387
11006TIP3    H154433   1.344   4.140   2.245  0.5676  1.3503  0.6901
11006TIP3    H254434   1.483   4.090   2.278 -0.1759 -0.1312  1.7119
11007TIP3   OH254435   0.374   6.411  11.836  0.7142  0.1181 -0.1524
11007TIP3    H154436   0.422   6.491  11.858  0.5283  0.0763  0.4115
11007TIP3    H254437   0.371   6.411  11.740 -0.3425  1.4356 -0.1551
11008TIP3   OH254438   5.453   2.903   1.370 -0.2853 -0.1382  0.0911
11008TIP3    H154439   5.456   2.857   1.286  0.3794  0.6774 -0.3511
11008TIP3    H254440   5.500   2.846   1.431  0.8425  0.1058 -0.5357
11009TIP3   OH254441   0.665   0.102  15.607 -0.4692 -0.8718  0.1027
11009TIP3    H154442   0.711   0.051  15.673 -1.0337 -1.4997  0.0260
11009TIP3    H254443   0.669   0.192  15.638 -1.0654 -1.2041  1.2001
11010TIP3   OH254444   3.061   0.857   6.279  0.0114 -0.7385  0.2117
11010TIP3    H154445   3.114   0.778   6.266 -0.8911 -1.1206 -1.3830
11010TIP3    H254446   3.115   0.928   6.244  0.8059 -0.6060  1.6087
11011TIP3   OH254447   6.664   6.314  11.946 -0.4493  0.0902 -0.0000
11011TIP3    H154448   6.739   6.356  11.987 -0.7927  0.2056  0.5242
11011TIP3    H254449   6.595   6.320  12.011 -0.8001 -0.3719 -0.3213
11012TIP3   OH254450   0.707   1.742  15.404 -0.2238  0.0687  0.6957
11012TIP3    H154451   0.665   1.776  15.325  0.4344  1.6984  1.0165
11012TIP3    H254452   0.683   1.649  15.405 -0.0578 -0.0573 -1.5201
11013TIP3   OH254453   0.527   6.240  11.979  0.2115 -0.5979  0.4070
11013TIP3    H154454   0.478   6.309  11.937  1.1322  1.1255  1.9985
11013TIP3    H254455   0.545   6.273  12.067  1.4524 -2.4867  0.9412
11014TIP3   OH254456   5.729   4.814  16.069 -0.2039 -0.7440 -0.1607
11014TIP3    H154457   5.805   4.861  16.103  0.1525 -0.4549 -1.3259
11014TIP3    H254458   5.742   4.812  15.975 -1.9741 -0.0879 -0.4578
11015TIP3   OH254459   4.869   5.037   5.208 -0.4399  0.0664  0.2802
11015TIP3    H154460   4.794   4.980   5.188 -0.4023  0.6756 -1.8528
11015TIP3    H254461   4.887   5.081   5.126  0.4257  2.1428  1.5207
11016TIP3   OH254462   4.874   1.569  12.938 -0.5377 -0.3944  0.4581
11016TIP3    H154463   4.906   1.659  12.933 -2.3953  0.2587 -0.8747
11016TIP3    H254464   4.942   1.517  12.895  0.2541  0.4483  0.6592
11017TIP3   OH254465   0.793   4.866   3.560  0.3435 -0.2444  0.7138
11017TIP3    H154466   0.826   4.827   3.479 -2.1218 -0.0189 -0.4834
11017TIP3    H254467   0.737   4.938   3.532 -1.4714 -0.8359  2.5511
11018TIP3   OH254468   5.499   4.250  16.572 -0.3933 -0.4890 -0.2428
11018TIP3    H154469   5.517   4.203  16.491 -0.5149  1.4535 -1.4428
11018TIP3    H254470   5.578   4.236  16.625  0.0607 -1.0619 -1.0430
11019TIP3   OH254471   1.668   5.629  11.636 -0.0396  0.0645  0.1651
11019TIP3    H154472   1.678   5.724  11.641 -1.7173  0.2252  1.2864
11019TIP3    H254473   1.610   5.614  11.562 -0.4664 -0.0116  0.5119
11020TIP3   OH254474   1.812   4.656   4.810  0.3709  0.4554  0.3224
11020TIP3    H154475   1.903   4.675   4.834  0.1210  0.5076  1.2576
11020TIP3    H254476   1.803   4.562   4.827  0.5983  0.1893 -0.9557
11021TIP3   OH254477   2.266   4.611   4.531  0.3030 -0.0354  0.3476
11021TIP3    H154478   2.284   4.560   4.451  0.5423 -0.8778  0.9241
11021TIP3    H254479   2.277   4.548   4.602  0.6312  0.8432  1.0882
11022TIP3   OH254480   5.929   0.163   0.687 -0.2065  0.2481 -0.5349
11022TIP3    H154481   5.940   0.175   0.593 -1.7293 -1.4306 -0.9833
11022TIP3    H254482   5.845   0.205   0.707  0.7436  1.8108  0.3821
11023TIP3   OH254483   5.710   5.098   2.669 -0.1545  0.1206  0.1811
11023TIP3    H154484   5.730   5.190   2.653 -1.2876  0.4222  0.3638
11023TIP3    H254485   5.737   5.082   2.760 -2.5374  1.0935  1.1440
11024TIP3   OH254486   4.838   6.004   4.675 -0.2887 -0.1590  0.1317
11024TIP3    H154487   4.874   5.944   4.741 -1.3161 -0.1172  0.7417
11024TIP3    H254488   4.791   6.070   4.725  1.9683  2.0172 -0.4169
11025TIP3   OH254489   6.174   1.946   1.796  0.2321 -0.0985  0.0223
11025TIP3    H154490   6.229   2.002   1.741 -0.9347 -1.1213 -2.3383
11025TIP3    H254491   6.118   2.007   1.844  0.3283  0.8299 -1.0051
11026TIP3   OH254492   5.355   6.041   0.031  0.8416 -0.3784  0.0151
11026TIP3    H154493   5.260   6.052   0.030  0.7158 -1.3807 -0.3612
11026TIP3    H254494   5.370   5.960  -0.018  1.8514 -0.5054  0.5157
11027TIP3   OH254495   6.436   2.195  12.110  0.0921 -0.5211  0.3111
11027TIP3    H154496   6.349   2.224  12.137 -1.4243 -2.1019 -2.4714
11027TIP3    H254497   6.475   2.271  12.067  1.1785  0.9355  3.5350
11028TIP3   OH254498   6.363   2.798  10.469 -0.0003 -0.3271  0.4863
11028TIP3    H154499   6.357   2.704  10.449 -0.6255 -0.0136 -0.8900
11028TIP3    H254500   6.438   2.829  10.418  1.0713 -0.3215  2.0124
11029TIP3   OH254501   6.233   0.553   2.283  0.6186  0.0079  0.1071
11029TIP3    H154502   6.326   0.536   2.296  0.4553 -0.6917  0.4526
11029TIP3    H254503   6.217   0.637   2.325  0.8738 -0.4143  1.0749
11030TIP3   OH254504   1.399   1.103   3.681  0.0783 -0.1866 -0.5111
11030TIP3    H154505   1.313   1.069   3.705  0.3870  0.9587  2.7051
11030TIP3    H254506   1.382   1.189   3.642 -0.2430 -0.2878 -0.5974
11031TIP3   OH254507   0.040   3.067  14.854 -0.0171 -0.2494 -0.2640
11031TIP3    H154508   0.049   2.973  14.867  0.1504 -0.3167 -0.8346
11031TIP3    H254509   0.026   3.078  14.760  0.0698  0.3027 -0.2201
11032TIP3   OH254510   0.110   3.296   3.875  0.6009  0.0460 -0.1888
11032TIP3    H154511   0.069   3.231   3.819 -1.0159  0.7545  0.1266
11032TIP3    H254512   0.037   3.348   3.910  1.7448  1.1900  0.6002
11033TIP3   OH254513   3.483   0.745  12.381 -0.4610  0.0886  0.1088
11033TIP3    H154514   3.449   0.719  12.466  0.6191  1.8931  1.1568
11033TIP3    H254515   3.532   0.826  12.398  1.2100 -0.3958 -1.9211
11034TIP3   OH254516   5.505   6.325  11.956 -0.6789  0.3405 -0.0394
11034TIP3    H154517   5.492   6.367  11.870  0.3231  2.1197  0.6162
11034TIP3    H254518   5.464   6.385  12.018  0.2499  0.0460  0.8860
11035TIP3   OH254519   2.716   5.747  16.994 -0.0667 -0.0619 -0.2147
11035TIP3    H154520   2.772   5.797  17.054 -0.5475 -0.3327  0.4716
11035TIP3    H254521   2.686   5.673  17.045 -0.8600 -0.0521 -0.6501
11036TIP3   OH254522   0.736   5.520   4.846 -0.4920  0.6561  0.4588
11036TIP3    H154523   0.685   5.469   4.784  0.5163 -0.3876  0.4566
11036TIP3    H254524   0.675   5.540   4.917 -1.0753  0.0341  0.1364
11037TIP3   OH254525   1.382   5.705   0.088  0.0155 -0.3740 -0.2739
11037TIP3    H154526   1.335   5.757   0.153  0.8097  1.5915 -1.1713
11037TIP3    H254527   1.471   5.740   0.088  0.2419 -0.8394 -1.8462
11038TIP3   OH254528   3.934   0.550  14.597 -0.1162  0.8207  0.2964
11038TIP3    H154529   3.973   0.604  14.529  0.5874 -0.6494 -0.4952
11038TIP3    H254530   3.847   0.588  14.611 -0.0774  1.4479 -1.0508
11039TIP3   OH254531   3.559   0.589   2.001 -0.0628 -0.0155  0.0613
11039TIP3    H154532   3.548   0.620   2.092  0.1519 -1.3589  0.5616
11039TIP3    H254533   3.530   0.663   1.948  0.9871  1.2679  1.2056
11040TIP3   OH254534   5.118   0.216   4.878  0.0195 -0.1288 -0.1291
11040TIP3    H154535   5.135   0.179   4.792  0.0034  1.4356 -0.8359
11040TIP3    H254536   5.203   0.248   4.907 -0.1181  0.0135  0.1201
11041TIP3   OH254537   6.296   1.798   3.538  0.0648 -0.6547  0.3184
11041TIP3    H154538   6.210   1.826   3.506 -0.5681  0.0248  2.4778
11041TIP3    H254539   6.348   1.878   3.541 -0.2118 -0.5119  1.8874
11042TIP3   OH254540   3.782   1.639   0.581 -0.4606  0.2326  0.0075
11042TIP3    H154541   3.759   1.711   0.639 -1.6098  0.9243 -1.2531
11042TIP3    H254542   3.859   1.670   0.534  0.4640 -0.3233  1.0940
11043TIP3   OH254543   1.854   3.749  15.043 -0.0240  0.1288  0.4721
11043TIP3    H154544   1.774   3.782  15.001  0.1968  2.5986  1.8090
11043TIP3    H254545   1.850   3.782  15.132  2.8941  1.1757  0.3329
11044TIP3   OH254546   1.569   4.568  11.042 -0.1469  0.1681 -0.6490
11044TIP3    H154547   1.630   4.627  10.999 -0.1048  0.4078 -0.2626
11044TIP3    H254548   1.619   4.487  11.055 -0.2533 -0.0085 -1.3140
11045TIP3   OH254549   0.859   0.130   0.185 -0.2149 -0.0657 -0.2365
11045TIP3    H154550   0.907   0.069   0.239 -1.2563 -2.1338 -1.5120
11045TIP3    H254551   0.923   0.197   0.161  1.2825 -1.2348  0.3265
11046TIP3   OH254552   5.970   4.580  15.231  0.3934  0.3748 -0.3858
11046TIP3    H154553   6.056   4.539  15.218  1.8328  2.8497  0.6591
11046TIP3    H254554   5.953   4.624  15.148  1.1915  1.6192  0.0809
11047TIP3   OH254555   3.805   6.557  17.365 -0.4301  0.4436  0.8302
11047TIP3    H154556   3.869   6.622  17.335 -0.9387  0.3449 -0.5458
11047TIP3    H254557   3.765   6.597  17.443  0.1088  1.2521  0.7001
11048TIP3   OH254558   0.119   2.513  12.363  0.1742  0.1767  0.2665
11048TIP3    H154559   0.069   2.446  12.316  0.2134 -0.2578  0.8505
11048TIP3    H254560   0.057   2.587  12.370  0.0117  0.0747 -0.0462
11049TIP3   OH254561   2.984   5.428   2.292 -0.4340  0.0988 -0.2216
11049TIP3    H154562   2.908   5.384   2.330  0.9789 -0.3263  2.3328
11049TIP3    H254563   3.019   5.482   2.362  1.0434  1.0961 -1.6355
11050TIP3   OH254564   6.061   0.028  11.445  0.5880  0.2138  0.5334
11050TIP3    H154565   6.137  -0.003  11.494  3.6346 -0.1353 -3.8321
11050TIP3    H254566   6.013  -0.052  11.424  1.3851 -0.1157 -0.1122
11051TIP3   OH254567   4.690   1.807  16.483  0.1645 -0.5167 -0.6146
11051TIP3    H154568   4.715   1.724  16.442 -0.4944 -1.0040 -0.0516
11051TIP3    H254569   4.743   1.810  16.563 -1.2882 -1.4062  0.4262
11052TIP3   OH254570   5.633   4.249   0.611  0.0026 -0.8071  0.7530
11052TIP3    H154571   5.722   4.219   0.626  0.4596 -0.1255 -0.4534
11052TIP3    H254572   5.577   4.182   0.650  1.0332 -0.7850  2.3724
11053TIP3   OH254573   5.952   6.383   1.217 -0.2860  0.0419 -0.1160
11053TIP3    H154574   5.943   6.356   1.308 -0.5185  4.1287  1.2304
11053TIP3    H254575   5.864   6.376   1.180 -0.5641  0.1159  0.5273
11054TIP3   OH254576   3.741   5.446  13.205 -0.3554 -0.4104  0.4560
11054TIP3    H154577   3.710   5.376  13.263  1.6623 -0.1007  1.9954
11054TIP3    H254578   3.824   5.413  13.170 -0.6215  0.2094 -0.8157
11055TIP3   OH254579   5.075   6.084  11.312 -0.1764 -0.1973 -0.0699
11055TIP3    H154580   5.068   6.179  11.325  0.3911 -0.1009 -0.4212
11055TIP3    H254581   5.108   6.075  11.223 -2.7946 -0.8011 -1.0736
11056TIP3   OH254582   0.557   3.325  15.777 -0.2312 -0.7051 -0.6941
11056TIP3    H154583   0.501   3.391  15.817  0.3358 -0.5323 -0.1625
11056TIP3    H254584   0.508   3.293  15.701 -1.6271 -1.5293  0.5177
11057TIP3   OH254585   6.293   4.576   6.137  0.0390 -0.4716  1.0556
11057TIP3    H154586   6.306   4.667   6.110  0.1808 -1.2983 -1.9813
11057TIP3    H254587   6.315   4.576   6.230  2.2714  2.1711  0.6661
11058TIP3   OH254588   3.330   2.319   2.577 -0.3841  0.0036 -0.1010
11058TIP3    H154589   3.420   2.289   2.570 -0.1881  0.8324 -1.5895
11058TIP3    H254590   3.336   2.402   2.625 -0.1064  0.9630 -1.7335
11059TIP3   OH254591   4.493   1.387   2.188  0.1290 -0.1182  0.2251
11059TIP3    H154592   4.482   1.442   2.111 -2.1294 -0.4591  0.2454
11059TIP3    H254593   4.503   1.298   2.154  0.5697 -0.0952  0.2899
11060TIP3   OH254594   5.865   3.685  15.052 -0.3624  0.0057 -0.2117
11060TIP3    H154595   5.813   3.616  15.092 -0.5868 -0.1308 -0.7358
11060TIP3    H254596   5.862   3.757  15.116  1.9670 -1.3079  1.5468
11061TIP3   OH254597   5.212   1.905  12.595  0.7755 -0.5428 -0.3601
11061TIP3    H154598   5.181   1.994  12.583 -0.4142 -1.0734 -1.3228
11061TIP3    H254599   5.189   1.884  12.686 -1.7204 -0.8956 -1.0041
11062TIP3   OH254600   6.481   0.697   4.271 -0.1478  0.0417 -0.4137
11062TIP3    H154601   6.400   0.722   4.314  0.3436 -0.1731  0.6783
11062TIP3    H254602   6.524   0.638   4.333  1.8164  1.7744 -0.0052
11063TIP3   OH254603   5.851   0.307   5.841  0.7173 -0.0348  0.1503
11063TIP3    H154604   5.891   0.359   5.771 -1.7840 -0.4056 -1.6762
11063TIP3    H254605   5.889   0.344   5.922  2.9087  1.1075 -1.2904
11064TIP3   OH254606   1.300   0.276   6.140 -0.2095  0.6703  0.0877
11064TIP3    H154607   1.299   0.183   6.119  1.2290  0.5786  0.2803
11064TIP3    H254608   1.314   0.279   6.235 -3.6878  1.1004  0.7280
11065TIP3   OH254609   5.163   4.096  14.915 -0.1220  0.6426  1.1106
11065TIP3    H154610   5.075   4.092  14.877  1.1032  0.3225 -2.0208
11065TIP3    H254611   5.209   4.161  14.862  2.6623 -2.1951 -0.3056
11066TIP3   OH254612   0.515   2.343   2.871  0.1184  0.4547  0.0622
11066TIP3    H154613   0.431   2.358   2.912 -0.3236  0.8625 -0.9529
11066TIP3    H254614   0.555   2.272   2.922  0.3976  2.1367  2.3045
11067TIP3   OH254615   6.356   4.356  15.894  0.3020 -0.4895 -0.6953
11067TIP3    H154616   6.287   4.343  15.829 -0.1778 -1.6645  0.0052
11067TIP3    H254617   6.336   4.441  15.934 -0.9783 -0.9632 -0.2598
11068TIP3   OH254618   3.655   4.079  11.276 -0.3735  0.0278  0.0766
11068TIP3    H154619   3.584   4.048  11.333  0.6157  0.4598  1.5953
11068TIP3    H254620   3.731   4.085  11.333  0.6546  0.5528 -1.2924
11069TIP3   OH254621   1.235   5.033   4.340 -0.2467 -0.3272  0.2802
11069TIP3    H154622   1.312   4.979   4.355  0.4110 -0.3123 -2.5196
11069TIP3    H254623   1.176   4.978   4.288  0.3085  1.4025 -2.3841
11070TIP3   OH254624   1.153   6.596   4.015  0.1149 -0.2891 -0.2472
11070TIP3    H154625   1.188   6.682   3.996  1.2595 -0.2779  1.6649
11070TIP3    H254626   1.216   6.535   3.977  0.5787 -0.2547  0.4348
11071TIP3   OH254627   3.258   2.460   0.083  1.3611  0.5555 -0.0706
11071TIP3    H154628   3.334   2.405   0.063  1.4612  0.5201  0.4099
11071TIP3    H254629   3.220   2.421   0.161  0.3634  0.0797 -0.7741
11072TIP3   OH254630   5.239   3.576  16.674  0.2742 -0.3280 -0.2835
11072TIP3    H154631   5.231   3.506  16.740  0.5884  2.4475  2.9829
11072TIP3    H254632   5.318   3.553  16.625  2.1576 -0.8516  2.7200
11073TIP3   OH254633   0.914   4.382   1.482 -0.1628  0.5609  0.0681
11073TIP3    H154634   0.869   4.301   1.458 -0.0332  0.7826 -0.9718
11073TIP3    H254635   0.897   4.392   1.576  0.6548 -1.1836  0.4432
11074TIP3   OH254636   0.793   0.970   5.048 -0.0702  0.0414 -0.5785
11074TIP3    H154637   0.847   1.019   4.987 -1.1022  0.3961 -1.2454
11074TIP3    H254638   0.855   0.921   5.102  0.9077  0.6823 -1.0933
11075TIP3   OH254639   5.651   0.619  13.621 -0.1585  0.6008  0.0033
11075TIP3    H154640   5.570   0.669  13.608  0.5549  1.3521 -1.9195
11075TIP3    H254641   5.650   0.554  13.551  0.7586  0.4264  0.1455
11076TIP3   OH254642   3.828   6.651   2.113  0.1702  0.2746  0.2795
11076TIP3    H154643   3.759   6.603   2.068 -0.3410  0.1357  1.1841
11076TIP3    H254644   3.900   6.587   2.122  0.5750  0.5313 -0.9897
11077TIP3   OH254645   0.225   0.135  13.074 -0.9835  0.3389 -0.6122
11077TIP3    H154646   0.160   0.196  13.109 -2.2206 -0.3586 -1.5750
11077TIP3    H254647   0.275   0.186  13.011  0.1276  1.1569  0.8966
11078TIP3   OH254648   3.998   1.189   6.196 -0.0163  0.4870  0.3985
11078TIP3    H154649   3.959   1.212   6.281 -0.0376  1.8714  0.0323
11078TIP3    H254650   4.030   1.100   6.208 -0.0785  0.6402  1.8426
11079TIP3   OH254651   6.393   5.879  11.547  0.0415  0.0097 -0.3564
11079TIP3    H154652   6.483   5.853  11.570  0.3087  0.7484 -0.5257
11079TIP3    H254653   6.392   5.879  11.451  0.1814  1.0453 -0.3621
11080TIP3   OH254654   4.721   6.241   4.783  0.0143 -0.6321  0.8144
11080TIP3    H154655   4.773   6.315   4.755 -0.0903 -0.9587 -0.3163
11080TIP3    H254656   4.637   6.279   4.810  1.0112 -0.0259  3.3404
11081TIP3   OH254657   6.203   2.028  11.769  0.1284  0.1323  0.1416
11081TIP3    H154658   6.125   2.053  11.720 -0.6918 -0.1622  1.2620
11081TIP3    H254659   6.253   1.973  11.708  0.7955  2.4515 -1.5234
11082TIP3   OH254660   0.174   3.758   2.398  0.3366 -0.0949 -0.0494
11082TIP3    H154661   0.200   3.673   2.362 -1.6996 -0.5752 -0.5617
11082TIP3    H254662   0.112   3.735   2.468 -0.5988  0.9443 -0.5089
11083TIP3   OH254663   3.605   3.590   3.572  0.2692  0.1245 -0.5059
11083TIP3    H154664   3.529   3.544   3.608 -0.2743  1.4737  0.1347
11083TIP3    H254665   3.632   3.650   3.642 -0.0292  1.9052 -1.8497
11084TIP3   OH254666   3.256   0.232  11.170  0.1644  0.3816 -0.3463
11084TIP3    H154667   3.334   0.213  11.222 -0.8884 -0.7551  0.8981
11084TIP3    H254668   3.227   0.317  11.201 -1.0525 -0.7308  1.8165
11085TIP3   OH254669   3.960   3.649   4.423  0.3233 -0.3205  0.1574
11085TIP3    H154670   4.041   3.667   4.471  0.9713  1.6298 -1.5660
11085TIP3    H254671   3.907   3.728   4.434 -0.3375 -0.6192 -0.7218
11086TIP3   OH254672   5.534   2.029  14.368  0.0336  0.5690 -0.0654
11086TIP3    H154673   5.570   2.044  14.455  1.8655  0.7748 -0.8235
11086TIP3    H254674   5.599   1.975  14.324 -0.8578  0.4762 -1.3234
11087TIP3   OH254675   5.155   3.117   3.328  0.2180  0.1057 -0.0705
11087TIP3    H154676   5.188   3.073   3.406 -1.1381  0.5010  0.7594
11087TIP3    H254677   5.196   3.203   3.329  0.2162  0.1028  0.1942
11088TIP3   OH254678   0.379   3.204   3.636  0.8389 -0.1494 -0.5085
11088TIP3    H154679   0.444   3.269   3.663 -1.2255  0.5656  3.4405
11088TIP3    H254680   0.304   3.257   3.607  0.9207 -0.9494 -2.3546
11089TIP3   OH254681   3.948   0.914   1.850  0.6297  0.3406  0.8143
11089TIP3    H154682   4.038   0.888   1.831  0.4749 -0.1162  0.6852
11089TIP3    H254683   3.919   0.851   1.916  0.5483  0.7578  1.1767
11090TIP3   OH254684   3.282   2.258  16.103 -0.0950  0.5775  0.4431
11090TIP3    H154685   3.233   2.197  16.048 -1.5374  1.4257  0.7294
11090TIP3    H254686   3.228   2.266  16.182  0.9445  0.9103  1.1367
11091TIP3   OH254687   4.677   0.159  14.318  0.0874 -0.1019 -0.6394
11091TIP3    H154688   4.728   0.204  14.251  1.3235  0.7985  0.8205
11091TIP3    H254689   4.739   0.100  14.361 -0.3961  0.0891  0.3614
11092TIP3   OH254690   4.670   3.719  14.021  0.2247  0.1212  0.5667
11092TIP3    H154691   4.735   3.662  14.063  0.1509  0.3954  1.0622
11092TIP3    H254692   4.589   3.668  14.023  0.8771 -1.2154 -2.1796
11093TIP3   OH254693   2.861   1.227  16.470  0.3406  0.2420 -0.0630
11093TIP3    H154694   2.884   1.141  16.506  0.3027  1.0518  2.0730
11093TIP3    H254695   2.780   1.251  16.515  0.3154  1.3784 -0.6754
11094TIP3   OH254696   1.699   4.201  14.389 -0.3570 -0.0969 -0.0334
11094TIP3    H154697   1.783   4.239  14.416  0.5410 -1.4563 -0.7753
11094TIP3    H254698   1.722   4.138  14.320 -2.2990  1.7567 -2.5952
11095TIP3   OH254699   2.639   1.674  17.056  0.1229  0.2841  0.1517
11095TIP3    H154700   2.639   1.640  16.967 -0.0762  0.1932  0.1870
11095TIP3    H254701   2.723   1.719  17.064  0.4448 -0.3150  0.1496
11096TIP3   OH254702   0.130   1.167  12.551  0.0796  0.4379  0.6532
11096TIP3    H154703   0.048   1.120  12.535 -0.3160  1.5015 -0.5877
11096TIP3    H254704   0.104   1.245  12.600  0.0601  1.7142 -1.3097
11097TIP3   OH254705   4.077   2.140  14.625  0.5341  0.2004 -0.2091
11097TIP3    H154706   4.035   2.226  14.635 -1.4704 -0.6455 -0.8152
11097TIP3    H254707   4.106   2.117  14.713 -2.6180 -0.2555  0.8371
11098TIP3   OH254708   5.053   5.949   1.446  0.2480 -0.6780 -0.3143
11098TIP3    H154709   5.144   5.925   1.465  0.7551  0.3302 -1.3487
11098TIP3    H254710   5.039   5.921   1.356 -0.2042 -0.1077 -0.4279
11099TIP3   OH254711   4.757   0.274  16.942 -0.6988 -0.1589 -0.0857
11099TIP3    H154712   4.833   0.241  16.895 -0.5063 -0.0306  0.1309
11099TIP3    H254713   4.773   0.368  16.950 -1.1623 -0.0317 -0.5572
11100TIP3   OH254714   0.852   1.253  11.546 -0.3074 -0.0286  0.4520
11100TIP3    H154715   0.758   1.245  11.533 -0.0062 -1.2354 -1.4805
11100TIP3    H254716   0.880   1.319  11.483  0.4975 -2.0093 -1.4091
11101TIP3   OH254717   1.365   3.487   1.842  0.6639  0.1659 -0.4517
11101TIP3    H154718   1.436   3.516   1.784  1.5077 -1.3991 -0.2467
11101TIP3    H254719   1.309   3.434   1.787 -1.0983  2.3990 -0.9237
11102TIP3   OH254720   1.260   3.000   5.584 -0.1830 -0.5508  0.7182
11102TIP3    H154721   1.308   3.070   5.628 -1.1439  2.1670 -2.1245
11102TIP3    H254722   1.327   2.936   5.559  1.7425  1.9282 -1.0246
11103TIP3   OH254723   6.397   0.816  13.576 -0.1224  0.5103  0.3715
11103TIP3    H154724   6.452   0.845  13.504 -1.5601  2.5334  0.0127
11103TIP3    H254725   6.341   0.748  13.537 -1.4245  2.1200 -0.7194
11104TIP3   OH254726   5.297   5.233  13.915 -0.3740 -0.4513 -0.2258
11104TIP3    H154727   5.311   5.307  13.974 -0.8279 -0.4112 -0.1670
11104TIP3    H254728   5.244   5.172  13.965  0.6158 -1.1524 -0.0142
11105TIP3   OH254729   3.705   4.034   3.810 -0.2993  0.4232 -0.6306
11105TIP3    H154730   3.741   4.123   3.812  0.8274 -0.0171  0.3246
11105TIP3    H254731   3.780   3.978   3.832 -1.4407 -0.6059  0.7719
11106TIP3   OH254732   5.138   2.149   1.953 -0.3167 -0.0690 -0.2225
11106TIP3    H154733   5.083   2.191   1.888 -1.0266 -1.4838 -0.5708
11106TIP3    H254734   5.077   2.120   2.021 -0.1865 -2.4159 -1.0229
11107TIP3   OH254735   1.857   1.721  12.522 -0.0860 -0.7387 -0.1851
11107TIP3    H154736   1.865   1.781  12.448 -0.0561 -0.4926  0.0151
11107TIP3    H254737   1.946   1.716  12.558  0.1510 -1.7800 -0.8758
11108TIP3   OH254738   1.494   1.758  15.043  0.2170 -0.1674 -0.0036
11108TIP3    H154739   1.507   1.713  14.960 -1.0545 -1.4622  0.4542
11108TIP3    H254740   1.476   1.688  15.106  1.2771  0.7670  1.4145
11109TIP3   OH254741   3.492   6.715  11.991 -0.3126 -0.0081  0.5742
11109TIP3    H154742   3.400   6.724  11.965 -0.5899 -0.9120  1.1816
11109TIP3    H254743   3.494   6.635  12.043  0.8940 -0.1875  0.2771
11110TIP3   OH254744   6.660   3.781  11.659 -0.2637 -0.0942 -0.6430
11110TIP3    H154745   6.668   3.716  11.728  1.6907  0.3033 -0.4301
11110TIP3    H254746   6.690   3.863  11.698 -2.6173  0.9866 -0.9224
11111TIP3   OH254747   2.857   6.155  14.140  0.0463 -0.8154 -0.3285
11111TIP3    H154748   2.788   6.210  14.176  0.2375 -0.7481 -0.0595
11111TIP3    H254749   2.834   6.066  14.167  1.5680 -0.5103  2.2772
11112TIP3   OH254750   1.288   6.116   4.702  0.3862 -0.4251 -0.2018
11112TIP3    H154751   1.278   6.115   4.607  0.9627 -1.8217 -0.2751
11112TIP3    H254752   1.348   6.044   4.721 -0.1537 -0.5351  1.2688
11113TIP3   OH254753   4.361   0.858   3.271 -0.5392 -0.0722 -0.5962
11113TIP3    H154754   4.374   0.941   3.225 -0.5116  0.3288  0.1267
11113TIP3    H254755   4.449   0.824   3.286 -0.5748 -0.6341 -1.6009
11114TIP3   OH254756   2.265   5.141  16.672 -0.1849 -0.0580  0.7241
11114TIP3    H154757   2.347   5.150  16.625 -0.9486 -0.3906 -0.7217
11114TIP3    H254758   2.253   5.047  16.682 -1.8242 -0.2082 -1.7987
11115TIP3   OH254759   1.154   3.786  13.503 -0.0328 -0.3415  0.3049
11115TIP3    H154760   1.062   3.791  13.474 -0.5788  0.7234  2.1002
11115TIP3    H254761   1.188   3.874  13.488  0.8907 -0.8650 -0.8309
11116TIP3   OH254762   2.820   2.673   1.767 -0.0222 -0.2064 -0.6037
11116TIP3    H154763   2.907   2.707   1.786 -0.3643  1.3288 -1.6528
11116TIP3    H254764   2.833   2.579   1.754  1.8780  0.2824 -2.8690
11117TIP3   OH254765   4.012   5.434   5.073 -0.7872  0.2142 -0.2698
11117TIP3    H154766   4.051   5.354   5.110 -0.2385  0.3587 -0.5156
11117TIP3    H254767   3.930   5.445   5.121  0.2104  0.7663  1.3837
11118TIP3   OH254768   3.526   0.995   0.933  0.0074  0.1302  0.3556
11118TIP3    H154769   3.575   1.077   0.930  0.7508 -0.2617  1.4781
11118TIP3    H254770   3.576   0.935   0.878 -0.8127  0.5461 -0.8911
11119TIP3   OH254771   0.834   2.006   1.877 -0.3001  0.4124  0.8472
11119TIP3    H154772   0.920   2.044   1.858 -0.8461  1.1829 -0.1708
11119TIP3    H254773   0.787   2.076   1.923 -0.2452 -0.1596  1.7891
11120TIP3   OH254774   1.836   2.858   1.403 -0.2431  0.4500 -0.6263
11120TIP3    H154775   1.796   2.832   1.486  3.3489  0.0713  1.1820
11120TIP3    H254776   1.769   2.839   1.337 -2.5644 -1.0290  1.9395
11121TIP3   OH254777   3.560   5.479  14.020  0.0490  0.0954 -1.1361
11121TIP3    H154778   3.576   5.491  13.926 -0.7953  1.5860 -1.1288
11121TIP3    H254779   3.528   5.389  14.028  1.9952 -0.7378 -1.9811
11122TIP3   OH254780   4.490   5.983  15.684  0.1816 -0.4002  0.3432
11122TIP3    H154781   4.565   5.935  15.648 -0.4763 -1.6097  0.5397
11122TIP3    H254782   4.427   5.986  15.613  0.7395  1.4432 -0.1347
11123TIP3   OH254783   3.686   0.303   0.403 -0.9423  0.5018 -0.5780
11123TIP3    H154784   3.591   0.316   0.405 -1.0874 -0.4734 -0.8149
11123TIP3    H254785   3.715   0.350   0.325 -1.1940  1.0218 -0.3614
11124TIP3   OH254786   4.467   2.741  12.649  0.2645  0.5072 -0.3500
11124TIP3    H154787   4.538   2.687  12.616  0.8908 -0.0830  1.7755
11124TIP3    H254788   4.452   2.709  12.738 -2.7237  0.5566 -0.7100
11125TIP3   OH254789   5.606   2.711  16.810  0.4498  0.1523  0.0014
11125TIP3    H154790   5.554   2.750  16.740  0.5375 -1.8034 -1.2183
11125TIP3    H254791   5.696   2.733  16.788  0.6300 -1.7943 -1.4863
11126TIP3   OH254792   1.003   6.198   0.971  0.1819  0.5749  0.0314
11126TIP3    H154793   1.022   6.245   0.890  0.2924 -0.8588 -0.8231
11126TIP3    H254794   0.910   6.215   0.988  0.2494  1.1810 -0.2029
11127TIP3   OH254795   5.915   4.462  14.015  0.0979  0.1671 -0.0126
11127TIP3    H154796   5.960   4.542  14.038 -0.3207  0.3312  0.2523
11127TIP3    H254797   5.905   4.415  14.098 -0.6960  0.3867  0.0233
11128TIP3   OH254798   0.093   3.192   6.455 -0.2146 -0.1378 -0.2991
11128TIP3    H154799   0.019   3.133   6.468 -0.7771  0.8308  1.2228
11128TIP3    H254800   0.054   3.280   6.454  0.9621  0.4810  1.6547
11129TIP3   OH254801   2.543   3.005  16.886  0.1982  0.5712 -0.0444
11129TIP3    H154802   2.456   3.024  16.850  0.0107 -0.1356  0.0181
11129TIP3    H254803   2.528   2.985  16.978 -0.1547 -3.2270 -0.7413
11130TIP3   OH254804   2.438   6.241  14.539  0.3252  0.7523  0.1173
11130TIP3    H154805   2.457   6.169  14.600  1.8846 -0.2386 -1.4646
11130TIP3    H254806   2.454   6.320  14.590  4.1458 -0.0342  0.3757
11131TIP3   OH254807   2.990   5.266   4.108  0.2870 -0.2726  0.6117
11131TIP3    H154808   2.955   5.179   4.089  0.1654 -0.4400  1.5613
11131TIP3    H254809   2.917   5.312   4.150  0.1922  0.4606 -0.3343
11132TIP3   OH254810   2.301   4.000  16.624 -0.3851 -0.1158  0.0483
11132TIP3    H154811   2.272   3.952  16.546  2.2715 -0.3669 -0.8721
11132TIP3    H254812   2.311   3.932  16.691 -0.9841 -0.1595  0.0997
11133TIP3   OH254813   6.288   4.140   0.804 -0.1334  0.2427  0.3311
11133TIP3    H154814   6.223   4.131   0.874 -1.3437  0.5595 -0.7227
11133TIP3    H254815   6.361   4.186   0.845 -1.4215  1.7497  1.0416
11134TIP3   OH254816   0.925   0.438  12.813 -0.2635 -0.8996  0.4365
11134TIP3    H154817   0.948   0.425  12.905 -1.1198 -0.8936  0.6616
11134TIP3    H254818   0.893   0.527  12.808  0.4593 -0.6529 -0.0260
11135TIP3   OH254819   1.645   4.455  11.786  0.1158  0.3900  0.2406
11135TIP3    H154820   1.597   4.519  11.733  0.2514 -0.3447 -0.7982
11135TIP3    H254821   1.585   4.434  11.858 -0.6980  0.2955 -0.4387
11136TIP3   OH254822   2.773   5.389   4.216  0.4782  0.0383 -0.4819
11136TIP3    H154823   2.747   5.458   4.154 -0.3542 -1.3695 -1.7747
11136TIP3    H254824   2.690   5.356   4.250  0.9147  0.3755  0.9551
11137TIP3   OH254825   0.275   2.794  16.567  0.1799 -0.7524 -0.0512
11137TIP3    H154826   0.336   2.860  16.533  0.1498  0.4705  2.0768
11137TIP3    H254827   0.268   2.729  16.497  2.1442  0.2396 -1.2567
11138TIP3   OH254828   1.148   0.627   2.264 -0.0217  0.8826 -0.0446
11138TIP3    H154829   1.135   0.702   2.322 -0.4064  0.7080  0.0975
11138TIP3    H254830   1.221   0.578   2.304  0.2881  1.2221 -0.1858
11139TIP3   OH254831   6.754   2.251  15.583 -0.3108  0.1568  0.2036
11139TIP3    H154832   6.816   2.233  15.653  1.6479  1.1506 -1.1843
11139TIP3    H254833   6.736   2.345  15.589 -0.3360  0.2036 -0.4413
11140TIP3   OH254834   6.367   2.974   0.731  0.2529 -0.1914 -0.1386
11140TIP3    H154835   6.433   2.944   0.669 -0.4596 -0.3239 -0.8631
11140TIP3    H254836   6.315   3.038   0.682  0.6293  0.8766  0.8225
11141TIP3   OH254837   2.739   1.967  12.735  0.4345 -0.5729 -0.4858
11141TIP3    H154838   2.779   1.919  12.807 -1.4224 -1.6416 -0.0938
11141TIP3    H254839   2.694   1.900  12.683 -1.2558  0.5708 -0.5919
11142TIP3   OH254840   5.623   4.122   5.634 -0.1659  0.7990 -0.2132
11142TIP3    H154841   5.614   4.027   5.644 -0.8797  0.5980 -2.1846
11142TIP3    H254842   5.714   4.140   5.655 -0.4321 -0.0446  1.8638
11143TIP3   OH254843   1.145   1.369   4.850 -0.1575 -0.3185 -0.6697
11143TIP3    H154844   1.169   1.342   4.938  1.0364  0.3655 -0.7745
11143TIP3    H254845   1.060   1.411   4.861  0.3921  0.5725  0.3064
11144TIP3   OH254846   0.907   0.317   5.985 -0.1775  0.0072 -1.0106
11144TIP3    H154847   0.926   0.408   5.964  0.3181 -0.2754 -1.8140
11144TIP3    H254848   0.973   0.294   6.051  0.1632  0.0220 -1.3407
11145TIP3   OH254849   0.216   3.021   5.012 -0.5591  0.5370 -0.1704
11145TIP3    H154850   0.228   3.073   4.933 -2.6586  0.4936 -0.5733
11145TIP3    H254851   0.283   2.953   5.006  0.6366  1.7152 -0.8558
11146TIP3   OH254852   4.967   0.800  15.512 -0.3541  0.1207  0.4094
11146TIP3    H154853   4.915   0.720  15.507 -1.5466  0.9117 -0.3066
11146TIP3    H254854   5.024   0.787  15.588 -0.7932 -1.2420  0.5268
11147TIP3   OH254855   1.517   5.347   0.249 -0.5343 -0.1308  0.0142
11147TIP3    H154856   1.448   5.392   0.201 -0.0486 -0.7375 -1.3064
11147TIP3    H254857   1.581   5.415   0.270 -1.5338  0.4508  1.3260
11148TIP3   OH254858   4.841   4.428   1.689  0.1164 -0.3318 -0.5598
11148TIP3    H154859   4.893   4.420   1.769  0.2893  0.0750 -0.6324
11148TIP3    H254860   4.850   4.343   1.646  1.0663 -0.1287 -0.7831
11149TIP3   OH254861   6.594   1.185  15.404 -0.1190  0.2958 -0.3894
11149TIP3    H154862   6.529   1.249  15.374  0.3401  1.1471  0.4002
11149TIP3    H254863   6.583   1.182  15.499  0.6623  0.0761 -0.3031
11150TIP3   OH254864   0.132   4.090   3.517  0.1749  0.1097 -0.1443
11150TIP3    H154865   0.222   4.100   3.486  0.3583  0.5928  0.5139
11150TIP3    H254866   0.135   4.117   3.609 -0.5688 -0.2328 -0.0087
11151TIP3   OH254867   1.123   2.822   4.678 -0.1776  0.5632 -0.3045
11151TIP3    H154868   1.036   2.850   4.705 -0.4404 -1.0162  0.5902
11151TIP3    H254869   1.179   2.842   4.753  0.1641  1.1704 -0.7096
11152TIP3   OH254870   1.537   1.691  14.784 -0.4630  0.5536  0.2801
11152TIP3    H154871   1.583   1.755  14.729  4.1464 -0.9724  1.9002
11152TIP3    H254872   1.508   1.623  14.723 -0.8397  1.6730 -0.8388
11153TIP3   OH254873   0.018   4.540  14.252  0.0503 -0.6324 -0.4507
11153TIP3    H154874  -0.047   4.562  14.185  2.4359 -0.8284 -3.0327
11153TIP3    H254875  -0.003   4.451  14.278 -1.4744 -0.2288 -0.2277
11154TIP3   OH254876   1.782   0.520   3.708 -0.2325 -0.2531  0.0317
11154TIP3    H154877   1.842   0.575   3.658  0.5119 -1.0388  0.0532
11154TIP3    H254878   1.809   0.431   3.689 -0.6180 -0.5899  0.9980
11155TIP3   OH254879   5.734   4.319  13.862 -0.1718 -0.1708 -0.0339
11155TIP3    H154880   5.650   4.335  13.904 -0.2881 -0.3807 -0.1847
11155TIP3    H254881   5.796   4.372  13.912  0.0420 -1.9615  1.6859
11156TIP3   OH254882   0.928   6.100   6.671 -0.1896  0.4343 -0.0090
11156TIP3    H154883   0.873   6.022   6.664 -0.1811  0.3575  0.7057
11156TIP3    H254884   1.014   6.067   6.696  0.1771  0.5606 -1.0679
11157TIP3   OH254885   5.778   5.738  15.978  0.3609  0.3094  0.3688
11157TIP3    H154886   5.720   5.662  15.975  1.3698 -0.6139  2.4938
11157TIP3    H254887   5.832   5.729  15.899 -2.3263  1.2574 -1.7252
11158TIP3   OH254888   1.706   2.184   4.988  0.1101 -0.5387 -0.0195
11158TIP3    H154889   1.659   2.195   5.071 -1.8270 -1.5640 -0.9004
11158TIP3    H254890   1.715   2.089   4.979  0.8985 -0.4054 -0.6659
11159TIP3   OH254891   1.517   0.664  14.247 -0.1157  0.6226  0.8429
11159TIP3    H154892   1.446   0.718  14.279 -0.6223 -0.3650  1.4433
11159TIP3    H254893   1.478   0.577  14.235  1.0513 -0.0256  1.5332
11160TIP3   OH254894   2.823   2.997  13.435 -0.5612 -0.3408  0.1822
11160TIP3    H154895   2.778   3.009  13.351  1.2437  0.0891 -0.7740
11160TIP3    H254896   2.916   3.000  13.413 -0.0369  0.1461  2.2634
11161TIP3   OH254897   0.998   2.412   5.238 -0.2691 -0.2642  0.0800
11161TIP3    H154898   1.091   2.435   5.237 -1.1950  4.5458 -0.9291
11161TIP3    H254899   0.979   2.385   5.148 -0.3162  1.8880 -0.6232
11162TIP3   OH254900   4.744   2.168   1.000  0.3055 -0.0988  0.3108
11162TIP3    H154901   4.672   2.186   1.061  2.4887 -1.3470  3.5682
11162TIP3    H254902   4.734   2.075   0.977  0.8146 -0.2709  0.7568
11163TIP3   OH254903   4.807   6.204  16.403  0.5537  0.3458 -0.3258
11163TIP3    H154904   4.796   6.294  16.436  1.3956 -0.6869  3.1068
11163TIP3    H254905   4.898   6.201  16.374  1.2840  0.0351  1.8193
11164TIP3   OH254906   3.088   0.812   3.581 -0.7518  0.2146 -0.2055
11164TIP3    H154907   3.034   0.758   3.639 -0.5938 -1.8905 -1.9057
11164TIP3    H254908   3.178   0.795   3.609 -0.7809  1.7573  0.9791
11165TIP3   OH254909   1.900   4.631  13.687  0.1421  0.5067  0.1713
11165TIP3    H154910   1.898   4.573  13.611 -1.4905 -1.3093  1.4851
11165TIP3    H254911   1.972   4.598  13.741  0.5402  1.0457 -0.0207
11166TIP3   OH254912   1.889   2.200  13.745 -0.0978 -0.0648  0.6639
11166TIP3    H154913   1.938   2.161  13.818  1.1810 -0.7146 -0.4901
11166TIP3    H254914   1.914   2.292  13.746  0.2533 -0.1595  0.7874
11167TIP3   OH254915   3.113   1.574  14.181 -0.4467 -0.2819  0.1771
11167TIP3    H154916   3.142   1.604  14.095 -1.7849 -0.7180 -0.4537
11167TIP3    H254917   3.138   1.644  14.241  2.0420 -0.7003 -0.2437
11168TIP3   OH254918   1.920   1.371  16.270 -0.2620 -0.3509 -0.1236
11168TIP3    H154919   2.012   1.373  16.295  0.2847  0.9434 -2.0208
11168TIP3    H254920   1.919   1.325  16.186 -0.4287  4.3010 -2.9795
11169TIP3   OH254921   3.386   1.382  11.611  0.1943 -0.2509 -0.0517
11169TIP3    H154922   3.414   1.291  11.624  0.5102 -0.5225 -2.2505
11169TIP3    H254923   3.315   1.376  11.548 -0.5882  0.9641  0.6872
11170TIP3   OH254924   3.793   6.746  12.273 -0.0038  0.0955 -0.5640
11170TIP3    H154925   3.802   6.821  12.332 -2.2363  1.9598 -2.3662
11170TIP3    H254926   3.864   6.757  12.210 -0.0561  0.4680 -0.5640
11171TIP3   OH254927   2.215   0.789  13.074 -0.4249  0.0785 -0.4068
11171TIP3    H154928   2.230   0.713  13.130 -0.3836 -0.2913 -0.9078
11171TIP3    H254929   2.236   0.865  13.129 -1.6273 -0.2065  0.4759
11172TIP3   OH254930   5.616   2.187  14.118  0.2682 -0.3124 -0.7665
11172TIP3    H154931   5.553   2.208  14.050 -0.7306 -0.7390 -0.0076
11172TIP3    H254932   5.565   2.141  14.185  1.1516  0.3164  0.3854
11173TIP3   OH254933   0.009   1.412  16.819 -0.3007 -0.1206 -0.5037
11173TIP3    H154934  -0.001   1.356  16.896 -2.3339  0.2705 -0.4309
11173TIP3    H254935   0.001   1.352  16.745 -2.4436 -0.0132 -0.4245
11174TIP3   OH254936   1.472   6.228   5.784 -0.1130 -0.1758  0.2761
11174TIP3    H154937   1.387   6.195   5.814 -0.8484  0.9256 -0.4975
11174TIP3    H254938   1.460   6.241   5.690  0.1505  2.1357  0.5022
11175TIP3   OH254939   4.993   0.560   1.084 -0.4108  0.4290  0.4049
11175TIP3    H154940   4.952   0.477   1.062 -1.9176  0.9906  0.9288
11175TIP3    H254941   4.979   0.615   1.007 -0.9176  0.7026  0.6816
11176TIP3   OH254942   1.877   0.271   5.426  0.2970  0.3570 -0.2126
11176TIP3    H154943   1.907   0.356   5.458  1.3234  0.1305 -0.5352
11176TIP3    H254944   1.952   0.236   5.378  0.1430 -1.0767  0.5638
11177TIP3   OH254945   5.154   6.436   0.631 -0.2568  0.9904  0.2955
11177TIP3    H154946   5.091   6.449   0.560  0.6793 -3.5917 -1.7091
11177TIP3    H254947   5.237   6.465   0.594  0.2997 -1.7563 -0.7984
11178TIP3   OH254948   1.584   6.064   3.263 -0.5069 -0.3466  0.2973
11178TIP3    H154949   1.598   6.127   3.192  2.0205 -1.2804 -0.1385
11178TIP3    H254950   1.498   6.025   3.244 -1.1322  1.3715 -0.6460
11179TIP3   OH254951   4.842   6.323   3.779 -0.1670 -0.0407  0.0059
11179TIP3    H154952   4.919   6.342   3.832 -1.5667 -0.2040  2.2092
11179TIP3    H254953   4.803   6.245   3.819  0.1448 -1.8740 -2.9352
11180TIP3   OH254954   3.163   3.351   5.427 -0.3267  0.6025  0.3485
11180TIP3    H154955   3.098   3.388   5.367 -1.1648  0.2311  0.9969
11180TIP3    H254956   3.150   3.401   5.508  0.1781  0.5033  0.4891
11181TIP3   OH254957   2.437   5.758  16.197 -0.6651  0.1461  0.1187
11181TIP3    H154958   2.432   5.738  16.103 -1.6599  1.2390 -0.0823
11181TIP3    H254959   2.437   5.854  16.201  1.9971  0.1931  1.1243
11182TIP3   OH254960   4.435   1.202  16.161  0.0104 -0.6049 -0.2095
11182TIP3    H154961   4.465   1.139  16.094  1.5382 -0.6408  0.4806
11182TIP3    H254962   4.395   1.273  16.110  4.7100  1.3993 -1.6131
11183TIP3   OH254963   1.018   4.999   3.752  0.0467  0.3288  0.9871
11183TIP3    H154964   1.094   4.942   3.742  0.6041  0.6024  3.1941
11183TIP3    H254965   0.950   4.958   3.698  1.9068  0.5080 -1.6814
11184TIP3   OH254966   1.084   3.561   0.302  1.0891 -0.7180 -0.3447
11184TIP3    H154967   0.992   3.588   0.304  0.8713 -1.3326 -1.2062
11184TIP3    H254968   1.101   3.526   0.389  0.8152  0.3499  0.1547
11185TIP3   OH254969   2.980   1.933   3.865 -0.1977 -0.7355  0.0639
11185TIP3    H154970   2.988   2.000   3.933 -0.3634 -0.1842 -0.4435
11185TIP3    H254971   2.893   1.949   3.827  0.3841 -0.2394 -1.0871
11186TIP3   OH254972   2.799   3.912  16.144 -0.2861 -0.1249 -0.2254
11186TIP3    H154973   2.829   3.949  16.061 -1.0837 -1.3649 -1.0943
11186TIP3    H254974   2.812   3.983  16.208  2.6150  0.0665 -0.9028
11187TIP3   OH254975   2.093   6.049  16.576 -0.7583  0.6322  0.1468
11187TIP3    H154976   2.108   5.954  16.576 -1.6560  0.4759 -0.3405
11187TIP3    H254977   2.140   6.081  16.653 -0.0745 -0.1453  0.0647
11188TIP3   OH254978   6.255   0.079  13.941  0.1294 -0.3842  0.5448
11188TIP3    H154979   6.178   0.024  13.955 -1.5834  1.3105 -1.6360
11188TIP3    H254980   6.231   0.164  13.977  0.4917  0.5015 -1.2339
11189TIP3   OH254981   0.228   4.178   1.007  0.1879 -0.1940  0.4318
11189TIP3    H154982   0.277   4.107   0.965  0.0260 -0.1246  0.1257
11189TIP3    H254983   0.215   4.147   1.097  0.2719 -0.4767  0.3496
11190TIP3   OH254984   4.540   4.937   3.919 -0.2109  0.8230  0.2392
11190TIP3    H154985   4.458   4.981   3.940  0.4837  1.2230  2.3010
11190TIP3    H254986   4.606   5.006   3.924  0.5514  0.0582  0.9338
11191TIP3   OH254987   0.338   6.674  11.179 -0.1109  0.2047 -0.2399
11191TIP3    H154988   0.423   6.635  11.199 -0.5339 -0.6676 -0.0480
11191TIP3    H254989   0.353   6.726  11.100  0.7020  0.4457  0.0682
11192TIP3   OH254990   5.831   5.578  13.934  0.0849  0.2384  0.2348
11192TIP3    H154991   5.902   5.606  13.876 -1.0211  1.4058 -0.5963
11192TIP3    H254992   5.822   5.484  13.917  0.6603  0.3091 -0.4980
11193TIP3   OH254993   3.336   0.848   2.139  0.5920  0.0099  1.0412
11193TIP3    H154994   3.338   0.927   2.086 -0.0946 -0.6414 -0.0136
11193TIP3    H254995   3.244   0.822   2.140  0.7762 -0.6680  1.5147
11194TIP3   OH254996   3.096   2.762   0.252  0.3264  0.2708 -0.2918
11194TIP3    H154997   3.091   2.771   0.348  2.7359  2.4098 -0.2343
11194TIP3    H254998   3.151   2.685   0.238 -0.1978 -0.1662  0.0374
11195TIP3   OH254999   3.646   4.245  12.498 -0.0131  0.1576  0.1600
11195TIP3    H155000   3.688   4.246  12.584  0.5368 -0.4762 -0.0952
11195TIP3    H255001   3.568   4.191  12.510 -0.0910  0.3034  0.3227
11196TIP3   OH255002   2.443   1.840  15.946 -0.5598  0.5350 -0.0791
11196TIP3    H155003   2.400   1.880  15.871  0.8167  3.1396  0.4182
11196TIP3    H255004   2.523   1.891  15.959  0.4024 -1.2651  1.7839
11197TIP3   OH255005   2.449   1.847   1.090  0.0712  0.3546  0.2537
11197TIP3    H155006   2.498   1.872   1.168  1.4038 -1.8185  0.1843
11197TIP3    H255007   2.417   1.759   1.108  0.0338 -0.0365 -1.4794
11198TIP3   OH255008   5.205   0.359  16.936  0.3670  0.3132  0.3536
11198TIP3    H155009   5.213   0.407  16.854  0.0480  0.9725  0.7067
11198TIP3    H255010   5.191   0.426  17.003  2.0051 -0.0988  1.1583
11199TIP3   OH255011   5.613   4.481   6.088  1.1405 -0.5536  0.9675
11199TIP3    H155012   5.669   4.501   6.163 -0.5286 -1.5165  2.5501
11199TIP3    H255013   5.532   4.529   6.105  0.2906 -1.7366  0.4264
11200TIP3   OH255014   6.488   2.802   0.271 -0.5517  0.3459  0.0910
11200TIP3    H155015   6.560   2.769   0.217  0.7918 -1.7001  2.8692
11200TIP3    H255016   6.410   2.791   0.217  0.6936 -1.4772 -1.4750
11201TIP3   OH255017   3.994   2.665   4.474  0.4659  0.0162  0.1209
11201TIP3    H155018   3.989   2.755   4.508 -0.9853  0.4013 -1.0121
11201TIP3    H255019   3.952   2.611   4.540 -1.2415  0.5917 -0.4365
11202TIP3   OH255020   2.720   0.195  13.659 -0.0258 -0.0021  0.2316
11202TIP3    H155021   2.776   0.117  13.663  1.0176  0.7410  0.3994
11202TIP3    H255022   2.714   0.225  13.750 -1.6572 -0.7160  0.3929
11203TIP3   OH255023   6.418   2.447   5.066 -0.6143 -0.1927 -0.1843
11203TIP3    H155024   6.429   2.452   5.161  0.1750 -0.1234 -0.2730
11203TIP3    H255025   6.365   2.369   5.052  1.7334 -1.9488  0.1509
11204TIP3   OH255026   5.497   4.410  11.995  0.0054 -0.6275 -0.4714
11204TIP3    H155027   5.547   4.429  11.915 -0.1737 -2.6726 -1.1434
11204TIP3    H255028   5.498   4.492  12.044  0.3479  0.6345 -2.4438
11205TIP3   OH255029   4.264   6.669   1.072 -0.3065 -0.0687  0.0429
11205TIP3    H155030   4.324   6.613   1.022 -0.2174 -1.8436  2.0190
11205TIP3    H255031   4.176   6.643   1.042 -0.2015  0.5166 -0.8065
11206TIP3   OH255032   6.374   3.886   5.863 -0.0770  0.1778  0.4158
11206TIP3    H155033   6.378   3.803   5.910 -1.8047  0.3884  1.0293
11206TIP3    H255034   6.422   3.948   5.918 -0.4930  0.0092  0.9735
11207TIP3   OH255035   1.723   3.862  17.304 -0.5786  0.1559 -0.2326
11207TIP3    H155036   1.681   3.820  17.229 -0.8683  0.1308 -0.0573
11207TIP3    H255037   1.809   3.889  17.271 -1.4813  2.0336 -1.1769
11208TIP3   OH255038   4.652   2.204   3.363 -0.2329 -0.2302  0.4705
11208TIP3    H155039   4.601   2.207   3.444 -0.6799 -3.3418  0.4276
11208TIP3    H255040   4.720   2.139   3.380  0.4195 -0.0527 -1.2517
11209TIP3   OH255041   3.613   4.981   4.844 -0.1238 -0.0746 -0.0446
11209TIP3    H155042   3.669   5.009   4.916 -1.5889  1.7632  0.4434
11209TIP3    H255043   3.599   4.888   4.860 -0.6972  0.3652  2.2629
11210TIP3   OH255044   3.617   4.928  13.312  0.1675 -0.2784  0.0666
11210TIP3    H155045   3.641   4.958  13.224  0.5205  0.9175  0.5413
11210TIP3    H255046   3.631   5.005  13.367  1.1583 -1.3601  1.3836
11211TIP3   OH255047   5.639   2.034  15.303  0.2584  0.0334 -0.8244
11211TIP3    H155048   5.664   2.126  15.312  1.0163 -0.2423 -0.0365
11211TIP3    H255049   5.700   1.986  15.359 -1.6399 -0.7344  0.6987
11212TIP3   OH255050   1.466   5.307  16.158 -0.6107 -0.0955  0.4160
11212TIP3    H155051   1.461   5.369  16.230  1.9335  1.0233 -0.2568
11212TIP3    H255052   1.468   5.361  16.079 -0.8481 -1.1755 -0.3592
11213TIP3   OH255053   3.521   6.638   2.701  0.1312  0.3970  0.0136
11213TIP3    H155054   3.599   6.586   2.677  0.0724  0.6195 -0.6972
11213TIP3    H255055   3.547   6.728   2.685 -0.3492  0.4545 -0.4506
11214TIP3   OH255056   3.998   3.579  12.507 -0.3747  0.1461  0.2248
11214TIP3    H155057   4.029   3.641  12.574 -1.3275 -0.7946  1.5909
11214TIP3    H255058   4.061   3.588  12.436 -0.9383  3.3131 -0.0527
11215TIP3   OH255059   0.682   3.719   0.574  0.0866 -0.1078 -0.2848
11215TIP3    H155060   0.657   3.809   0.596 -0.3217 -0.4902  0.8915
11215TIP3    H255061   0.772   3.711   0.603 -0.0471 -0.2378  0.0926
11216TIP3   OH255062   1.191   4.583   2.239  0.3209 -0.0017  0.4302
11216TIP3    H155063   1.152   4.525   2.305 -0.1509 -0.6228 -0.3689
11216TIP3    H255064   1.117   4.610   2.184  0.5890  1.1229  0.6021
11217TIP3   OH255065   0.003   4.469  14.552 -0.2124  0.4423 -0.7349
11217TIP3    H155066   0.069   4.532  14.523  1.9043 -1.5161 -0.4828
11217TIP3    H255067   0.035   4.385  14.519 -1.6107 -0.8418  1.0381
11218TIP3   OH255068   1.285   0.358   2.165 -0.5594  0.1845 -0.1773
11218TIP3    H155069   1.362   0.305   2.182  0.0048  0.5803 -1.3912
11218TIP3    H255070   1.219   0.326   2.227  0.0982 -1.1970 -0.1718
11219TIP3   OH255071   3.359   0.777   5.984 -0.2179 -0.2647 -0.8406
11219TIP3    H155072   3.325   0.698   6.025 -1.2478  1.0222  0.8779
11219TIP3    H255073   3.282   0.821   5.947  0.2916  0.1026 -1.4913
11220TIP3   OH255074   6.304   4.847   6.143 -0.1771 -0.5228 -0.1105
11220TIP3    H155075   6.265   4.932   6.121 -1.6180 -1.5549 -1.7711
11220TIP3    H255076   6.392   4.869   6.173 -0.2928  1.5329 -1.0877
11221TIP3   OH255077   4.164   0.725   2.921 -0.2734  0.2305  0.1249
11221TIP3    H155078   4.221   0.660   2.880  1.1460  1.3369  0.2720
11221TIP3    H255079   4.219   0.803   2.930 -1.6169  1.1280  0.9078
11222TIP3   OH255080   2.844   2.014  16.658 -0.0342  0.9473  0.4984
11222TIP3    H155081   2.874   2.103  16.640 -1.9052  1.2513 -1.7059
11222TIP3    H255082   2.803   2.019  16.744  3.0758  1.2385  2.1175
11223TIP3   OH255083   2.437   5.842  14.422  0.1413 -0.2615 -0.5289
11223TIP3    H155084   2.381   5.812  14.494  0.7271 -0.8994 -0.3242
11223TIP3    H255085   2.525   5.847  14.460  0.2469  0.6561 -0.8641
11224TIP3   OH255086   0.982   5.755   1.543  0.0460  0.6844  0.1072
11224TIP3    H155087   0.920   5.698   1.497  1.9889 -1.0597 -0.5325
11224TIP3    H255088   1.034   5.796   1.474  0.9326  0.4880  0.6366
11225TIP3   OH255089   0.999   4.725   3.995  0.2456  0.5369 -0.4677
11225TIP3    H155090   1.058   4.653   4.020 -0.1601  0.1045 -0.7494
11225TIP3    H255091   0.989   4.716   3.901  2.1055  2.4211 -0.9100
11226TIP3   OH255092   5.996   2.363  14.398 -0.3199 -0.5989  0.1241
11226TIP3    H155093   5.976   2.328  14.484  1.0292 -1.3493  0.1519
11226TIP3    H255094   5.912   2.365  14.353 -1.0412 -0.2024  1.4369
11227TIP3   OH255095   4.113   4.212  17.131  0.3214  0.2783  0.5088
11227TIP3    H155096   4.081   4.300  17.149  0.6879  0.3891  0.6208
11227TIP3    H255097   4.087   4.161  17.208 -0.6579  0.0803  0.0619
11228TIP3   OH255098   4.629   3.147   2.113  0.4210 -0.2835  0.0601
11228TIP3    H155099   4.609   3.055   2.129  1.1744 -0.4753 -0.0720
11228TIP3    H255100   4.652   3.181   2.200  0.5124 -0.3106  0.0462
11229TIP3   OH255101   3.767   2.343  14.248 -0.0879 -0.5647 -0.3961
11229TIP3    H155102   3.778   2.322  14.341 -0.6597 -0.2035 -0.2413
11229TIP3    H255103   3.732   2.262  14.210  0.5388 -0.8492 -0.3836
11230TIP3   OH255104   1.109   5.037  14.801  0.4223 -0.1632 -0.3184
11230TIP3    H155105   1.127   5.131  14.792 -0.0210  0.1184  1.3386
11230TIP3    H255106   1.042   5.032  14.869 -0.4321 -1.6336 -1.2183
11231TIP3   OH255107   5.201   4.473   1.770 -0.1496  0.6513  0.1580
11231TIP3    H155108   5.160   4.532   1.707  0.1066  0.5382 -0.1156
11231TIP3    H255109   5.175   4.508   1.855 -1.8064 -0.0849  0.0063
11232TIP3   OH255110   0.209   4.991   4.198  0.0449 -0.4185  0.7675
11232TIP3    H155111   0.172   4.903   4.207 -0.5986 -0.1231  1.0572
11232TIP3    H255112   0.242   5.011   4.286  0.0334 -0.3038  0.7453
11233TIP3   OH255113   0.490   5.452  11.336  0.1989  0.1021 -0.4731
11233TIP3    H155114   0.441   5.501  11.402  0.1995  0.5672 -0.8163
11233TIP3    H255115   0.487   5.361  11.367 -0.4737  0.1963 -0.2430
11234TIP3   OH255116   3.997   3.021   4.224 -0.3784  0.1335  0.0438
11234TIP3    H155117   3.950   3.100   4.251 -0.3479  0.4157 -0.6913
11234TIP3    H255118   4.065   3.053   4.164 -1.7780 -0.6393 -2.0653
11235TIP3   OH255119   6.203   3.647  15.767 -0.4412 -0.2205 -0.2496
11235TIP3    H155120   6.283   3.594  15.760 -0.6924 -0.6958  0.4246
11235TIP3    H255121   6.229   3.723  15.818 -0.2989 -0.1335 -0.4500
11236TIP3   OH255122   6.011   1.388   2.073  0.6130  0.1134 -0.1002
11236TIP3    H155123   6.099   1.427   2.072  0.6225  0.0849 -0.6664
11236TIP3    H255124   5.970   1.419   1.993  0.2049 -0.1028  0.0223
11237TIP3   OH255125   1.463   4.497   1.135 -0.4381  0.0807  0.0968
11237TIP3    H155126   1.368   4.507   1.146 -0.4417 -1.9364  3.0619
11237TIP3    H255127   1.476   4.403   1.124  1.2485  0.3237 -0.2883
11238TIP3   OH255128   0.528   4.073  14.554 -0.2729 -0.3516  0.0917
11238TIP3    H155129   0.562   4.161  14.571 -1.2702 -0.1573  1.2563
11238TIP3    H255130   0.582   4.015  14.607  0.7871 -0.5418 -1.1537
11239TIP3   OH255131   5.953   0.286  15.023 -0.8235 -0.1976 -0.1874
11239TIP3    H155132   6.005   0.309  15.100 -0.0344  0.3431 -0.8621
11239TIP3    H255133   5.963   0.192  15.013  1.1364  0.0390 -1.0444
11240TIP3   OH255134   5.476   5.460  12.777  0.2626  0.2441 -0.8156
11240TIP3    H155135   5.386   5.473  12.808  0.0349  1.4930 -1.9061
11240TIP3    H255136   5.522   5.424  12.852 -0.9537  0.3941  0.0371
11241TIP3   OH255137   4.448   5.350  14.399 -0.2270  0.2344  0.1299
11241TIP3    H155138   4.387   5.378  14.331 -0.4669 -3.1420 -1.2336
11241TIP3    H255139   4.409   5.271  14.436  2.4238 -1.0546  0.4527
11242TIP3   OH255140   3.297   6.571   0.217 -0.0630  0.1281  0.8206
11242TIP3    H155141   3.322   6.578   0.309  0.1293  0.8739  0.7249
11242TIP3    H255142   3.279   6.662   0.191  0.0918 -0.0514  0.0687
11243TIP3   OH255143   0.826   2.233   2.349  0.0173 -0.3437 -0.6102
11243TIP3    H155144   0.741   2.264   2.318 -0.2391 -0.0462  0.3696
11243TIP3    H255145   0.885   2.307   2.336 -0.0259 -0.3188 -0.6621
11244TIP3   OH255146   3.744   5.571  12.718  0.4883 -0.0794  0.5315
11244TIP3    H155147   3.674   5.536  12.663 -1.4294  0.4951  2.4643
11244TIP3    H255148   3.746   5.513  12.795  1.0959  0.7904  1.1990
11245TIP3   OH255149   5.898   4.175   0.649  0.1454  0.2710 -0.4306
11245TIP3    H155150   5.939   4.099   0.608  3.3061  0.2181  2.3805
11245TIP3    H255151   5.970   4.237   0.662 -2.1813  3.5852 -1.9898
11246TIP3   OH255152   0.711   2.518  11.190 -0.1334  0.1996  0.1112
11246TIP3    H155153   0.659   2.568  11.253  0.4699  0.1446  0.6628
11246TIP3    H255154   0.693   2.560  11.106 -0.5698  0.5825  0.3894
11247TIP3   OH255155   3.750   4.977  16.345 -0.3188 -0.0981 -0.2433
11247TIP3    H155156   3.719   4.953  16.432  1.2197  1.0299  0.6745
11247TIP3    H255157   3.670   4.992  16.294 -1.2765  0.9138  1.4607
11248TIP3   OH255158   5.341   0.162   5.157  0.3611  1.3090 -0.4149
11248TIP3    H155159   5.363   0.252   5.184 -1.1862  1.3775  0.7693
11248TIP3    H255160   5.263   0.140   5.208 -0.1757 -0.1786 -1.7820
11249TIP3   OH255161   1.097   2.917   6.296 -0.0269 -0.0081  0.0240
11249TIP3    H155162   1.076   2.982   6.363 -1.7018  0.2595 -0.7143
11249TIP3    H255163   1.020   2.861   6.291  0.8188 -1.1801 -0.3753
11250TIP3   OH255164   5.238   5.541   1.637  0.0163 -0.2593 -0.1467
11250TIP3    H155165   5.278   5.453   1.634  1.8227  0.4114  1.9722
11250TIP3    H255166   5.144   5.524   1.630  0.3436 -2.3345 -0.3163
11251TIP3   OH255167   4.798   0.539   3.758  0.1695 -0.1477  0.0487
11251TIP3    H155168   4.886   0.513   3.731 -0.1350  0.3028 -1.4393
11251TIP3    H255169   4.812   0.611   3.819  0.9283 -2.1660  2.4238
11252TIP3   OH255170   3.558   0.929   6.095  0.4525  0.3370  0.0352
11252TIP3    H155171   3.635   0.917   6.040  0.6235  0.9114  0.1390
11252TIP3    H255172   3.491   0.874   6.055  0.8739 -0.0562 -0.1377
11253TIP3   OH255173   3.180   1.515  13.328  0.1195 -0.2307 -0.8559
11253TIP3    H155174   3.219   1.432  13.355 -1.1554 -0.3646  0.7034
11253TIP3    H255175   3.104   1.526  13.385 -0.1642  1.6622 -1.5203
11254TIP3   OH255176   3.448   4.061   3.116 -0.8687  0.0748 -0.3820
11254TIP3    H155177   3.389   4.003   3.165 -1.4839  0.7848 -0.2648
11254TIP3    H255178   3.424   4.049   3.025 -2.1660  1.3681 -0.2505
11255TIP3   OH255179   5.796   5.396  17.202  0.6736  0.0989  0.0565
11255TIP3    H155180   5.751   5.443  17.272  0.4664  1.3393 -0.8815
11255TIP3    H255181   5.736   5.325  17.178  0.4811  0.0335  0.7137
11256TIP3   OH255182   0.730   2.263   0.207 -0.2007  0.2219  0.0946
11256TIP3    H155183   0.659   2.315   0.170 -0.3708  1.7739  2.3770
11256TIP3    H255184   0.686   2.196   0.259  0.0277 -0.8595 -1.0808
11257TIP3   OH255185   0.003   4.003  11.783  0.3928 -0.0419  1.2260
11257TIP3    H155186  -0.057   4.028  11.853  0.3758  1.3346  0.7385
11257TIP3    H255187   0.073   4.069  11.785  0.2840  0.1592 -0.1710
11258TIP3   OH255188   3.043   0.722   2.344  0.2905  0.2571  0.0993
11258TIP3    H155189   3.074   0.798   2.395 -0.7699  1.1889 -0.5971
11258TIP3    H255190   2.972   0.686   2.397  0.5393 -0.0299  0.2431
11259TIP3   OH255191   0.062   4.783  11.416 -0.0313 -1.0461 -0.1486
11259TIP3    H155192   0.116   4.782  11.495  0.0127 -1.2664 -0.1798
11259TIP3    H255193   0.005   4.859  11.426 -0.5156 -1.4805  0.4285
11260TIP3   OH255194   1.067   3.834  16.282 -0.2310 -0.4910 -0.5293
11260TIP3    H155195   1.100   3.863  16.367  1.3621 -0.6058 -1.0792
11260TIP3    H255196   1.126   3.874  16.218 -0.9954 -0.9501 -1.5546
11261TIP3   OH255197   6.440   1.581  12.544 -0.2496  0.2715 -0.0433
11261TIP3    H155198   6.351   1.589  12.512 -1.1960 -0.8197  2.1154
11261TIP3    H255199   6.438   1.622  12.631  1.3766  0.2989  0.0121
11262TIP3   OH255200   5.947   1.672  13.022  0.5141  0.7147 -0.1539
11262TIP3    H155201   6.001   1.619  13.081 -1.5949 -1.5793 -0.0959
11262TIP3    H255202   5.968   1.762  13.045  1.3785 -0.0752  2.6020
11263TIP3   OH255203   5.294   0.799   3.502 -0.0316  0.0867  0.2145
11263TIP3    H155204   5.247   0.720   3.530 -1.2654  0.6293 -0.2811
11263TIP3    H255205   5.234   0.871   3.519  0.3015  0.7229 -1.1639
11264TIP3   OH255206   2.747   4.938  16.389  0.0083  0.1226  0.1539
11264TIP3    H155207   2.835   4.918  16.420  0.2160  1.9038  0.8297
11264TIP3    H255208   2.752   4.928  16.294  0.7530 -0.4170  0.2399
11265TIP3   OH255209   2.900   4.818  11.418  0.0924 -0.3150 -0.6698
11265TIP3    H155210   2.907   4.861  11.504  2.2187 -0.9480 -0.4640
11265TIP3    H255211   2.906   4.890  11.355  0.6033 -0.0349 -0.3077
11266TIP3   OH255212   2.661   1.444   1.576  0.0274  0.3875  0.3387
11266TIP3    H155213   2.716   1.384   1.627  2.6319 -0.3495 -2.9468
11266TIP3    H255214   2.574   1.404   1.577  0.7166 -1.2070  1.5675
11267TIP3   OH255215   0.578   1.556  10.753 -0.4553 -0.1436 -0.6323
11267TIP3    H155216   0.567   1.651  10.745  0.5515  0.0406 -0.0794
11267TIP3    H255217   0.588   1.526  10.663 -1.6255  0.1470 -0.8745
11268TIP3   OH255218   2.116   1.105   5.334 -0.3777  0.8359 -0.4338
11268TIP3    H155219   2.110   1.143   5.422 -1.3170 -0.8657  0.2665
11268TIP3    H255220   2.041   1.142   5.287 -0.7868  0.5367 -0.0240
11269TIP3   OH255221   5.860   5.636   1.256  0.5813  0.4506 -0.0344
11269TIP3    H155222   5.953   5.652   1.238  0.9108 -1.8734 -0.7666
11269TIP3    H255223   5.822   5.622   1.169 -0.1194 -0.1405  0.3599
11270TIP3   OH255224   1.639   1.413  16.276  0.1042  0.3635  0.4712
11270TIP3    H155225   1.732   1.405  16.258  0.0538  0.2333  0.2659
11270TIP3    H255226   1.610   1.324  16.296  0.0799  0.4457  0.8181
11271TIP3   OH255227   5.278   4.771   4.308 -0.4473  0.1270 -0.1059
11271TIP3    H155228   5.298   4.720   4.387 -0.8383 -0.7089 -0.5322
11271TIP3    H255229   5.263   4.705   4.240  1.5249  0.8403 -1.3098
11272TIP3   OH255230   6.136   2.622  10.792  0.0731  0.2145  0.9182
11272TIP3    H155231   6.136   2.702  10.741  2.4399 -0.6319 -0.5615
11272TIP3    H255232   6.063   2.571  10.757 -1.5621  1.6913  1.9907
11273TIP3   OH255233   3.098   5.525  13.016  0.8286 -0.4989 -0.0088
11273TIP3    H155234   3.101   5.514  12.921  1.6675 -0.8972  0.0484
11273TIP3    H255235   3.116   5.438  13.050  1.4848 -0.1704  0.5054
11274TIP3   OH255236   6.676   2.071  12.180  0.2494 -0.0028  0.0919
11274TIP3    H155237   6.588   2.072  12.142  0.1113 -1.3243  0.3192
11274TIP3    H255238   6.677   1.993  12.236  1.6667 -0.1981 -0.1675
11275TIP3   OH255239   2.610   6.318   0.116 -0.2405 -0.4925 -0.1279
11275TIP3    H155240   2.516   6.322   0.099 -0.0126 -0.1181 -1.4889
11275TIP3    H255241   2.649   6.364   0.041  1.0561 -1.2956  0.0305
11276TIP3   OH255242   2.500   4.888   0.684  0.1088  0.1101 -0.7263
11276TIP3    H155243   2.472   4.973   0.718 -1.0360 -1.0568  1.4873
11276TIP3    H255244   2.438   4.867   0.615 -1.6673 -0.3216  0.9273
11277TIP3   OH255245   5.204   2.521   0.601  0.2009 -0.3844  0.2259
11277TIP3    H155246   5.222   2.615   0.603  1.1472 -0.5049 -1.1725
11277TIP3    H255247   5.290   2.480   0.609 -0.3453 -1.2206  2.7898
11278TIP3   OH255248   6.665   3.428   4.428  0.1260  0.0894 -0.1484
11278TIP3    H155249   6.751   3.396   4.403 -0.4681 -0.9981 -0.9454
11278TIP3    H255250   6.652   3.506   4.374  0.1765 -0.3900 -0.8755
11279TIP3   OH255251   0.868   0.529  11.992  0.0540  0.7548  0.4078
11279TIP3    H155252   0.892   0.586  12.064 -0.3831  1.1444  0.2466
11279TIP3    H255253   0.934   0.546  11.924  0.6363  0.1779  0.8138
11280TIP3   OH255254   1.969   6.758  11.279 -0.5254 -0.1303 -0.2554
11280TIP3    H155255   2.024   6.731  11.205  2.6923  2.7831  0.7831
11280TIP3    H255256   1.990   6.696  11.348 -2.4762 -2.0087 -1.2365
11281TIP3   OH255257   1.483   3.177   0.763  0.2286 -0.2805 -0.9479
11281TIP3    H155258   1.563   3.174   0.815 -2.0888 -3.7740  3.0772
11281TIP3    H255259   1.488   3.100   0.706 -0.2834 -0.5427 -0.6429
11282TIP3   OH255260   6.627   3.299  14.236 -0.0338 -0.6392  0.1267
11282TIP3    H155261   6.619   3.241  14.312  0.2118 -0.5104  0.2495
11282TIP3    H255262   6.663   3.243  14.167 -0.2154 -0.7452  0.1180
11283TIP3   OH255263   1.543   1.257   4.221 -0.2472 -0.1357 -0.3644
11283TIP3    H155264   1.580   1.219   4.141 -0.4681 -0.8875 -0.1089
11283TIP3    H255265   1.587   1.342   4.228 -0.9686  0.4023 -1.8372
11284TIP3   OH255266   3.027   3.787  15.650  0.0019 -0.3171 -0.3232
11284TIP3    H155267   2.994   3.766  15.563 -0.8440  0.4063 -0.1948
11284TIP3    H255268   3.106   3.734  15.660 -0.6798 -1.4783 -0.9640
11285TIP3   OH255269   3.096   6.001  14.135 -0.3348 -0.4865  0.3884
11285TIP3    H155270   3.089   6.056  14.057  0.3669 -1.7138 -0.5819
11285TIP3    H255271   3.179   6.028  14.176  0.2855 -1.1710 -0.3868
11286TIP3   OH255272   1.442   3.204  15.083  0.6428 -0.1599 -0.0444
11286TIP3    H155273   1.495   3.126  15.074  2.3274  0.9493 -0.1474
11286TIP3    H255274   1.417   3.227  14.993 -0.9300 -1.2467  0.0776
11287TIP3   OH255275   6.675   2.058  15.978 -0.5933  0.2640  0.3854
11287TIP3    H155276   6.672   1.987  16.042 -1.5814 -0.3398 -0.3119
11287TIP3    H255277   6.741   2.118  16.013  2.0057 -2.0715 -0.1979
11288TIP3   OH255278   1.363   2.842   6.375 -0.0744 -0.1906  0.2654
11288TIP3    H155279   1.271   2.862   6.355 -0.3378  0.1256  1.6677
11288TIP3    H255280   1.371   2.861   6.468  1.2610 -0.8361  0.2947
11289TIP3   OH255281   5.332   1.991  14.569  0.5053 -0.6801 -0.2665
11289TIP3    H155282   5.389   1.940  14.627 -0.2374 -2.2814 -0.8832
11289TIP3    H255283   5.390   2.019  14.498  1.1857  0.4095  0.6702
11290TIP3   OH255284   2.866   0.760  14.070 -0.5604 -0.4919 -0.9052
11290TIP3    H155285   2.944   0.711  14.098 -0.8084 -0.9296 -0.9647
11290TIP3    H255286   2.889   0.794  13.983 -0.1897 -0.0460 -0.6389
11291TIP3   OH255287   4.378   4.432  11.785 -0.1069  0.0395  0.5377
11291TIP3    H155288   4.402   4.344  11.813  0.8983  0.7270  1.9698
11291TIP3    H255289   4.346   4.421  11.695 -0.1799 -1.7900  0.7429
11292TIP3   OH255290   4.410   5.460   5.508  0.1595 -0.4135 -0.5663
11292TIP3    H155291   4.431   5.379   5.555 -0.4222 -0.9452 -1.2078
11292TIP3    H255292   4.469   5.459   5.433 -0.4010 -0.6487 -1.0074
11293TIP3   OH255293   2.053   2.386   4.525  0.0063 -0.3723  0.0145
11293TIP3    H155294   2.064   2.438   4.604  0.4626  0.0793 -0.3360
11293TIP3    H255295   2.129   2.408   4.471 -1.2443  0.8501 -1.3873
11294TIP3   OH255296   1.365   2.858   2.261 -0.1096  0.4646 -0.7904
11294TIP3    H155297   1.369   2.865   2.166 -4.0039 -0.8588 -1.2192
11294TIP3    H255298   1.295   2.919   2.287 -0.2161 -0.3599  1.0279
11295TIP3   OH255299   0.021   3.198   0.356 -0.7314  0.0858 -0.4599
11295TIP3    H155300   0.085   3.135   0.324  0.4159  1.4617 -0.9567
11295TIP3    H255301   0.057   3.283   0.334 -2.2935  0.9421  0.0992
11296TIP3   OH255302   4.773   1.548   1.756  0.3102  0.1185 -0.0583
11296TIP3    H155303   4.685   1.570   1.787 -0.9026 -2.5554 -1.2665
11296TIP3    H255304   4.804   1.482   1.818  0.7053 -0.2305 -0.6166
11297TIP3   OH255305   1.552   5.017  13.129  0.4935  0.5342 -0.6295
11297TIP3    H155306   1.610   4.946  13.154  0.5320  0.6644 -0.3363
11297TIP3    H255307   1.562   5.025  13.034  0.2779 -0.0301 -0.7022
11298TIP3   OH255308   6.061   4.642  11.456  0.0655 -0.8312 -0.1015
11298TIP3    H155309   6.114   4.700  11.401 -0.2495  0.2417  0.6967
11298TIP3    H255310   6.010   4.590  11.394 -1.3510  1.3419 -0.8624
11299TIP3   OH255311   3.959   4.517  14.375  0.3520 -0.5037 -0.5015
11299TIP3    H155312   3.894   4.464  14.329  0.6838  0.2504 -1.8912
11299TIP3    H255313   3.945   4.496  14.467 -2.0579 -0.1599 -0.7123
11300TIP3   OH255314   2.304   6.703   3.637 -0.2029  0.2630  0.5773
11300TIP3    H155315   2.292   6.793   3.668  1.2246 -0.0863  2.3199
11300TIP3    H255316   2.388   6.705   3.591  0.8263 -0.5232  2.3200
11301TIP3   OH255317   3.696   6.179  10.983  0.0552  0.7746  0.0527
11301TIP3    H155318   3.783   6.219  10.973 -0.3123  1.4460 -0.5913
11301TIP3    H255319   3.712   6.085  10.978  0.7072  0.9012 -0.4114
11302TIP3   OH255320   3.814   0.632  11.310  0.4218 -0.0350 -0.8434
11302TIP3    H155321   3.859   0.631  11.225  1.4784 -1.3271 -0.3184
11302TIP3    H255322   3.861   0.699  11.360  0.6956 -0.2215 -0.8446
11303TIP3   OH255323   4.653   3.983   2.986  0.3551 -0.1712  0.4561
11303TIP3    H155324   4.743   3.983   2.952  1.5510 -0.2077  3.3509
11303TIP3    H255325   4.645   4.067   3.032 -1.5978  0.4073 -0.8195
11304TIP3   OH255326   6.378   3.572  16.973 -0.1581 -0.3104  0.1190
11304TIP3    H155327   6.339   3.631  16.910  3.1139  1.6315 -0.3446
11304TIP3    H255328   6.305   3.542  17.027 -2.6547  0.2110 -2.7265
11305TIP3   OH255329   5.803   4.488   4.023  0.6954 -0.6326 -0.2928
11305TIP3    H155330   5.869   4.436   3.976  1.5845  0.5406 -0.3811
11305TIP3    H255331   5.833   4.579   4.014 -0.3411 -0.1792  0.6230
11306TIP3   OH255332   4.411   1.452   3.238 -0.0276 -0.4125  0.1258
11306TIP3    H155333   4.464   1.519   3.282 -1.9097  1.3661 -0.1718
11306TIP3    H255334   4.472   1.381   3.221  1.7629  0.6629  1.6730
11307TIP3   OH255335   1.047   3.826   6.050  0.4495 -0.0993  0.5310
11307TIP3    H155336   1.137   3.796   6.035  0.5072 -0.7995  2.1431
11307TIP3    H255337   1.050   3.871   6.134 -0.0429  2.9228 -0.9103
11308TIP3   OH255338   4.989   3.813   3.632  0.0994  0.7100 -0.6749
11308TIP3    H155339   4.929   3.793   3.704  0.3321  0.8091 -0.4487
11308TIP3    H255340   5.056   3.745   3.638  1.3176  1.9459  0.5770
11309TIP3   OH255341   1.137   2.830  13.318 -0.2865  0.5923  0.1649
11309TIP3    H155342   1.160   2.917  13.350  0.9134 -0.0828  1.2694
11309TIP3    H255343   1.207   2.773  13.351 -2.0088 -1.1104  1.1179
11310TIP3   OH255344   2.771   4.161  11.599  0.3344  0.0451 -0.0514
11310TIP3    H155345   2.800   4.157  11.690  2.1245  0.7847 -0.5537
11310TIP3    H255346   2.688   4.113  11.599  1.2058 -1.6407  1.6163
11311TIP3   OH255347   1.783   5.870   3.295 -0.1532  0.1552 -0.0223
11311TIP3    H155348   1.843   5.842   3.364  0.1300  0.0546 -0.3082
11311TIP3    H255349   1.748   5.954   3.326  0.9339  0.7420 -0.3339
11312TIP3   OH255350   3.938   5.924   2.275  0.5727 -0.2581  0.0115
11312TIP3    H155351   4.030   5.920   2.301  0.7016  0.7529 -0.2244
11312TIP3    H255352   3.893   5.956   2.353  0.3393 -1.2392  0.2868
11313TIP3   OH255353   4.498   3.081   0.247  0.6267 -0.4318 -0.0248
11313TIP3    H155354   4.494   3.154   0.309 -1.4000  0.5116 -1.1700
11313TIP3    H255355   4.462   3.006   0.295  1.4924 -0.3959  0.7248
11314TIP3   OH255356   2.654   4.550  12.106 -0.0933  0.0303 -0.0712
11314TIP3    H155357   2.633   4.470  12.058  1.8536  0.5088 -1.8814
11314TIP3    H255358   2.749   4.551  12.111 -0.1069  1.8502  0.5904
11315TIP3   OH255359   0.934   0.438   5.588  0.0149 -0.0864 -0.1595
11315TIP3    H155360   0.970   0.498   5.523  0.5629  1.7721  1.7512
11315TIP3    H255361   0.843   0.427   5.563 -0.0014  1.2421 -0.7896
11316TIP3   OH255362   3.825   4.457  14.121  0.0996  0.2632  0.0730
11316TIP3    H155363   3.820   4.362  14.124  2.2336  0.0864 -0.1269
11316TIP3    H255364   3.881   4.475  14.045  0.4080  1.6347  0.6009
11317TIP3   OH255365   2.104   5.467   2.396 -0.0536  0.0268  0.3830
11317TIP3    H155366   2.013   5.496   2.406 -0.3889 -1.2160  1.1523
11317TIP3    H255367   2.135   5.454   2.485  1.8074  3.0218  0.2915
11318TIP3   OH255368   1.910   2.669   4.012  0.0888  0.0274  0.4748
11318TIP3    H155369   1.817   2.650   4.006 -0.2363  0.9575  1.9679
11318TIP3    H255370   1.952   2.604   3.955 -1.5294  0.4660 -1.3137
11319TIP3   OH255371   0.395   3.434   4.252  0.6072 -0.0242  0.0375
11319TIP3    H155372   0.338   3.508   4.231 -1.0825 -1.0816  0.7586
11319TIP3    H255373   0.364   3.363   4.196  1.8304 -0.3710 -0.2242
11320TIP3   OH255374   3.040   4.461   2.534  0.2783 -0.0871  1.0005
11320TIP3    H155375   2.970   4.408   2.574  1.3195 -1.4277  1.1146
11320TIP3    H255376   3.008   4.551   2.540 -1.1725 -0.6107  1.5932
11321TIP3   OH255377   3.647   2.343  13.938 -0.0926  0.5166 -0.0597
11321TIP3    H155378   3.555   2.326  13.960 -0.5425  2.5102 -0.2277
11321TIP3    H255379   3.672   2.269  13.883 -2.0003  0.5832 -1.1127
11322TIP3   OH255380   1.063   3.440   4.537 -0.1837 -0.0394 -0.0130
11322TIP3    H155381   1.125   3.512   4.542  0.4168 -0.6165  1.1832
11322TIP3    H255382   1.046   3.416   4.628 -1.4506 -0.5111 -0.3418
11323TIP3   OH255383   2.362   1.449  11.851  0.1925  0.0883 -0.1924
11323TIP3    H155384   2.315   1.511  11.795 -1.4633 -0.9340  0.0147
11323TIP3    H255385   2.379   1.497  11.932 -1.5570  0.1360  0.1762
11324TIP3   OH255386   4.541   1.275   5.883 -0.1719  0.0195 -0.2214
11324TIP3    H155387   4.496   1.338   5.940  1.1148  0.0980  0.7502
11324TIP3    H255388   4.574   1.207   5.942  1.0143 -0.0082 -0.8713
11325TIP3   OH255389   3.140   2.695  13.858  0.0753 -0.7053 -0.1299
11325TIP3    H155390   3.159   2.675  13.766  1.1348 -0.1723 -0.0472
11325TIP3    H255391   3.066   2.640  13.880  0.2418 -1.3464 -1.1148
11326TIP3   OH255392   1.079   0.474  15.296 -0.3477  0.3203  0.1328
11326TIP3    H155393   1.125   0.503  15.218 -2.7585  0.5987 -1.3015
11326TIP3    H255394   1.143   0.423  15.345  1.5325  0.9958 -1.5041
11327TIP3   OH255395   5.976   0.115  16.047 -0.4278  0.3729  0.3627
11327TIP3    H155396   6.062   0.155  16.050 -1.0318  1.7717 -0.1231
11327TIP3    H255397   5.977   0.060  15.969  0.3125 -0.3554  0.8749
11328TIP3   OH255398   4.101   4.644  14.158 -0.1809  0.3538  0.5178
11328TIP3    H155399   4.053   4.608  14.085  1.4940 -0.7610 -0.0999
11328TIP3    H255400   4.059   4.608  14.236 -0.3805 -0.5204  0.0084
11329TIP3   OH255401   2.652   0.239  11.775  0.5494 -0.2342  0.4860
11329TIP3    H155402   2.663   0.277  11.862  0.0138  0.5563  0.2177
11329TIP3    H255403   2.570   0.275  11.742  0.8804 -0.2923 -0.4602
11330TIP3   OH255404   5.199   3.106   4.443  0.2904 -0.3274  0.2426
11330TIP3    H155405   5.136   3.130   4.375  0.6885  1.3307  0.3987
11330TIP3    H255406   5.280   3.088   4.396 -0.4515 -3.4225 -0.0495
11331TIP3   OH255407   1.604   3.530   3.610 -0.6769 -0.3163  0.3411
11331TIP3    H155408   1.654   3.529   3.691 -0.8138 -0.4576  0.4241
11331TIP3    H255409   1.659   3.578   3.548 -0.7224  0.0873  0.6142
11332TIP3   OH255410   3.034   5.044  11.680 -0.6818 -0.2957  0.4608
11332TIP3    H155411   3.081   5.010  11.604 -0.1814  0.4167  0.4510
11332TIP3    H255412   2.981   4.970  11.710  0.2472 -1.0271  0.3243
11333TIP3   OH255413   4.023   4.758   5.288 -0.0474  0.1173  0.7079
11333TIP3    H155414   4.088   4.725   5.350 -0.4418  0.6246  1.3966
11333TIP3    H255415   4.019   4.852   5.305 -1.3200  0.0174  1.0170
11334TIP3   OH255416   1.984   3.989  17.222 -0.2321  0.2608  0.6397
11334TIP3    H155417   1.956   4.076  17.247  1.1092  0.5739  1.1510
11334TIP3    H255418   2.078   3.987  17.243  0.5223 -0.1983 -2.2975
11335TIP3   OH255419   0.633   2.794  12.763  0.2387  0.1374 -0.1809
11335TIP3    H155420   0.701   2.729  12.744 -0.6892 -2.0511  2.9888
11335TIP3    H255421   0.672   2.851  12.829 -0.5862 -0.5316  0.9311
11336TIP3   OH255422   4.138   5.470  13.941  0.2844  0.1508 -0.0876
11336TIP3    H155423   4.054   5.424  13.939  0.4286 -0.1247  0.0779
11336TIP3    H255424   4.129   5.540  13.877 -0.4884  0.8717  0.7827
11337TIP3   OH255425   6.302   3.632  11.825  0.2179 -0.2356  0.1936
11337TIP3    H155426   6.257   3.692  11.766  0.0118 -1.0327 -0.4791
11337TIP3    H255427   6.365   3.687  11.872 -0.2817  0.5797 -0.0760
11338TIP3   OH255428   1.388   1.415  11.514 -0.7031  0.3554  0.2758
11338TIP3    H155429   1.465   1.396  11.567 -0.3641  0.4136 -0.1848
11338TIP3    H255430   1.315   1.374  11.561 -0.0673 -1.8388 -0.4910
11339TIP3   OH255431   0.926   1.647  15.813 -0.4395 -0.3116 -0.1222
11339TIP3    H155432   0.920   1.567  15.761 -1.0939  0.3042 -1.0312
11339TIP3    H255433   0.945   1.715  15.749 -1.3992  0.4889  0.4261
11340TIP3   OH255434   0.656   0.065  15.185  0.2724 -0.5496  0.0727
11340TIP3    H155435   0.745   0.095  15.207  0.6283 -0.1420 -1.7364
11340TIP3    H255436   0.669   0.002  15.113 -0.8718 -0.8531  0.1103
11341TIP3   OH255437   2.624   3.882  14.918  0.1959 -0.6247  0.1913
11341TIP3    H155438   2.658   3.923  14.838  0.5310 -0.1310  0.5853
11341TIP3    H255439   2.563   3.947  14.953  0.0474 -0.8443  0.3360
11342TIP3   OH255440   4.176   3.539  13.857  0.0143 -0.4985 -0.5050
11342TIP3    H155441   4.203   3.508  13.770 -1.4696 -2.8937 -0.2168
11342TIP3    H255442   4.081   3.545  13.852 -0.1001 -0.7317  0.9621
11343TIP3   OH255443   5.669   1.506   2.974  0.0583  0.4671 -0.2680
11343TIP3    H155444   5.647   1.431   3.031 -0.7372  0.1251 -1.0170
11343TIP3    H255445   5.648   1.476   2.886 -0.0133  1.4887 -0.6072
11344TIP3   OH255446   1.974   2.284  11.766  0.5017  0.1918 -0.2660
11344TIP3    H155447   1.893   2.333  11.747 -0.1679 -1.2722 -1.3616
11344TIP3    H255448   1.985   2.225  11.692  1.2188 -1.3861  1.0180
11345TIP3   OH255449   0.872   0.960   1.064  0.1794 -0.1738  0.0695
11345TIP3    H155450   0.893   0.974   0.972 -0.5478 -0.9152 -0.2182
11345TIP3    H255451   0.814   1.033   1.087 -1.3290 -1.0927 -0.6526
11346TIP3   OH255452   1.808   3.724   3.478 -0.5820 -0.0356  0.2812
11346TIP3    H155453   1.745   3.787   3.443 -1.4524 -0.9025  0.2205
11346TIP3    H255454   1.859   3.695   3.402 -0.5059  0.2431  0.2283
11347TIP3   OH255455   6.626   4.184  13.803  0.4467 -0.0156 -0.0637
11347TIP3    H155456   6.572   4.127  13.748  1.4422 -0.5044 -0.5688
11347TIP3    H255457   6.666   4.246  13.741 -1.4634  2.0082  0.5884
11348TIP3   OH255458   6.041   2.694   3.889  0.0124 -0.6194  0.9168
11348TIP3    H155459   5.961   2.671   3.934  1.2318 -2.5962  2.2191
11348TIP3    H255460   6.111   2.679   3.953  1.4971  0.4541 -0.3407
11349TIP3   OH255461   1.563   3.072   1.143 -0.6382 -0.7720 -0.0521
11349TIP3    H155462   1.468   3.082   1.145 -0.7695 -1.6657 -0.8422
11349TIP3    H255463   1.578   2.979   1.162  0.0567 -0.6994 -0.2212
11350TIP3   OH255464   5.171   4.751  17.280  0.2709 -0.4060 -0.0179
11350TIP3    H155465   5.229   4.677  17.296 -0.0353 -0.8992 -1.0766
11350TIP3    H255466   5.173   4.762  17.185 -0.7640  0.0729  0.0059
11351TIP3   OH255467   5.360   3.433  14.347 -0.0488  0.4153  0.1416
11351TIP3    H155468   5.366   3.529  14.350  0.8151  0.3557  0.7849
11351TIP3    H255469   5.365   3.412  14.254 -0.1189  0.9948  0.0022
11352TIP3   OH255470   2.595   5.159  12.686 -0.1096 -0.2656  0.3500
11352TIP3    H155471   2.507   5.126  12.667  0.1222  0.2193 -1.8051
11352TIP3    H255472   2.642   5.152  12.603  1.5265  0.6024  1.1524
11353TIP3   OH255473   2.997   2.674  13.494 -0.3920  0.4366  0.4120
11353TIP3    H155474   2.975   2.708  13.407 -0.0995  0.0556  0.1854
11353TIP3    H255475   2.991   2.579  13.485  0.5570  0.3503  0.5513
11354TIP3   OH255476   1.061   2.617  16.241  0.0384 -0.3365 -0.0590
11354TIP3    H155477   1.119   2.683  16.279 -0.3908  1.2915 -2.0599
11354TIP3    H255478   1.118   2.542  16.224  0.7047 -0.2290  1.4990
11355TIP3   OH255479   0.979   3.563  15.656  0.4823  0.5046  0.2493
11355TIP3    H155480   1.001   3.473  15.681  0.5891  0.4165 -0.1640
11355TIP3    H255481   0.886   3.572  15.679 -0.6173 -0.9139 -3.0180
11356TIP3   OH255482   6.712   1.197   1.410 -1.0986  0.3847  0.0465
11356TIP3    H155483   6.676   1.129   1.353 -0.3505  0.6428 -0.7431
11356TIP3    H255484   6.784   1.155   1.456 -1.6029  0.2215  0.7155
11357TIP3   OH255485   6.318   1.098  13.270 -0.3849  0.5138  0.1403
11357TIP3    H155486   6.294   1.190  13.259  0.3137  0.9036  1.6443
11357TIP3    H255487   6.346   1.091  13.361  1.6504 -0.7074 -0.5201
11358TIP3   OH255488   3.735   2.581  14.118  0.3565 -0.2152 -0.8558
11358TIP3    H155489   3.762   2.520  14.187  2.2285  2.3962  0.9319
11358TIP3    H255490   3.733   2.528  14.039  0.0878 -2.9500  0.8482
11359TIP3   OH255491   4.211   4.952  14.250  0.1309 -0.1765  0.5117
11359TIP3    H155492   4.172   4.928  14.165 -1.6323  1.6854  0.7249
11359TIP3    H255493   4.304   4.935  14.238  0.2595  1.7802 -2.5221
11360TIP3   OH255494   4.546   0.524  15.676 -0.4326  0.6453  0.0936
11360TIP3    H155495   4.478   0.570  15.627  1.0263  2.5239 -0.2721
11360TIP3    H255496   4.497   0.468  15.737 -2.2811  0.3549 -1.5542
11361TIP3   OH255497   2.948   1.530   5.073  0.4367 -0.3009 -0.0571
11361TIP3    H155498   2.926   1.599   5.010 -1.2397 -0.0614  0.7153
11361TIP3    H255499   2.945   1.449   5.023 -0.2742 -0.0554 -0.4306
11362TIP3   OH255500   4.799   5.660   4.280 -0.0923  0.2555 -0.2557
11362TIP3    H155501   4.735   5.595   4.308 -1.0163  0.8742 -0.8848
11362TIP3    H255502   4.814   5.714   4.358 -0.9003  0.5546 -0.2977
11363TIP3   OH255503   1.753   4.795  15.289 -0.2838  0.5719 -0.5307
11363TIP3    H155504   1.816   4.807  15.359 -1.0796  0.0664  0.2931
11363TIP3    H255505   1.737   4.884  15.256  0.8018  0.7110 -0.7291
11364TIP3   OH255506   3.577   1.653   4.780  0.3635  0.0583 -0.2528
11364TIP3    H155507   3.652   1.681   4.728  1.3463  0.6769  1.4139
11364TIP3    H255508   3.614   1.593   4.845 -0.1698  1.8481  1.8382
11365TIP3   OH255509   2.487   5.782   5.998  0.1939  0.3698 -0.1100
11365TIP3    H155510   2.421   5.781   6.067 -1.1586  0.8186 -1.3389
11365TIP3    H255511   2.552   5.845   6.028 -0.1277  0.2054  0.9629
11366TIP3   OH255512   2.764   6.224  12.376  0.4895 -0.5417 -0.4221
11366TIP3    H155513   2.805   6.173  12.446 -0.7302 -0.1655  0.6041
11366TIP3    H255514   2.706   6.162  12.332 -0.7158 -0.1852  0.5930
11367TIP3   OH255515   4.193   3.547  15.189  0.2903  0.0689  0.0910
11367TIP3    H155516   4.144   3.611  15.241  0.2842  0.2977 -0.1947
11367TIP3    H255517   4.149   3.548  15.103  1.0496  0.5713 -0.2971
11368TIP3   OH255518   1.489   3.562   4.773 -0.0965  0.0289 -0.0962
11368TIP3    H155519   1.501   3.643   4.823 -1.7873  1.2321 -1.4935
11368TIP3    H255520   1.404   3.529   4.803 -1.5410  1.2001 -2.5806
11369TIP3   OH255521   0.045   1.749  15.498  0.2417 -0.5120 -0.0112
11369TIP3    H155522   0.099   1.705  15.565  1.2255  0.4238 -0.1644
11369TIP3    H255523   0.022   1.679  15.437 -0.4603 -1.3382  1.1500
11370TIP3   OH255524   5.626   6.403  16.193 -0.0868  0.0042  0.3013
11370TIP3    H155525   5.531   6.407  16.180 -0.2568  0.8062  1.6556
11370TIP3    H255526   5.661   6.478  16.145 -0.1325 -0.2810 -0.1830
11371TIP3   OH255527   1.081   3.857  15.941 -0.2532 -0.6605  0.1094
11371TIP3    H155528   1.136   3.811  15.878 -0.7984  0.0948 -0.9534
11371TIP3    H255529   1.142   3.888  16.008  0.4010 -1.1036 -0.2700
11372TIP3   OH255530   4.001   5.621   2.548  0.0717 -0.3617 -0.3538
11372TIP3    H155531   4.080   5.675   2.545  0.3358 -0.6674  0.6926
11372TIP3    H255532   3.929   5.682   2.537  0.4750 -0.2955 -3.3060
11373TIP3   OH255533   3.697   4.084   5.458  0.0193  0.0773  0.2331
11373TIP3    H155534   3.718   3.993   5.438 -0.6034 -0.3907  1.6048
11373TIP3    H255535   3.782   4.129   5.456  0.3697 -0.5809 -0.1617
11374TIP3   OH255536   0.220   2.621  16.353 -1.2285 -0.1451  1.0565
11374TIP3    H155537   0.265   2.630  16.269 -2.1132  1.6916  0.7309
11374TIP3    H255538   0.176   2.537  16.348 -0.4114 -0.5346  0.1187
11375TIP3   OH255539   3.939   4.140  11.688 -1.1211 -0.0260 -0.6475
11375TIP3    H155540   4.015   4.082  11.694 -2.7744 -2.2933 -0.5666
11375TIP3    H255541   3.977   4.227  11.677  1.5016 -0.9197  0.4685
11376TIP3   OH255542   4.807   3.400  15.270  0.0867 -0.5984 -0.1222
11376TIP3    H155543   4.878   3.342  15.295  0.6425  0.2253  0.2537
11376TIP3    H255544   4.837   3.444  15.190  0.2876  0.2270  0.3927
11377TIP3   OH255545   2.492   5.195  16.530  0.4317  0.0743  0.1869
11377TIP3    H155546   2.581   5.227  16.545 -0.1270  0.6389  2.6459
11377TIP3    H255547   2.503   5.102  16.513  1.4267 -0.1006  1.6265
11378TIP3   OH255548   4.889   2.368  16.033 -0.2213 -0.5441 -0.4227
11378TIP3    H155549   4.813   2.318  16.004 -0.6366 -0.9596  1.2826
11378TIP3    H255550   4.885   2.449  15.982 -0.9968 -1.1484 -1.3609
11379TIP3   OH255551   6.144   2.350   1.437 -0.7626 -0.4666  0.0552
11379TIP3    H155552   6.152   2.259   1.411 -1.1352 -0.4269 -0.2024
11379TIP3    H255553   6.084   2.349   1.511 -0.0511 -0.5284  0.6434
11380TIP3   OH255554   6.679   0.530  15.985 -0.1367  0.1676 -0.9113
11380TIP3    H155555   6.585   0.545  15.996  0.1542  1.5205  0.0222
11380TIP3    H255556   6.717   0.618  15.987  1.0843 -0.3078 -2.0732
11381TIP3   OH255557   4.021   5.487  16.421  0.1659 -0.0702 -0.4205
11381TIP3    H155558   3.976   5.417  16.468  1.1650  0.3795  1.2717
11381TIP3    H255559   3.980   5.568  16.451 -0.0069  0.1766 -1.2774
11382TIP3   OH255560   6.319   2.646   3.054  0.0622  0.1641 -0.4246
11382TIP3    H155561   6.244   2.667   3.110 -0.8314  0.8964 -1.8580
11382TIP3    H255562   6.288   2.576   2.996  0.1630  1.0929 -1.6336
11383TIP3   OH255563   3.386   1.459   0.289 -0.0179 -0.1238 -1.3317
11383TIP3    H155564   3.336   1.426   0.364 -0.7316  0.6510 -1.4611
11383TIP3    H255565   3.440   1.530   0.325 -1.0017  0.8330 -1.7034
11384TIP3   OH255566   4.829   2.929  13.798  0.6341  0.2468 -0.0222
11384TIP3    H155567   4.752   2.891  13.841 -1.3943  1.8491 -2.0251
11384TIP3    H255568   4.813   3.023  13.801  3.6574  0.8353  1.4216
11385TIP3   OH255569   3.619   5.924   6.039 -0.2161  0.3819  0.1519
11385TIP3    H155570   3.695   5.898   5.986 -1.7376 -2.2519 -0.8909
11385TIP3    H255571   3.606   5.851   6.099 -1.1780  1.3989  1.2313
11386TIP3   OH255572   4.948   2.203   4.090 -0.2925 -0.1955 -0.8441
11386TIP3    H155573   4.939   2.281   4.145  0.0912 -0.0951 -0.9273
11386TIP3    H255574   5.024   2.220   4.035  0.0106 -0.7778 -0.6135
11387TIP3   OH255575   0.549   3.154   2.981 -0.2419  0.0505 -0.2455
11387TIP3    H155576   0.589   3.079   3.024  1.7169  0.7072 -0.8429
11387TIP3    H255577   0.541   3.219   3.050 -0.1503 -0.0360 -0.1518
11388TIP3   OH255578   0.248   3.436  15.411 -0.3730  0.0863 -0.4419
11388TIP3    H155579   0.301   3.500  15.458  0.6200 -0.0715 -1.3109
11388TIP3    H255580   0.162   3.476  15.403 -0.1131  0.7707  0.1160
11389TIP3   OH255581   1.270   2.738  12.074  0.2803 -0.1079 -0.3358
11389TIP3    H155582   1.272   2.764  12.166  2.5287  1.1663 -0.6852
11389TIP3    H255583   1.176   2.730  12.054 -0.2858  0.5336  1.7919
11390TIP3   OH255584   1.428   0.812  10.780  0.1564  0.5104  0.2802
11390TIP3    H155585   1.484   0.875  10.824  0.5021  1.7477 -1.7896
11390TIP3    H255586   1.451   0.820  10.688  1.2108 -3.6657 -0.0054
11391TIP3   OH255587   1.298   5.609   6.341  0.8080 -0.5766 -0.0899
11391TIP3    H155588   1.218   5.565   6.311 -1.3495  1.3604  2.3056
11391TIP3    H255589   1.334   5.650   6.263 -1.3029 -0.4501 -1.0527
11392TIP3   OH255590   0.047   0.507   3.735 -0.3961 -0.0993 -0.1510
11392TIP3    H155591   0.014   0.476   3.650 -0.8914 -0.6634  0.2335
11392TIP3    H255592   0.005   0.592   3.747  1.4565  1.0663 -1.4998
11393TIP3   OH255593   4.557   5.505  11.831 -1.0936  0.5858 -0.0336
11393TIP3    H155594   4.566   5.584  11.886  3.6212 -0.6105  1.3875
11393TIP3    H255595   4.612   5.523  11.755 -1.9495 -0.4424 -0.9146
11394TIP3   OH255596   0.484   4.407   2.759 -0.7432 -0.6581 -0.2676
11394TIP3    H155597   0.493   4.317   2.791  1.2471 -0.0144  1.1642
11394TIP3    H255598   0.521   4.406   2.671  1.3109 -0.8371  0.5600
11395TIP3   OH255599   3.005   1.129  12.900  0.3825 -0.3864  0.2645
11395TIP3    H155600   3.067   1.116  12.972  1.6040  0.9168 -0.4794
11395TIP3    H255601   2.945   1.056  12.906 -1.3109  1.0574  4.3176
11396TIP3   OH255602   2.726   2.320   3.968  0.1470  1.2346  0.0096
11396TIP3    H155603   2.819   2.307   3.987  0.2289  0.5073 -0.8244
11396TIP3    H255604   2.724   2.339   3.874 -0.6306  0.3058 -0.1734
11397TIP3   OH255605   0.474   1.097   0.788 -0.0570 -0.1040  0.5830
11397TIP3    H155606   0.504   1.122   0.875 -0.7420  1.1438  0.4909
11397TIP3    H255607   0.530   1.024   0.763  0.4942 -0.1374  1.8502
11398TIP3   OH255608   0.663   0.321   0.288  0.0280 -0.0653 -0.5111
11398TIP3    H155609   0.654   0.294   0.379 -0.5928  1.8750  0.0467
11398TIP3    H255610   0.716   0.252   0.248 -0.0055 -1.1498  1.2083
11399TIP3   OH255611   3.196   2.841  14.724  0.8278 -0.8339  0.2827
11399TIP3    H155612   3.103   2.821  14.713  0.2143  2.0047 -0.4877
11399TIP3    H255613   3.240   2.782  14.663 -0.2889 -2.8964  1.3270
11400TIP3   OH255614   3.318   0.184   3.290 -0.1960  0.8514 -0.4249
11400TIP3    H155615   3.384   0.220   3.349  0.3796  0.5269 -0.8543
11400TIP3    H255616   3.368   0.138   3.224 -0.8838 -0.2947 -0.1833
11401TIP3   OH255617   4.016   6.266   4.168 -0.3208  0.6085 -0.0898
11401TIP3    H155618   4.078   6.332   4.200 -1.0450  2.1034 -1.6385
11401TIP3    H255619   4.072   6.193   4.140  0.5016  0.5674  1.5208
11402TIP3   OH255620   1.336   4.669   0.593 -0.1040 -0.5218  0.0307
11402TIP3    H155621   1.424   4.701   0.608 -0.1075  0.0853 -1.1104
11402TIP3    H255622   1.304   4.720   0.518 -1.0198 -1.4773 -0.2600
11403TIP3   OH255623   4.411   6.632  12.341 -0.0596 -0.5352  0.1714
11403TIP3    H155624   4.336   6.626  12.400  1.4286 -0.5390  2.1759
11403TIP3    H255625   4.396   6.564  12.275 -2.3727  0.2584 -0.2205
11404TIP3   OH255626   3.836   3.909   5.300  0.3713 -0.0806 -0.5751
11404TIP3    H155627   3.903   3.847   5.273  0.5488 -0.1918  0.1049
11404TIP3    H255628   3.844   3.982   5.238 -1.1899 -1.5908 -2.6957
11405TIP3   OH255629   3.103   4.022  11.934  0.3177 -0.6525 -0.1035
11405TIP3    H155630   3.185   4.023  11.982  0.1457 -0.9408  0.1992
11405TIP3    H255631   3.122   3.971  11.854  0.7274  0.2223 -0.5746
11406TIP3   OH255632   2.008   0.191   2.944  0.0019 -0.3001 -0.0631
11406TIP3    H155633   1.917   0.213   2.924 -0.1008 -0.7468 -0.1140
11406TIP3    H255634   2.041   0.150   2.863  0.2721 -0.0711 -0.0717
11407TIP3   OH255635   4.565   4.868  14.565  0.7508  0.6502 -0.2918
11407TIP3    H155636   4.595   4.777  14.555 -0.4998  0.2279 -0.4244
11407TIP3    H255637   4.617   4.918  14.502 -0.3854 -0.4272 -2.1849
11408TIP3   OH255638   0.329   6.129  16.382 -0.0652 -0.5081  0.0906
11408TIP3    H155639   0.338   6.218  16.347  0.9673 -0.0706  1.3912
11408TIP3    H255640   0.399   6.080  16.338  0.3398 -0.3012  0.4997
11409TIP3   OH255641   4.271   4.612   2.862 -0.0009  0.1303  0.1287
11409TIP3    H155642   4.243   4.665   2.937  0.4169  1.9470 -0.9396
11409TIP3    H255643   4.332   4.669   2.814  1.4436 -1.7867 -0.4261
11410TIP3   OH255644   5.890   2.747   3.474  0.6794  0.3764 -0.2138
11410TIP3    H155645   5.857   2.792   3.552  0.3289 -0.9649  0.4374
11410TIP3    H255646   5.973   2.709   3.502  0.9193  0.5194 -0.7270
11411TIP3   OH255647   2.808   5.088  11.297 -0.5968  0.4684 -0.2481
11411TIP3    H155648   2.857   5.161  11.261  0.5420  0.8299  1.8967
11411TIP3    H255649   2.731   5.128  11.338 -0.0307  0.5046  0.8266
11412TIP3   OH255650   2.319   2.360  13.692  0.0653 -0.2939 -0.1375
11412TIP3    H155651   2.370   2.292  13.649 -1.2010 -0.8772 -0.7832
11412TIP3    H255652   2.269   2.314  13.759 -0.5864  0.0440 -0.3827
11413TIP3   OH255653   4.233   0.071   4.135  0.0856  1.0287 -0.3510
11413TIP3    H155654   4.193   0.112   4.058 -0.2097  0.5703 -0.4472
11413TIP3    H255655   4.177   0.095   4.208 -1.0540 -0.5400 -0.6495
11414TIP3   OH255656   5.516   4.729  13.291  0.3514  0.2715  0.2034
11414TIP3    H155657   5.483   4.796  13.232 -0.3081 -0.0213  0.2273
11414TIP3    H255658   5.588   4.771  13.338 -0.0655  0.9622  0.2331
11415TIP3   OH255659   6.253   5.532   5.743 -0.4842  0.1561  0.1581
11415TIP3    H155660   6.307   5.453   5.751 -1.2093 -0.2719  1.1765
11415TIP3    H255661   6.242   5.562   5.833 -0.1534  1.4872 -0.2243
11416TIP3   OH255662   3.034   5.024   1.549 -0.8720  0.0583 -0.3602
11416TIP3    H155663   3.105   5.088   1.549 -0.6277 -0.2020 -0.9571
11416TIP3    H255664   3.047   4.973   1.628 -0.2510 -0.1366 -0.5836
11417TIP3   OH255665   5.836   2.278   6.278 -0.2204 -0.6906  0.0290
11417TIP3    H155666   5.840   2.374   6.277 -1.9110 -0.5738  0.9019
11417TIP3    H255667   5.756   2.258   6.325  0.0567 -2.5573 -0.2191
11418TIP3   OH255668   5.371   4.188  12.091 -0.3161 -0.3385  0.1449
11418TIP3    H155669   5.378   4.284  12.097 -2.1743 -0.1038 -0.6595
11418TIP3    H255670   5.425   4.156  12.163  1.0080  1.2766 -0.0489
11419TIP3   OH255671   0.413   1.097   3.723  0.7059 -0.8414 -0.0042
11419TIP3    H155672   0.424   1.158   3.796 -0.4107 -0.3472 -0.2274
11419TIP3    H255673   0.402   1.011   3.765 -1.7051 -0.3241  0.5404
11420TIP3   OH255674   1.893   4.705  12.994 -0.0438  0.0408  0.0123
11420TIP3    H155675   1.953   4.780  12.997  1.1852 -0.8708 -0.5401
11420TIP3    H255676   1.810   4.742  12.964  0.1998  1.3594  0.8555
11421TIP3   OH255677   4.041   1.338  15.066  0.0864  0.9140  0.6982
11421TIP3    H155678   3.968   1.362  15.122 -1.1713  1.7722 -1.2134
11421TIP3    H255679   4.100   1.413  15.071  0.4161  0.6113  1.5254
11422TIP3   OH255680   4.542   3.924  12.288 -0.8613  0.4338 -0.2793
11422TIP3    H155681   4.605   3.996  12.295  0.2020 -0.5918  1.3099
11422TIP3    H255682   4.529   3.913  12.194  1.7363  0.3914 -0.7122
11423TIP3   OH255683   5.666   2.309  12.402 -0.1764 -0.4350  0.0153
11423TIP3    H155684   5.735   2.293  12.466 -0.8407 -0.7250  0.6770
11423TIP3    H255685   5.704   2.372  12.341  1.0820 -1.4929 -0.3337
11424TIP3   OH255686   3.634   3.016   6.245 -0.4126 -0.0133  0.0642
11424TIP3    H155687   3.556   2.990   6.293 -0.4550 -0.4795 -0.2617
11424TIP3    H255688   3.647   2.948   6.179 -0.4985  0.7467 -0.7649
11425TIP3   OH255689   3.924   5.277   4.170 -0.0167  0.4924  0.0020
11425TIP3    H155690   3.970   5.332   4.234 -0.6500 -0.1281  1.0105
11425TIP3    H255691   3.858   5.335   4.131 -0.2509  0.6231  0.5894
11426TIP3   OH255692   3.833   2.604   1.761  0.2335  0.3551  0.8088
11426TIP3    H155693   3.912   2.587   1.710  0.4746 -0.1237  1.3297
11426TIP3    H255694   3.798   2.517   1.781 -0.1445  0.5509  1.0123
11427TIP3   OH255695   2.845   5.041  17.036 -0.0339  0.3186 -0.3940
11427TIP3    H155696   2.787   5.080  17.102 -0.9813 -0.5793 -0.6542
11427TIP3    H255697   2.907   4.989  17.086 -0.9556 -0.6274 -0.1997
11428TIP3   OH255698   4.629   4.126   5.617 -1.1195  0.0861 -0.2130
11428TIP3    H155699   4.698   4.061   5.626 -1.8400 -0.4732  2.1194
11428TIP3    H255700   4.642   4.185   5.692 -2.3446  0.7556 -0.4968
11429TIP3   OH255701   5.158   5.369  13.721  0.1369  0.1282 -0.5766
11429TIP3    H155702   5.211   5.307  13.771  0.0250 -1.4080 -2.2974
11429TIP3    H255703   5.102   5.409  13.787 -0.6470 -2.4897  0.4856
11430TIP3   OH255704   2.557   1.078  13.467 -0.4634 -0.3788 -0.4854
11430TIP3    H155705   2.593   0.995  13.434 -1.7472 -0.7782 -0.9245
11430TIP3    H255706   2.620   1.144  13.437 -0.2045 -1.0339 -1.4420
11431TIP3   OH255707   6.011   6.078  13.308 -0.6925 -0.2514 -0.4192
11431TIP3    H155708   5.979   6.164  13.334  0.2892 -0.5540  1.9910
11431TIP3    H255709   6.074   6.097  13.238 -0.8246  0.9550 -0.2385
11432TIP3   OH255710   0.046   6.556  13.824 -0.3531 -0.4772 -0.4917
11432TIP3    H155711   0.069   6.537  13.733 -1.4181 -0.6729 -0.7393
11432TIP3    H255712   0.129   6.564  13.869  0.1876 -2.6656 -1.0113
11433TIP3   OH255713   2.312   1.306   2.173 -0.2387  0.0020  0.2100
11433TIP3    H155714   2.243   1.242   2.155 -1.5387  1.1419  1.0016
11433TIP3    H255715   2.284   1.385   2.128 -1.3853  1.5943  3.4275
11434TIP3   OH255716   0.164   5.401   5.297  0.7333 -0.3774 -1.4186
11434TIP3    H155717   0.194   5.310   5.286  0.4607 -0.4173 -1.8479
11434TIP3    H255718   0.244   5.453   5.296  0.9571 -0.6921 -0.3127
11435TIP3   OH255719   0.910   0.598  14.917  0.1373 -0.3332  0.5901
11435TIP3    H155720   0.875   0.545  14.989 -1.0195 -0.9419 -0.3767
11435TIP3    H255721   0.842   0.663  14.899  0.1806 -0.5092 -0.2704
11436TIP3   OH255722   6.675   0.947   4.858 -0.0354  0.2366 -0.4360
11436TIP3    H155723   6.623   1.027   4.850  0.2493  0.3600 -1.1336
11436TIP3    H255724   6.653   0.913   4.944 -1.5088  0.1165 -0.8293
11437TIP3   OH255725   3.506   3.636   4.365 -0.1635 -0.1859 -0.1388
11437TIP3    H155726   3.431   3.599   4.413  0.6014 -1.1539  0.3516
11437TIP3    H255727   3.482   3.727   4.349 -0.7614 -0.0210  1.4790
11438TIP3   OH255728   3.481   5.295  15.247 -0.2884  0.1072 -0.6079
11438TIP3    H155729   3.570   5.317  15.220  0.2167 -2.1239 -1.0338
11438TIP3    H255730   3.480   5.311  15.341  0.6918 -0.1148 -0.5440
11439TIP3   OH255731   1.372   2.243   3.592  0.0516  0.4534 -0.3871
11439TIP3    H155732   1.346   2.172   3.533 -1.1735 -0.2955  0.9861
11439TIP3    H255733   1.293   2.295   3.605  0.1049  0.2268  1.0538
11440TIP3   OH255734   1.648   4.766   2.760  0.1898  0.9926  0.0360
11440TIP3    H155735   1.725   4.805   2.800  1.2459 -0.5391 -0.4216
11440TIP3    H255736   1.681   4.718   2.684 -0.9336 -1.1198  0.7793
11441TIP3   OH255737   5.145   4.166   5.768  0.4845  0.5020  0.1445
11441TIP3    H155738   5.094   4.210   5.700  0.1121 -0.0655  0.0505
11441TIP3    H255739   5.219   4.128   5.721 -0.2484 -0.6565 -0.0993
11442TIP3   OH255740   2.004   6.552   3.766  0.0820  0.2658 -1.0326
11442TIP3    H155741   1.927   6.496   3.770  0.0782  0.3156 -0.3615
11442TIP3    H255742   2.057   6.514   3.695 -0.5898  0.2846 -1.5538
11443TIP3   OH255743   0.216   0.784  16.622  0.0227 -0.1043  0.0939
11443TIP3    H155744   0.311   0.781  16.635  0.0075  0.0961  0.2669
11443TIP3    H255745   0.205   0.819  16.534  0.1099 -0.2508  0.0243
11444TIP3   OH255746   1.573   5.702  12.245  0.0851 -0.1523  0.0864
11444TIP3    H155747   1.657   5.681  12.205 -0.5372 -1.5969 -0.5146
11444TIP3    H255748   1.571   5.651  12.326  0.0152  0.2949  0.3676
11445TIP3   OH255749   4.647   0.937  15.181 -0.1897 -0.7035  0.1704
11445TIP3    H155750   4.632   0.983  15.263 -1.0667  0.1757 -0.4663
11445TIP3    H255751   4.722   0.982  15.142  0.1457 -1.0396  0.4153
11446TIP3   OH255752   1.991   6.463  12.229  0.2246  0.2771 -0.0358
11446TIP3    H155753   2.004   6.371  12.254 -0.2558 -0.1341 -1.2260
11446TIP3    H255754   2.078   6.495  12.208  0.4493  0.2192  0.7743
11447TIP3   OH255755   4.093   6.216   6.447  0.6442  0.0131 -0.3872
11447TIP3    H155756   4.031   6.190   6.516 -1.0306  2.6827 -0.7442
11447TIP3    H255757   4.152   6.278   6.491  0.9966 -0.0049 -0.8351
11448TIP3   OH255758   2.975   6.112   4.925 -0.0402  0.3060  0.3253
11448TIP3    H155759   2.890   6.081   4.893  0.0998  0.6793 -0.4080
11448TIP3    H255760   2.987   6.066   5.008 -0.1667 -1.0506 -0.3881
11449TIP3   OH255761   3.417   4.840   0.789 -0.5562  0.5693 -0.5692
11449TIP3    H155762   3.350   4.904   0.767 -2.3575 -0.6358  1.0728
11449TIP3    H255763   3.456   4.873   0.870  0.7585  1.1658 -1.4133
11450TIP3   OH255764   3.502   2.623   1.753  0.0587  0.4484  0.3283
11450TIP3    H155765   3.532   2.675   1.678  0.2843 -0.6395 -0.3575
11450TIP3    H255766   3.516   2.680   1.829  2.3645  0.5996 -0.1348
11451TIP3   OH255767   4.697   2.986  15.393  0.3081  0.1586  0.1243
11451TIP3    H155768   4.630   3.049  15.418  0.5510  0.6593 -0.4460
11451TIP3    H255769   4.659   2.938  15.320  0.5315  0.3879 -0.1473
11452TIP3   OH255770   0.335   3.460  14.250  0.7056  0.7158  0.3555
11452TIP3    H155771   0.326   3.392  14.184 -0.8432  0.0429  1.2036
11452TIP3    H255772   0.305   3.540  14.208  0.5929  0.4708 -0.0306
11453TIP3   OH255773   0.856   4.074   2.007  0.4882 -0.3263  0.5569
11453TIP3    H155774   0.781   4.102   1.955  0.3827  0.1951  0.9754
11453TIP3    H255775   0.901   4.009   1.952 -0.3321 -0.7406  0.3500
11454TIP3   OH255776   3.419   0.927   0.630 -0.4020  0.6699  0.3015
11454TIP3    H155777   3.423   1.023   0.634 -0.6061  0.6903  0.0453
11454TIP3    H255778   3.499   0.898   0.674  0.6799  0.9895 -1.3454
11455TIP3   OH255779   2.295   4.312  16.173 -0.6169  0.2364 -0.4490
11455TIP3    H155780   2.270   4.274  16.089  2.4515 -0.3323 -1.2580
11455TIP3    H255781   2.386   4.339  16.160 -0.2104  0.6457  2.5487
11456TIP3   OH255782   5.463   2.949  16.684  0.3758  0.4729  0.1148
11456TIP3    H155783   5.494   3.040  16.683  0.0127  0.6004  0.4354
11456TIP3    H255784   5.379   2.953  16.730 -0.7969  0.3496 -1.8620
11457TIP3   OH255785   4.038   3.757   1.049 -0.0605  0.0983  0.0908
11457TIP3    H155786   3.994   3.791   1.128  0.7723  1.3211  0.0484
11457TIP3    H255787   4.026   3.662   1.055  1.0447  0.0308  2.3561
11458TIP3   OH255788   5.547   3.028   3.075  0.1089 -0.4415  0.4411
11458TIP3    H155789   5.626   3.083   3.071 -0.0367 -0.0738  1.9921
11458TIP3    H255790   5.485   3.072   3.017  0.3435  0.4922  0.8653
11459TIP3   OH255791   0.974   2.560  15.994 -0.0188 -0.1660 -0.8430
11459TIP3    H155792   1.058   2.549  15.949  0.9786 -0.5207  0.9947
11459TIP3    H255793   0.997   2.599  16.078 -1.7392 -0.0250 -0.4020
11460TIP3   OH255794   0.756   1.364  10.840  0.2565  1.0577  0.4372
11460TIP3    H155795   0.666   1.396  10.831  0.2720  0.9032 -0.3473
11460TIP3    H255796   0.789   1.360  10.750  0.8700  0.6139  0.6754
11461TIP3   OH255797   4.740   2.837  10.992  0.3452  0.2922  0.3139
11461TIP3    H155798   4.701   2.917  10.957 -0.3365 -0.6594 -1.1684
11461TIP3    H255799   4.834   2.850  10.979  0.3141  1.2102  0.8960
11462TIP3   OH255800   0.946   1.314   5.623  0.2093 -0.3961 -0.3461
11462TIP3    H155801   0.879   1.378   5.648  1.4409  1.4001 -1.4270
11462TIP3    H255802   1.029   1.360   5.635  1.1404 -1.7434 -1.3297
11463TIP3   OH255803   0.582   6.037  10.401 -0.3586  0.5244  0.7572
11463TIP3    H155804   0.520   6.085  10.347 -1.2655 -1.1470  0.2364
11463TIP3    H255805   0.532   5.962  10.435  1.3202 -0.8573  0.3410
11464TIP3   OH255806   5.984   5.372  11.490  0.2391  0.3716 -0.4287
11464TIP3    H155807   5.973   5.296  11.547  2.2736 -0.9617 -1.6863
11464TIP3    H255808   6.073   5.403  11.508 -0.8141  3.0824  0.6790
11465TIP3   OH255809   2.520   6.371   3.201  0.0739 -0.4682  0.6287
11465TIP3    H155810   2.570   6.295   3.231  1.1457 -0.5289 -1.1710
11465TIP3    H255811   2.558   6.393   3.116 -1.2280  1.1534  0.4095
11466TIP3   OH255812   5.813   6.512   1.619 -0.3584 -0.1699 -0.1544
11466TIP3    H155813   5.790   6.520   1.712  0.3405 -0.3386  0.0346
11466TIP3    H255814   5.898   6.553   1.611 -1.2576  1.6054 -1.1109
11467TIP3   OH255815   1.748   1.897  12.995 -0.6360 -0.0030 -0.4186
11467TIP3    H155816   1.761   1.808  12.961 -0.8005  0.4248 -1.6778
11467TIP3    H255817   1.798   1.952  12.935  0.3706  0.6810  0.9908
11468TIP3   OH255818   3.957   6.611  15.462 -0.1338  0.8762  0.3112
11468TIP3    H155819   3.883   6.594  15.521 -0.0187 -2.0109 -0.2164
11468TIP3    H255820   4.033   6.613  15.520 -0.0731 -1.5277  0.4262
11469TIP3   OH255821   4.104   3.748   5.671 -0.7650  0.7368 -0.0066
11469TIP3    H155822   4.097   3.840   5.697  2.5238  1.3247 -0.7115
11469TIP3    H255823   4.145   3.705   5.746 -0.0338  0.4103 -0.5732
11470TIP3   OH255824   0.008   6.599   2.630  0.3087  0.5268 -0.3228
11470TIP3    H155825   0.002   6.636   2.718  0.2713  0.6256 -0.3671
11470TIP3    H255826  -0.033   6.513   2.638  0.4895  0.4524 -0.1961
11471TIP3   OH255827   2.353   3.091   3.685  0.7473 -0.0108  0.0542
11471TIP3    H155828   2.325   3.000   3.679  0.2943  0.0870  0.6528
11471TIP3    H255829   2.296   3.138   3.625 -0.7851  0.2750  1.6729
11472TIP3   OH255830   0.303   3.057   0.323  0.1653 -0.7816 -0.4857
11472TIP3    H155831   0.339   3.016   0.245  0.8934 -0.3925 -0.3671
11472TIP3    H255832   0.247   2.990   0.362  0.3062 -1.2005 -0.9942
11473TIP3   OH255833   0.321   5.556   2.903 -0.1238  0.1989  0.3045
11473TIP3    H155834   0.378   5.631   2.921 -1.1520  0.8166  1.0896
11473TIP3    H255835   0.236   5.595   2.883 -0.1124 -0.6654 -1.6364
11474TIP3   OH255836   4.508   5.863  15.252  0.1789  0.1098  0.2157
11474TIP3    H155837   4.570   5.859  15.324  0.4442 -0.1811 -0.0269
11474TIP3    H255838   4.537   5.795  15.191  0.3352  0.7725 -0.4622
11475TIP3   OH255839   2.363   4.537   6.269  0.2875  0.4411 -0.0580
11475TIP3    H155840   2.273   4.509   6.248  0.2734  0.1590  0.3678
11475TIP3    H255841   2.352   4.618   6.319  0.3144  1.0159 -0.9704
11476TIP3   OH255842   1.440   5.877   4.725  0.3190  0.5517 -0.4022
11476TIP3    H155843   1.377   5.814   4.760  0.2799  1.0394  0.4499
11476TIP3    H255844   1.516   5.870   4.782  0.1952  1.4743 -0.0906
11477TIP3   OH255845   1.930   3.403   5.844 -0.2778 -0.3187 -1.0801
11477TIP3    H155846   1.928   3.343   5.919 -0.1324 -2.1460 -2.4924
11477TIP3    H255847   1.984   3.476   5.873 -0.3393 -0.9156  0.6379
11478TIP3   OH255848   3.828   6.633  17.082  0.4711 -0.0884  0.5271
11478TIP3    H155849   3.844   6.707  17.024 -0.6664  0.0889  0.4306
11478TIP3    H255850   3.914   6.592  17.092  1.3535  1.8361  1.4333
11479TIP3   OH255851   2.215   4.104   2.222 -0.3281 -0.1112 -0.6339
11479TIP3    H155852   2.241   4.195   2.235 -0.5579 -0.1284 -0.0213
11479TIP3    H255853   2.294   4.054   2.241  0.1904  0.0218 -2.3147
11480TIP3   OH255854   0.096   0.740   3.560  0.1255 -0.0249 -0.0989
11480TIP3    H155855   0.130   0.828   3.546 -0.2125  0.2713  0.8770
11480TIP3    H255856   0.174   0.686   3.574  0.3102  0.1819 -0.3172
11481TIP3   OH255857   1.646   0.096   0.126  0.3593  0.6047 -0.9717
11481TIP3    H155858   1.702   0.046   0.067  0.2768 -0.7364  0.0534
11481TIP3    H255859   1.661   0.058   0.212 -0.4375  1.7232 -0.3057
11482TIP3   OH255860   4.589   6.223  14.304  0.4281  0.1788  0.3059
11482TIP3    H155861   4.619   6.184  14.222  0.8198 -0.0722  0.5680
11482TIP3    H255862   4.537   6.154  14.345 -1.8940  1.1001 -0.8646
11483TIP3   OH255863   2.403   4.546   0.929 -0.1470  0.4174 -0.1112
11483TIP3    H155864   2.476   4.598   0.894 -0.1325 -0.1382 -0.9374
11483TIP3    H255865   2.444   4.484   0.988 -0.1761  1.4048  0.9659
11484TIP3   OH255866   4.877   2.323   0.235 -0.2686  0.0279 -0.4345
11484TIP3    H155867   4.936   2.274   0.177 -1.1104  1.3945 -2.5707
11484TIP3    H255868   4.932   2.393   0.271  0.0305 -0.2574 -0.3268
11485TIP3   OH255869   3.387   5.614   6.454 -0.1823  0.3110  0.3611
11485TIP3    H155870   3.415   5.533   6.496 -2.1049 -0.7368 -0.2530
11485TIP3    H255871   3.468   5.653   6.421  0.9083 -0.7702  1.6453
11486TIP3   OH255872   0.871   4.007  11.069  0.1384  0.3822 -0.1700
11486TIP3    H155873   0.801   4.034  11.009  0.5560 -1.4152 -1.5350
11486TIP3    H255874   0.828   3.998  11.153 -0.9905  0.5955 -0.7071
11487TIP3   OH255875   5.323   0.303   2.280  0.3259  0.0612 -0.1383
11487TIP3    H155876   5.394   0.343   2.329  1.2100 -1.8231  0.2413
11487TIP3    H255877   5.354   0.301   2.190 -0.2663  1.3400 -0.3853
11488TIP3   OH255878   0.020   3.804  15.957  0.1188 -0.0294  0.2609
11488TIP3    H155879   0.100   3.772  15.999 -0.3042 -1.5589 -0.0426
11488TIP3    H255880  -0.039   3.825  16.030  0.1375 -0.6791  0.4679
11489TIP3   OH255881   1.742   1.724   4.174 -0.0254  0.3946  0.4397
11489TIP3    H155882   1.652   1.747   4.197 -0.1753 -0.2015  0.4530
11489TIP3    H255883   1.774   1.675   4.250  0.1624  0.2094  0.2415
11490TIP3   OH255884   4.444   4.620  13.631  0.7648  0.4084 -0.5403
11490TIP3    H155885   4.514   4.597  13.692  2.0837  0.0991 -2.1224
11490TIP3    H255886   4.483   4.609  13.544 -1.1719  0.4736 -1.4638
11491TIP3   OH255887   2.045   6.631  15.764 -1.0495 -0.4438  0.2438
11491TIP3    H155888   2.111   6.567  15.790  0.1969  0.4563 -0.6037
11491TIP3    H255889   2.003   6.593  15.688 -0.4621 -0.3640 -0.1272
11492TIP3   OH255890   2.050   3.964  12.388 -0.3696 -0.1607  0.0628
11492TIP3    H155891   2.113   3.930  12.451 -0.2988  0.0049  0.0788
11492TIP3    H255892   1.999   4.029  12.436  0.1323  0.4621 -0.2367
11493TIP3   OH255893   3.200   1.340   0.932  0.5194 -0.1656 -0.6244
11493TIP3    H155894   3.117   1.302   0.903  0.1776  0.8910 -1.0741
11493TIP3    H255895   3.225   1.399   0.861  1.3774 -0.0646 -0.2451
11494TIP3   OH255896   5.984   3.621   6.068  0.5458  0.0510  0.2519
11494TIP3    H155897   6.054   3.664   6.117  0.6194  0.1390  0.0740
11494TIP3    H255898   5.909   3.620   6.128  0.7932 -0.3285  0.5526
11495TIP3   OH255899   6.040   0.979  16.326 -0.3204  0.1739  0.2669
11495TIP3    H155900   5.997   1.025  16.254  1.1903  1.0380 -0.1263
11495TIP3    H255901   6.090   0.910  16.284 -0.5663 -0.2292  0.6289
11496TIP3   OH255902   3.454   5.205  12.547  0.1209 -0.2654 -0.1916
11496TIP3    H155903   3.454   5.176  12.456 -1.1611  1.3651 -0.7678
11496TIP3    H255904   3.507   5.285  12.547  1.4147 -1.0956  0.8202
11497TIP3   OH255905   2.713   1.781   4.270 -0.2498 -0.3056  0.3507
11497TIP3    H155906   2.744   1.691   4.276  3.0834  0.7616  1.3613
11497TIP3    H255907   2.652   1.791   4.343 -1.8102 -2.0561 -0.6334
11498TIP3   OH255908   2.148   2.343   3.226  0.5462  0.2475  0.0769
11498TIP3    H155909   2.133   2.300   3.142  2.6329  0.2434 -0.3448
11498TIP3    H255910   2.085   2.302   3.286 -3.0469  2.2215 -1.9809
11499TIP3   OH255911   4.085   0.615  12.386 -0.8159  0.7260  0.1199
11499TIP3    H155912   4.145   0.688  12.402 -0.2710  0.2171  0.4340
11499TIP3    H255913   4.038   0.639  12.307 -0.1418  1.1025 -0.1706
11500TIP3   OH255914   6.194   5.918  13.729 -0.4034  0.8156 -0.0734
11500TIP3    H155915   6.175   5.867  13.651  1.3986  1.4581 -1.0017
11500TIP3    H255916   6.109   5.951  13.759 -1.1672  0.2006 -1.4996
11501TIP3   OH255917   6.008   6.283   1.714 -0.2536 -0.4795 -0.4946
11501TIP3    H155918   6.085   6.260   1.663  1.1018  0.7795  0.8566
11501TIP3    H255919   5.973   6.361   1.671  0.9355  0.6304  0.4848
11502TIP3   OH255920   4.067   4.973  12.869 -0.0222  0.5982 -0.3480
11502TIP3    H155921   4.035   5.024  12.795 -2.4566  0.4641  0.5360
11502TIP3    H255922   4.154   4.944  12.842  0.3464  2.9294 -1.9592
11503TIP3   OH255923   3.356   5.663   0.025 -0.4781 -0.2974 -0.0010
11503TIP3    H155924   3.271   5.628   0.050 -0.5972  0.1772  0.2703
11503TIP3    H255925   3.337   5.744  -0.022 -0.3879 -2.1873 -3.6482
11504TIP3   OH255926   4.209   6.329   2.912 -0.5107 -0.2449 -0.2472
11504TIP3    H155927   4.291   6.304   2.955 -0.5368 -0.4317 -0.3058
11504TIP3    H255928   4.223   6.419   2.884 -0.7667  0.1534  0.8479
11505TIP3   OH255929   5.788   3.374  12.506  0.2377 -0.2197  0.3270
11505TIP3    H155930   5.716   3.321  12.541 -0.1390 -0.9638 -1.4255
11505TIP3    H255931   5.866   3.341  12.549 -0.1820 -1.1994  0.3708
11506TIP3   OH255932   4.833   2.137   4.616  0.1754 -0.3221 -0.5778
11506TIP3    H155933   4.910   2.108   4.568 -0.5641 -0.4239 -1.7669
11506TIP3    H255934   4.786   2.193   4.553 -0.1952  0.5888  0.4707
11507TIP3   OH255935   6.311   0.822  11.789  0.3121  0.3645 -0.4980
11507TIP3    H155936   6.274   0.756  11.730 -0.7452  0.2494  0.2521
11507TIP3    H255937   6.377   0.774  11.840 -0.8953 -0.3042  0.4869
11508TIP3   OH255938   1.927   5.019   0.910  0.0967 -0.0514  0.1099
11508TIP3    H155939   1.972   4.988   0.988 -0.4078 -0.1261  0.3725
11508TIP3    H255940   1.835   4.999   0.925 -0.1644  0.9817  0.0061
11509TIP3   OH255941   5.348   1.261  15.973 -0.1888 -0.3594  0.1852
11509TIP3    H155942   5.345   1.279  16.067 -2.2468  2.6049 -0.2996
11509TIP3    H255943   5.275   1.202  15.957 -0.4270 -0.1082  0.3355
11510TIP3   OH255944   5.271   3.913  11.281  0.7578 -0.0786  0.3463
11510TIP3    H155945   5.312   3.960  11.354 -0.0476  0.4646  0.4694
11510TIP3    H255946   5.321   3.941  11.204  2.0147 -1.1348  0.7398
11511TIP3   OH255947   2.629   2.185  11.444 -0.1988 -0.0568  0.7560
11511TIP3    H155948   2.625   2.126  11.519 -0.3076  0.6792  1.3295
11511TIP3    H255949   2.684   2.138  11.380 -2.5785 -2.0826  0.0375
11512TIP3   OH255950   1.890   4.774   1.120 -0.0752 -0.7023  0.2664
11512TIP3    H155951   1.932   4.688   1.118  0.4580 -0.5844  2.6571
11512TIP3    H255952   1.960   4.835   1.144 -0.4566  0.4246 -1.3291
11513TIP3   OH255953   3.800   1.026   1.443 -0.1583  0.2067  0.0541
11513TIP3    H155954   3.749   0.949   1.470  0.1969  0.1354  0.5264
11513TIP3    H255955   3.876   0.990   1.398 -1.7759  0.3228 -3.1030
11514TIP3   OH255956   5.739   4.682  15.470 -0.2742 -0.3991 -0.3417
11514TIP3    H155957   5.746   4.677  15.565 -1.1302 -0.5121 -0.2824
11514TIP3    H255958   5.656   4.727  15.454  0.5329  0.9072 -1.0280
11515TIP3   OH255959   4.998   6.711   3.609  0.8655  0.0573 -0.0253
11515TIP3    H155960   5.050   6.731   3.531 -1.3569  0.0441 -1.6226
11515TIP3    H255961   4.979   6.797   3.648 -0.1773  0.3277 -1.0502
11516TIP3   OH255962   1.502   5.767  15.974  0.2199  0.6496 -0.1234
11516TIP3    H155963   1.576   5.822  16.000  0.7268  1.9058 -3.6253
11516TIP3    H255964   1.428   5.828  15.968 -0.0603  0.2570 -0.7013
11517TIP3   OH255965   3.585   5.797   6.380 -0.2931  0.5173 -0.2819
11517TIP3    H155966   3.629   5.876   6.412 -1.0776  1.3212 -1.1430
11517TIP3    H255967   3.655   5.732   6.375  0.7768  1.6883 -1.3639
11518TIP3   OH255968   2.823   0.729  14.579  0.1658  0.4216 -0.1613
11518TIP3    H155969   2.730   0.719  14.600  0.1322  0.8087 -0.1177
11518TIP3    H255970   2.825   0.797  14.511  0.4981  1.1606  0.5753
11519TIP3   OH255971   2.836   4.587  12.511  0.5383 -0.3562 -0.2183
11519TIP3    H155972   2.771   4.559  12.575  0.1794 -0.4720 -0.6311
11519TIP3    H255973   2.881   4.660  12.553  2.5531 -2.4596  1.5133
11520TIP3   OH255974   4.713   6.682  12.132  0.4673  0.2831  0.3625
11520TIP3    H155975   4.659   6.752  12.096  1.5689  1.3158  0.6681
11520TIP3    H255976   4.726   6.707  12.224  2.3651  0.6485  0.0251
11521TIP3   OH255977   3.462   4.730   4.807  0.0108  0.5443  0.2187
11521TIP3    H155978   3.502   4.740   4.721 -0.9282 -0.2557 -0.3248
11521TIP3    H255979   3.409   4.809   4.819  2.7431  2.3461  1.5607
11522TIP3   OH255980   3.354   1.935  11.147 -0.3465 -0.4622 -0.4113
11522TIP3    H155981   3.361   2.025  11.180 -1.5908 -0.6028  0.2729
11522TIP3    H255982   3.264   1.927  11.116  0.3142 -0.8759 -2.3264
11523TIP3   OH255983   2.981   5.457  16.612 -0.3712 -0.2112 -0.4215
11523TIP3    H155984   2.963   5.520  16.682 -1.3100  0.1906 -1.0034
11523TIP3    H255985   2.901   5.406  16.604 -0.4044 -0.0264 -1.4282
11524TIP3   OH255986   5.247   4.726   3.724 -0.4143  0.4754 -0.2686
11524TIP3    H155987   5.256   4.793   3.791 -1.2397 -0.1899  0.5216
11524TIP3    H255988   5.312   4.750   3.658  2.1557 -0.1723  1.8563
11525TIP3   OH255989   5.421   0.380  13.894 -0.5272  0.5969  0.7746
11525TIP3    H155990   5.480   0.348  13.826  2.5171  0.8430  3.0653
11525TIP3    H255991   5.388   0.463  13.861 -1.4496 -0.5755 -1.5045
11526TIP3   OH255992   1.581   3.528  16.619  0.2167 -0.1181  0.3157
11526TIP3    H155993   1.646   3.476  16.665 -0.3039  1.2220  2.7390
11526TIP3    H255994   1.503   3.473  16.618  0.4289 -0.4263  0.4398
11527TIP3   OH255995   3.840   0.113  13.383  0.1188  0.6067  0.3065
11527TIP3    H155996   3.752   0.087  13.355  0.0670 -1.0586  1.8010
11527TIP3    H255997   3.830   0.204  13.412 -1.1391  0.4137  0.5361
11528TIP3   OH255998   4.187   5.842  13.557  0.4944 -0.2480 -0.1380
11528TIP3    H155999   4.094   5.825  13.540  0.6248 -1.0938 -0.0408
11528TIP3    H256000   4.203   5.929  13.520 -1.0808  1.3307  2.5820
11529TIP3   OH256001   2.360   0.051  13.979  0.1741 -0.4574 -0.3203
11529TIP3    H156002   2.328   0.119  13.919  0.5657 -0.4117 -0.4850
11529TIP3    H256003   2.433   0.011  13.933  1.1628  0.2811  0.5391
11530TIP3   OH256004   1.353   5.964   1.192 -0.0826  0.0568  0.1642
11530TIP3    H156005   1.427   5.917   1.155 -0.3627  0.8025 -1.4002
11530TIP3    H256006   1.384   6.054   1.203 -0.1367 -0.0508  1.4131
11531TIP3   OH256007   0.476   4.618  14.465  0.3665 -0.1800  0.6396
11531TIP3    H156008   0.544   4.677  14.434 -1.1403  0.0049 -2.7393
11531TIP3    H256009   0.397   4.672  14.470 -0.3997 -1.2460  0.4735
11532TIP3   OH256010   4.126   3.253  12.456  0.2478  0.0640  0.0237
11532TIP3    H156011   4.140   3.331  12.510  0.2483  0.7250 -0.9190
11532TIP3    H256012   4.176   3.269  12.376 -0.7352 -0.3716 -0.6953
11533TIP3   OH256013   3.807   5.738  15.430 -0.2150  0.3643 -0.4854
11533TIP3    H156014   3.816   5.740  15.334  1.5242 -0.9859 -0.3919
11533TIP3    H256015   3.827   5.827  15.457  0.9640  0.3652 -1.2818
11534TIP3   OH256016   0.838   1.398   4.741 -0.0759 -0.1511  0.1281
11534TIP3    H156017   0.752   1.435   4.762 -0.0414 -0.4638  0.8641
11534TIP3    H256018   0.819   1.310   4.709 -0.0624 -0.0392 -0.1863
11535TIP3   OH256019   2.610   6.569  16.200 -0.1120  0.7416 -0.1764
11535TIP3    H156020   2.518   6.598  16.202  0.2718  1.9674  0.7001
11535TIP3    H256021   2.611   6.490  16.254 -0.7253  0.4560 -0.5642
11536TIP3   OH256022   0.386   2.064  13.210  0.0064 -0.0234  0.5691
11536TIP3    H156023   0.432   2.088  13.290  0.9326 -0.7708  0.2733
11536TIP3    H256024   0.421   1.978  13.187 -2.3408 -1.1605  0.9481
11537TIP3   OH256025   5.820   0.081  13.962 -0.0195 -0.3337 -0.4598
11537TIP3    H156026   5.784   0.119  14.043 -1.6894  0.6792 -1.6057
11537TIP3    H256027   5.801   0.147  13.895  0.1821 -1.6964 -1.9052
11538TIP3   OH256028   1.309   6.043  11.662  0.5446  0.3619 -0.3439
11538TIP3    H156029   1.345   6.026  11.749 -0.3341  1.0487  0.1680
11538TIP3    H256030   1.238   5.979  11.653 -0.6652  1.5814  0.2755
11539TIP3   OH256031   3.075   3.084   5.411 -0.1961 -0.3730 -0.3279
11539TIP3    H156032   3.101   3.171   5.443 -0.3105 -0.8358  1.1141
11539TIP3    H256033   3.090   3.087   5.317 -0.8951  1.4637 -0.4155
11540TIP3   OH256034   1.475   4.059   4.734  0.3335  0.1793  0.2778
11540TIP3    H156035   1.460   4.132   4.674  1.9461 -0.0638 -0.4604
11540TIP3    H256036   1.556   4.019   4.704 -0.8037 -2.3070  0.3110
11541TIP3   OH256037   6.425   4.441   2.741 -0.0429 -0.1228 -0.3620
11541TIP3    H156038   6.408   4.403   2.827 -3.8226 -1.5234 -1.5096
11541TIP3    H256039   6.374   4.523   2.741 -1.7220 -1.0849 -1.7778
11542TIP3   OH256040   2.272   3.897   3.870 -0.2725  0.1011 -0.2936
11542TIP3    H156041   2.282   3.835   3.798  0.1068  1.7526 -1.7297
11542TIP3    H256042   2.301   3.849   3.947  0.9554 -1.2141 -1.5124
11543TIP3   OH256043   1.669   0.572  16.883  0.1960  0.4448 -0.0861
11543TIP3    H156044   1.668   0.526  16.967  0.9735 -1.4232 -1.0402
11543TIP3    H256045   1.586   0.620  16.880  0.1778  0.5735  1.7310
11544TIP3   OH256046   2.115   4.986   0.505  0.3081 -0.0185 -0.1479
11544TIP3    H156047   2.171   4.919   0.465  2.5768  0.0829  2.5796
11544TIP3    H256048   2.167   5.066   0.500  0.1608  0.2359  1.7957
11545TIP3   OH256049   5.727   6.484   1.028 -0.6087  0.2942  0.4711
11545TIP3    H156050   5.637   6.504   1.001 -0.6010 -0.4083 -0.0944
11545TIP3    H256051   5.767   6.444   0.951  0.4303  1.2842  0.4788
11546TIP3   OH256052   0.849   4.029  15.991 -0.5382  0.2069 -0.0313
11546TIP3    H156053   0.928   3.980  15.967  0.2127  0.3764  1.9306
11546TIP3    H256054   0.780   3.991  15.936  0.9404  0.3700 -2.1412
11547TIP3   OH256055   4.778   4.632  12.387  0.3938 -0.5782  0.1896
11547TIP3    H156056   4.802   4.722  12.363 -0.6263 -0.1121  0.8343
11547TIP3    H256057   4.795   4.581  12.308  0.0994  0.3577 -0.4999
11548TIP3   OH256058   4.149   1.408   4.905 -0.0218  0.0384 -0.9423
11548TIP3    H156059   4.076   1.438   4.850 -0.4748 -2.6073 -1.9491
11548TIP3    H256060   4.221   1.396   4.844 -0.2230 -1.9454 -0.8607
11549TIP3   OH256061   1.113   3.606  14.735  0.2245  0.7218 -0.4235
11549TIP3    H156062   1.189   3.582  14.682  0.3621  1.6403 -0.6480
11549TIP3    H256063   1.143   3.594  14.825  1.2340  2.7121 -0.4394
11550TIP3   OH256064   6.486   4.386   6.310  0.8715 -0.2189 -0.4630
11550TIP3    H156065   6.407   4.439   6.306  0.1102 -1.2892  0.1415
11550TIP3    H256066   6.545   4.435   6.368  0.1494 -0.0637  0.1485
11551TIP3   OH256067   5.157   4.327   4.704  0.5600 -0.3859 -0.4647
11551TIP3    H156068   5.080   4.374   4.673  1.1848  0.7294 -0.3780
11551TIP3    H256069   5.192   4.282   4.627  0.1507 -0.4291 -0.6235
11552TIP3   OH256070   6.360   4.505  16.831 -0.2806  0.3087 -0.1289
11552TIP3    H156071   6.408   4.474  16.755 -1.0086 -0.8821 -0.1241
11552TIP3    H256072   6.334   4.594  16.808  0.6661  0.4523 -0.7092
11553TIP3   OH256073   1.342   4.224  15.197 -0.3306 -0.7544  0.0161
11553TIP3    H156074   1.420   4.170  15.185  0.7338  0.6155  0.4657
11553TIP3    H256075   1.334   4.274  15.116 -0.4221 -0.4886  0.1873
11554TIP3   OH256076   1.680   3.355   0.322 -0.3963 -0.2907  0.0841
11554TIP3    H156077   1.737   3.320   0.390 -0.2280  0.1409  0.1731
11554TIP3    H256078   1.609   3.397   0.370  0.4468  1.2450  0.0556
11555TIP3   OH256079   5.026   6.182  14.730 -0.1254  0.2502  0.3650
11555TIP3    H156080   5.004   6.183  14.824 -0.9958 -0.5104  0.1836
11555TIP3    H256081   5.018   6.090  14.705  1.8098  0.1585 -0.0911
11556TIP3   OH256082   6.544   0.267   2.345 -0.4046 -0.1486 -0.4187
11556TIP3    H156083   6.586   0.242   2.262  0.8393  2.0701 -0.5299
11556TIP3    H256084   6.525   0.360   2.335  1.3973  0.6569  2.3862
11557TIP3   OH256085   3.712   5.390   2.459  0.4203  0.2592  0.5409
11557TIP3    H156086   3.637   5.330   2.466  0.9558 -0.3563  1.1160
11557TIP3    H256087   3.678   5.474   2.491  0.8940 -0.8299  4.4718
11558TIP3   OH256088   5.867   3.421  11.194  0.1101 -0.3604 -0.1154
11558TIP3    H156089   5.910   3.497  11.234  1.6424 -0.8279 -0.7823
11558TIP3    H256090   5.805   3.459  11.132 -0.7707  0.3444  1.1593
11559TIP3   OH256091   5.116   3.414   1.074 -0.0556  0.0208  0.5063
11559TIP3    H156092   5.163   3.474   1.017  0.3624 -0.4322  0.3718
11559TIP3    H256093   5.109   3.333   1.024  1.4239 -0.8026  1.5442
11560TIP3   OH256094   1.623   3.321  16.431 -0.1159  0.2108 -0.2157
11560TIP3    H156095   1.564   3.343  16.359  1.8118  2.7797 -1.2022
11560TIP3    H256096   1.616   3.226  16.441 -1.8923  0.0272 -2.4748
11561TIP3   OH256097   6.294   1.849   2.176 -0.1057 -0.2853  0.2002
11561TIP3    H156098   6.338   1.916   2.123  0.1602 -1.3780 -1.0084
11561TIP3    H256099   6.253   1.791   2.112  1.4210 -2.4706  1.1026
11562TIP3   OH256100   3.699   3.588  16.987  0.5664  0.2368  0.6331
11562TIP3    H156101   3.689   3.598  17.082 -0.2702 -0.7593  0.6695
11562TIP3    H256102   3.787   3.620  16.969  0.4187  1.2552  1.6162
11563TIP3   OH256103   3.113   3.490  16.187  0.6135 -0.4741  0.0895
11563TIP3    H156104   3.092   3.486  16.280  0.3629  1.0275  0.1204
11563TIP3    H256105   3.041   3.541  16.149  1.5514  0.3137 -0.6592
11564TIP3   OH256106   2.539   4.471   2.872  0.5183 -0.5338 -1.1032
11564TIP3    H156107   2.612   4.462   2.933  0.1358 -1.0721 -0.7076
11564TIP3    H256108   2.548   4.396   2.814  1.1701  0.2511 -2.0397
11565TIP3   OH256109   3.426   6.292   0.541 -0.2026 -0.3213  0.4146
11565TIP3    H156110   3.440   6.221   0.603  0.7036 -0.4390  0.0880
11565TIP3    H256111   3.433   6.372   0.594 -0.8719 -0.4492  0.7128
11566TIP3   OH256112   5.050   4.596   0.736  1.1856 -0.5287 -0.5451
11566TIP3    H156113   4.988   4.669   0.738  1.8138  0.0033  0.3019
11566TIP3    H256114   5.004   4.526   0.690 -0.4922 -0.5567  1.0637
11567TIP3   OH256115   2.892   1.760  14.781 -0.2053 -0.5893 -0.2494
11567TIP3    H156116   2.797   1.765  14.789  0.0101  1.0584  3.2438
11567TIP3    H256117   2.912   1.809  14.701 -2.2631 -0.8975 -1.0022
11568TIP3   OH256118   2.939   3.805   5.533 -0.4124 -0.0257  0.4912
11568TIP3    H156119   2.902   3.785   5.619 -0.7275 -0.3456  0.2855
11568TIP3    H256120   2.939   3.901   5.528 -2.6407 -0.0046 -0.1034
11569TIP3   OH256121   2.194   4.715  11.566  0.1713  0.2405 -0.4745
11569TIP3    H156122   2.240   4.656  11.507  0.1666 -0.1205 -0.1185
11569TIP3    H256123   2.116   4.667  11.593 -0.8156  1.1264 -1.6551
11570TIP3   OH256124   6.738   6.672   2.885  0.3448  0.0220 -0.3020
11570TIP3    H156125   6.776   6.741   2.938  0.6661  0.1747 -0.7242
11570TIP3    H256126   6.677   6.627   2.944  1.0267 -0.1029  0.3212
11571TIP3   OH256127   3.953   0.128  12.069 -0.1720 -0.1807  0.0308
11571TIP3    H156128   4.040   0.089  12.074 -0.8133 -1.6911 -0.1103
11571TIP3    H256129   3.952   0.175  11.986  0.5142 -0.1295  0.0471
11572TIP3   OH256130   6.689   4.017   1.740  0.0437  0.3518 -0.0164
11572TIP3    H156131   6.769   4.023   1.792  0.0660 -1.0027  0.1320
11572TIP3    H256132   6.697   3.934   1.693 -0.9111  0.5854 -0.6225
11573TIP3   OH256133   5.351   5.033   2.600 -0.4433  0.3832 -0.0903
11573TIP3    H156134   5.345   5.112   2.654 -0.7583  1.6479 -1.8437
11573TIP3    H256135   5.260   5.007   2.585 -0.5988  1.8786 -2.3948
11574TIP3   OH256136   2.902   4.483   1.431 -0.0328 -0.5462  0.2110
11574TIP3    H156137   2.902   4.576   1.452  1.2455 -0.8143  1.5964
11574TIP3    H256138   2.812   4.455   1.446 -0.6613  0.6377 -1.1878
11575TIP3   OH256139   1.803   5.644   5.861 -0.1902  0.0178 -0.3240
11575TIP3    H156140   1.819   5.630   5.767  2.7419 -0.1300  0.1128
11575TIP3    H256141   1.739   5.715   5.864 -2.5180 -1.7925 -2.4000
11576TIP3   OH256142   6.142   0.046   4.848 -0.1020  0.1769  0.2996
11576TIP3    H156143   6.132  -0.029   4.906 -0.8509 -0.0862 -0.1547
11576TIP3    H256144   6.215   0.022   4.791  1.1295  0.7469  1.5704
11577TIP3   OH256145   5.195   2.287   3.497 -0.1402 -0.4953 -0.2847
11577TIP3    H156146   5.176   2.203   3.540 -2.3018  0.9478  1.7846
11577TIP3    H256147   5.110   2.329   3.489  1.0261  2.0592 -0.1226
11578TIP3   OH256148   3.709   3.697  12.041 -0.2257  0.0992  0.1401
11578TIP3    H156149   3.767   3.640  11.990  1.7158  2.4726 -0.4937
11578TIP3    H256150   3.726   3.672  12.132  1.2403  0.2116 -0.0794
11579TIP3   OH256151   2.180   3.823   6.667 -0.2128 -0.0559  0.3885
11579TIP3    H156152   2.254   3.875   6.698 -0.5027  1.6984 -1.6133
11579TIP3    H256153   2.130   3.883   6.612 -0.7778 -2.3719 -1.8063
11580TIP3   OH256154   4.405   2.452  15.722  0.2265 -0.6351  0.4101
11580TIP3    H156155   4.493   2.424  15.747  0.3296 -1.8214 -1.1688
11580TIP3    H256156   4.418   2.500  15.640 -0.6513 -1.4053 -0.1979
11581TIP3   OH256157   5.910   4.460  15.498 -0.0653 -0.5739 -0.0405
11581TIP3    H156158   5.892   4.513  15.420 -0.4401 -0.0719  0.3841
11581TIP3    H256159   5.831   4.469  15.551  0.6100 -0.0454  0.8907
11582TIP3   OH256160   1.860   6.596  16.696  0.2393  0.1212 -0.0447
11582TIP3    H156161   1.799   6.669  16.707 -1.7511 -1.6543  1.7766
11582TIP3    H256162   1.877   6.592  16.602 -1.4207  1.5068 -0.4408
11583TIP3   OH256163   0.318   5.734  11.992  0.2258  0.2613  0.4185
11583TIP3    H156164   0.251   5.685  11.944 -0.3241 -0.2080  1.6253
11583TIP3    H256165   0.269   5.796  12.046  0.8734  1.3988 -0.2701
11584TIP3   OH256166   1.853   5.030  13.322  0.3262  0.1061  0.6226
11584TIP3    H156167   1.946   5.012  13.320  0.1255 -1.1227  1.4186
11584TIP3    H256168   1.814   4.961  13.269 -0.1156  0.8415 -0.0394
11585TIP3   OH256169   4.190   2.684   1.453  0.2215 -0.4058  0.0115
11585TIP3    H156170   4.261   2.684   1.390  0.5527 -1.1001  0.3742
11585TIP3    H256171   4.233   2.696   1.538 -0.3009  1.5176  0.0390
11586TIP3   OH256172   5.969   5.799  14.960 -0.1123 -0.3820 -0.0252
11586TIP3    H156173   6.044   5.794  15.020  1.7786 -1.6805 -2.3321
11586TIP3    H256174   5.981   5.882  14.913 -1.6187  0.6578  1.3120
11587TIP3   OH256175   0.060   5.570   3.812 -0.1095  0.1080 -0.4336
11587TIP3    H156176   0.147   5.531   3.827 -0.0349  0.7400  0.8680
11587TIP3    H256177   0.020   5.512   3.747  0.7974 -0.9317 -0.1118
11588TIP3   OH256178   0.475   1.930   0.554  0.4935  0.1964 -0.1275
11588TIP3    H156179   0.390   1.889   0.567  0.8608 -0.9736 -1.2625
11588TIP3    H256180   0.517   1.926   0.640  0.0718 -0.8139  0.0452
11589TIP3   OH256181   2.857   3.201  13.961  0.0560 -0.6830 -0.5272
11589TIP3    H156182   2.876   3.110  13.981  1.1911 -0.3289  0.1237
11589TIP3    H256183   2.943   3.244  13.960 -0.5579  0.6690  0.6226
11590TIP3   OH256184   2.276   3.986   0.566 -0.1849  0.0824  0.6521
11590TIP3    H156185   2.227   3.905   0.552 -2.6281  1.6649 -0.5494
11590TIP3    H256186   2.346   3.983   0.501  0.9705 -1.8816  1.8954
11591TIP3   OH256187   6.161   4.805  14.586  0.2929  0.1326 -0.5717
11591TIP3    H156188   6.162   4.809  14.681 -1.7424 -2.0227 -0.3450
11591TIP3    H256189   6.092   4.866  14.560 -1.6113 -1.7775 -0.3071
11592TIP3   OH256190   0.795   1.451  16.047  0.2978  0.3810 -0.5344
11592TIP3    H156191   0.879   1.453  16.000  0.9662 -0.8167  0.5340
11592TIP3    H256192   0.802   1.522  16.110  0.0906  0.9240 -1.1207
11593TIP3   OH256193   0.732   6.071   5.261 -0.0412  0.2118 -0.4004
11593TIP3    H156194   0.731   6.156   5.216  0.4388  0.8017  0.6523
11593TIP3    H256195   0.818   6.035   5.241 -0.1154  0.1281 -0.5692
11594TIP3   OH256196   6.540   4.924   1.649  0.4245 -0.9594 -0.0757
11594TIP3    H156197   6.577   5.008   1.676  0.4485 -0.8980 -0.2979
11594TIP3    H256198   6.584   4.860   1.705 -0.3156 -0.7354  0.7916
11595TIP3   OH256199   5.414   3.493  11.731  0.5056 -0.1278 -0.3479
11595TIP3    H156200   5.505   3.524  11.726  0.6945 -0.5099  0.5992
11595TIP3    H256201   5.363   3.569  11.758  0.6761 -0.1365 -0.0006
11596TIP3   OH256202   4.992   5.358   6.083 -0.0792  0.5864  0.0219
11596TIP3    H156203   4.924   5.425   6.085 -0.7831 -0.1306  0.6536
11596TIP3    H256204   5.044   5.373   6.162 -2.6291 -1.9761  2.4265
11597TIP3   OH256205   6.723   1.993   2.176  0.7222 -0.7548  0.3715
11597TIP3    H156206   6.722   1.994   2.272 -0.3520  0.6760  0.3887
11597TIP3    H256207   6.803   2.038   2.152  0.7785 -0.7312  0.6041
11598TIP3   OH256208   5.413   4.980  14.167 -0.2970  0.1667 -0.4128
11598TIP3    H156209   5.393   5.008  14.256  2.1959  1.3986 -0.1588
11598TIP3    H256210   5.408   4.884  14.170 -3.0489  0.2438  0.2481
11599TIP3   OH256211   1.770   5.853  16.961  0.2812 -0.4297 -0.3723
11599TIP3    H156212   1.843   5.812  17.008 -1.0130 -1.2108  1.0353
11599TIP3    H256213   1.697   5.850  17.023 -0.5162  1.8691 -1.1171
11600TIP3   OH256214   4.832   2.577  12.992 -0.3715  0.2513 -0.3088
11600TIP3    H156215   4.863   2.602  12.905 -0.7886  0.5674 -0.3702
11600TIP3    H256216   4.884   2.630  13.052  0.4999 -0.5676 -0.3198
11601TIP3   OH256217   0.338   4.291  11.946  0.0034 -0.1039 -0.3548
11601TIP3    H156218   0.375   4.214  11.902  0.7908 -0.5891  1.0903
11601TIP3    H256219   0.271   4.255  12.004 -1.3413  0.5731 -1.4337
11602TIP3   OH256220   0.670   2.918   6.185  0.0040 -0.5887  0.1637
11602TIP3    H156221   0.637   2.953   6.268  0.3682 -0.1219  0.1152
11602TIP3    H256222   0.747   2.866   6.211 -0.1639 -0.8372  0.1675
11603TIP3   OH256223   0.417   4.350   1.883  0.2625  0.5439  0.3560
11603TIP3    H156224   0.391   4.304   1.963 -0.9959  1.9983  0.8205
11603TIP3    H256225   0.360   4.312   1.815  0.7247 -0.0703  0.2975
11604TIP3   OH256226   6.185   2.273   0.802  0.5229 -0.3105 -0.6974
11604TIP3    H156227   6.243   2.241   0.733  0.5434  0.3531 -0.9981
11604TIP3    H256228   6.214   2.227   0.881 -1.2237 -3.1396 -1.5528
11605TIP3   OH256229   5.374   5.912  13.502 -0.4004 -0.5123 -0.4090
11605TIP3    H156230   5.361   5.856  13.578 -0.2481  1.1896  0.9523
11605TIP3    H256231   5.422   5.988  13.536 -0.6540  0.4873 -2.1345
11606TIP3   OH256232   0.860   6.469  10.470  0.8939  0.2883 -0.7013
11606TIP3    H156233   0.901   6.389  10.436  2.6621  0.7600  0.1994
11606TIP3    H256234   0.770   6.465  10.438  0.3448 -3.0183  0.8133
11607TIP3   OH256235   1.569   3.963  13.783  0.2692  0.4214 -0.0089
11607TIP3    H156236   1.498   3.942  13.843  0.8074 -1.4192  0.0367
11607TIP3    H256237   1.525   3.992  13.703 -0.5709 -1.0821 -0.1216
11608TIP3   OH256238   6.494   5.177   0.407 -0.0440 -0.5977  0.0137
11608TIP3    H156239   6.528   5.091   0.384  0.8374 -0.5407  1.0151
11608TIP3    H256240   6.486   5.175   0.503 -2.8526 -0.5877 -0.1191
11609TIP3   OH256241   5.858   3.721  12.491  0.6071 -0.0283  0.5941
11609TIP3    H156242   5.809   3.677  12.421  0.8375  0.5458  0.0619
11609TIP3    H256243   5.930   3.766  12.446  0.6205  0.5467  1.1688
11610TIP3   OH256244   6.196   3.501   4.037  0.1472 -0.2213 -0.8312
11610TIP3    H156245   6.174   3.590   4.065  1.1619 -0.2416  0.0912
11610TIP3    H256246   6.113   3.453   4.044  0.1543 -0.0164  1.3667
11611TIP3   OH256247   3.054   5.563   2.549 -0.2212 -0.1691 -0.4799
11611TIP3    H156248   3.137   5.609   2.535 -1.2835  1.6739 -1.1251
11611TIP3    H256249   3.033   5.578   2.641  1.9856 -4.0212  0.9013
11612TIP3   OH256250   5.108   5.551  16.299 -0.0542 -0.1257 -0.3149
11612TIP3    H156251   5.045   5.482  16.318 -0.2048 -0.3102 -1.4319
11612TIP3    H256252   5.142   5.530  16.213  0.4681  0.7814 -0.3498
11613TIP3   OH256253   3.506   2.959   0.342  0.0718 -0.6775  0.3756
11613TIP3    H156254   3.572   2.944   0.275 -2.2258  0.8009 -2.4425
11613TIP3    H256255   3.516   3.051   0.367 -2.8727  0.7162 -2.7289
11614TIP3   OH256256   0.772   4.498  11.854 -0.1297 -0.2251  0.0687
11614TIP3    H156257   0.696   4.441  11.850  0.0544 -0.7867  2.8239
11614TIP3    H256258   0.847   4.438  11.855  0.0634 -0.0609  3.0534
11615TIP3   OH256259   4.877   1.722   0.325  0.1888 -0.0538  0.0238
11615TIP3    H156260   4.868   1.683   0.238 -0.8900  1.1735 -0.4400
11615TIP3    H256261   4.941   1.666   0.369 -0.4417 -1.6655 -0.9916
11616TIP3   OH256262   3.502   0.273   1.826 -0.1436 -0.1529 -0.2209
11616TIP3    H156263   3.505   0.359   1.868 -0.2028 -0.2201 -0.0788
11616TIP3    H256264   3.556   0.217   1.881 -1.2112 -0.5439  0.4694
11617TIP3   OH256265   6.473   3.690   6.020  0.7170  0.0340  0.2095
11617TIP3    H156266   6.496   3.736   6.101 -0.9675  1.8003 -0.2403
11617TIP3    H256267   6.420   3.616   6.050  1.0259  0.0299  0.7736
11618TIP3   OH256268   3.680   0.959  15.284 -0.8554  0.3012  0.4091
11618TIP3    H156269   3.770   0.978  15.310 -1.8283 -0.5154  5.1127
11618TIP3    H256270   3.682   0.871  15.248  0.1109 -0.0290  1.2652
11619TIP3   OH256271   5.606   5.504   2.471  0.0908 -0.0979  0.4911
11619TIP3    H156272   5.637   5.484   2.383  0.7517  1.3192  0.3795
11619TIP3    H256273   5.611   5.600   2.477 -1.5330 -0.0364  1.4846
11620TIP3   OH256274   4.204   5.021   2.591 -0.1623  0.1800 -0.2290
11620TIP3    H156275   4.204   5.066   2.507 -2.3316  1.6781  0.4996
11620TIP3    H256276   4.213   4.928   2.568 -0.1145  0.5952 -2.0563
11621TIP3   OH256277   0.005   5.325  13.772 -0.3984  0.0212  0.2284
11621TIP3    H156278  -0.022   5.249  13.824  1.2470 -1.3283 -0.7607
11621TIP3    H256279   0.027   5.288  13.686  1.4129  1.4345  0.0213
11622TIP3   OH256280   3.033   5.472  15.265 -0.3784 -0.2047  0.0775
11622TIP3    H156281   3.054   5.560  15.233  0.7900  0.2356  1.9102
11622TIP3    H256282   3.099   5.416  15.225  0.2499  0.1150  0.6658
11623TIP3   OH256283   3.317   0.582   1.357 -0.2997 -0.2004 -0.5066
11623TIP3    H156284   3.255   0.511   1.339  0.1248 -0.4254 -1.0954
11623TIP3    H256285   3.381   0.577   1.286 -0.2142  0.7190 -0.5035
11624TIP3   OH256286   4.138   2.557   3.502  0.1443 -0.2569 -0.2099
11624TIP3    H156287   4.166   2.597   3.584  1.9091 -1.4494 -0.1679
11624TIP3    H256288   4.194   2.597   3.435  0.3037 -0.9240 -0.4905
11625TIP3   OH256289   5.938   2.959   0.220  0.2093 -0.1751 -0.6590
11625TIP3    H156290   5.896   2.926   0.300  1.9043 -0.7030  0.0804
11625TIP3    H256291   5.886   2.923   0.148 -0.3109 -1.2088  0.2025
11626TIP3   OH256292   1.999   3.459  13.488  0.1701  0.3915 -0.5861
11626TIP3    H156293   2.088   3.482  13.515  0.1007 -0.8391  0.8288
11626TIP3    H256294   1.946   3.534  13.514  0.3402 -0.1643  1.4894
11627TIP3   OH256295   2.649   5.956   2.321 -0.0226 -0.5036 -0.4665
11627TIP3    H156296   2.719   6.020   2.317  0.1252 -0.6311 -0.0198
11627TIP3    H256297   2.687   5.881   2.367 -0.5314 -0.4621  0.0449
11628TIP3   OH256298   0.621   5.104   5.583  0.0213  0.0883 -0.0516
11628TIP3    H156299   0.626   5.198   5.601 -2.5875  0.2323  0.2383
11628TIP3    H256300   0.577   5.066   5.659  1.0675 -1.4149 -0.1388
11629TIP3   OH256301   0.693   0.492   1.520  0.5070 -0.0616 -0.0091
11629TIP3    H156302   0.765   0.498   1.583  0.1580  0.8609  0.3239
11629TIP3    H256303   0.734   0.460   1.439  0.7463 -2.5378  0.9964
11630TIP3   OH256304   4.542   3.495   6.040 -0.0836 -0.3691  0.3073
11630TIP3    H156305   4.561   3.575   6.089 -0.9809  0.7218 -1.0328
11630TIP3    H256306   4.454   3.470   6.067 -0.9217  0.7063 -1.2489
11631TIP3   OH256307   0.782   3.088  16.384 -0.0283 -0.5241 -0.8667
11631TIP3    H156308   0.737   3.035  16.318  1.0122 -0.8256 -1.3475
11631TIP3    H256309   0.849   3.136  16.335  0.1475 -0.0345 -0.1680
11632TIP3   OH256310   0.456   0.411  12.191  0.4005  0.6862 -0.0428
11632TIP3    H156311   0.424   0.324  12.167  2.0711  0.0340 -0.0261
11632TIP3    H256312   0.551   0.404  12.187  0.5769  2.4988  0.0626
11633TIP3   OH256313   5.175   2.534   2.818 -0.4988 -0.4149 -0.4729
11633TIP3    H156314   5.140   2.461   2.869 -0.2127 -0.2077  0.0306
11633TIP3    H256315   5.193   2.602   2.884  2.7469 -1.2001 -0.3866
11634TIP3   OH256316   0.130   5.241  13.202  0.1754 -0.5301 -0.1238
11634TIP3    H156317   0.056   5.261  13.259  0.5390 -0.0207  0.1763
11634TIP3    H256318   0.143   5.146  13.211 -2.0931 -1.1143 -2.1905
11635TIP3   OH256319   6.714   2.728   2.977 -0.7089  0.4466  0.7735
11635TIP3    H156320   6.712   2.696   2.886 -0.7716 -1.8625  1.5319
11635TIP3    H256321   6.626   2.764   2.991 -0.4886  1.4569 -0.2625
11636TIP3   OH256322   6.265   3.912   4.897  0.1118  0.0368  0.5924
11636TIP3    H156323   6.221   3.839   4.940 -2.2377  1.6720  1.2004
11636TIP3    H256324   6.271   3.979   4.965  3.2637  0.1203  0.3950
11637TIP3   OH256325   2.808   0.492   1.100 -0.4402 -0.2628 -0.3554
11637TIP3    H156326   2.836   0.486   1.191 -0.4190 -2.6153 -0.4690
11637TIP3    H256327   2.791   0.586   1.087 -2.0860 -0.0099  2.5591
11638TIP3   OH256328   1.674   1.062   4.482  0.2030  0.1175 -0.0143
11638TIP3    H156329   1.617   0.987   4.469 -1.1107  1.3148 -1.6932
11638TIP3    H256330   1.730   1.064   4.404  1.8525 -0.3896  1.0885
11639TIP3   OH256331   0.682   1.675   2.408 -0.2557  0.2035 -0.4753
11639TIP3    H156332   0.730   1.747   2.451 -0.0815  0.8438 -1.7055
11639TIP3    H256333   0.697   1.599   2.465  0.9519  0.7538 -0.0295
11640TIP3   OH256334   5.594   5.505   3.970 -0.1819 -0.4574 -0.6634
11640TIP3    H156335   5.556   5.523   4.056  0.7725 -0.5803 -0.1913
11640TIP3    H256336   5.521   5.507   3.910 -1.1178 -1.7663  0.3621
11641TIP3   OH256337   2.184   2.534   4.719 -0.5148 -0.6016 -0.9518
11641TIP3    H156338   2.203   2.578   4.803 -0.1213 -0.3752 -1.1556
11641TIP3    H256339   2.223   2.591   4.653 -0.6770 -0.8683 -1.2791
11642TIP3   OH256340   2.110   3.507  12.114  0.8060 -0.4345  0.4215
11642TIP3    H156341   2.083   3.598  12.110 -1.3818 -1.0463 -0.0141
11642TIP3    H256342   2.122   3.489  12.208 -0.1581 -0.0629  0.6264
11643TIP3   OH256343   5.913   5.728  11.670 -0.0254  0.4365  0.3180
11643TIP3    H156344   6.001   5.752  11.638 -0.5045 -0.3393 -1.7326
11643TIP3    H256345   5.865   5.811  11.670  1.0879  1.1996  3.0730
11644TIP3   OH256346   4.773   0.556  17.233 -0.1978  0.1482  0.1080
11644TIP3    H156347   4.845   0.591  17.286  1.0304 -0.9044 -0.8067
11644TIP3    H256348   4.779   0.461  17.244  0.2230 -0.1125 -2.0606
11645TIP3   OH256349   5.618   4.083  17.213  0.1054  0.6685 -0.3856
11645TIP3    H156350   5.541   4.033  17.239  0.1047  0.1819 -1.2921
11645TIP3    H256351   5.630   4.063  17.120  0.3205  2.0680 -0.6828
11646TIP3   OH256352   4.578   5.309   3.545  0.1575  0.6128  0.2437
11646TIP3    H156353   4.509   5.347   3.490 -1.1065 -1.4044  0.3291
11646TIP3    H256354   4.549   5.218   3.560  2.4201 -0.0382  1.0086
11647TIP3   OH256355   2.444   6.108   0.878 -0.2025  0.1989 -0.1271
11647TIP3    H156356   2.376   6.155   0.926 -1.7420 -0.7696 -1.2305
11647TIP3    H256357   2.468   6.036   0.935 -0.8478 -0.0233 -0.1244
11648TIP3   OH256358   0.708   5.335  14.345 -0.0373  0.2869  0.5263
11648TIP3    H156359   0.659   5.275  14.401 -0.7037  1.9121  1.7849
11648TIP3    H256360   0.749   5.397  14.406  1.3526  0.6019 -0.6681
11649TIP3   OH256361   5.674   4.958   6.325  0.3372 -0.0313  0.7650
11649TIP3    H156362   5.662   4.941   6.418  1.2078 -0.4242  0.8219
11649TIP3    H256363   5.618   5.033   6.306 -0.7909 -0.7161  1.3245
11650TIP3   OH256364   4.473   2.228   1.118 -0.0849 -0.1237  0.6456
11650TIP3    H156365   4.378   2.234   1.123 -0.3049 -0.3059 -1.9823
11650TIP3    H256366   4.491   2.204   1.027  2.6059  2.6453  0.2982
11651TIP3   OH256367   2.262   4.426   3.311  0.4350 -0.0355 -0.2247
11651TIP3    H156368   2.229   4.392   3.395  0.5740  1.4168  0.4509
11651TIP3    H256369   2.351   4.456   3.331  0.5588  0.1024 -0.9579
11652TIP3   OH256370   0.391   4.128   3.495  0.5139  0.0916 -0.5861
11652TIP3    H156371   0.384   4.218   3.464 -0.3758  0.0999 -0.3702
11652TIP3    H256372   0.426   4.137   3.584 -0.8107  0.3205 -0.0626
11653TIP3   OH256373   3.867   2.717  15.418  0.2032 -0.1318 -0.2407
11653TIP3    H156374   3.802   2.740  15.485  0.3064 -1.3244  0.2904
11653TIP3    H256375   3.945   2.692  15.468  0.1121 -1.5466 -0.7543
11654TIP3   OH256376   3.564   1.964  11.952  0.7237 -0.3082  0.0595
11654TIP3    H156377   3.564   1.891  11.890  1.3892 -0.8238  0.6576
11654TIP3    H256378   3.607   1.930  12.030  0.8787  0.6629  0.4163
11655TIP3   OH256379   1.108   5.227   4.903 -0.2055 -0.5804 -0.1275
11655TIP3    H156380   1.197   5.260   4.916 -0.7535  1.1533 -0.5521
11655TIP3    H256381   1.076   5.211   4.992 -0.0054  0.2871  0.1062
11656TIP3   OH256382   0.050   4.134   4.802 -0.2993  0.3773  0.3653
11656TIP3    H156383   0.083   4.052   4.765  3.3901  1.8874 -0.1511
11656TIP3    H256384   0.028   4.112   4.893  1.9125 -0.9867  0.6464
11657TIP3   OH256385   4.945   0.932   4.944  0.3117  0.8296  0.1005
11657TIP3    H156386   5.030   0.959   4.977  0.1870 -0.5243  1.6688
11657TIP3    H256387   4.957   0.841   4.919 -0.7150  0.5575  0.5544
11658TIP3   OH256388   1.985   1.209   1.454 -0.1118  0.1315  0.1881
11658TIP3    H156389   1.994   1.263   1.376 -0.5710  0.8159  0.5985
11658TIP3    H256390   1.901   1.164   1.443 -0.4970  0.7478  0.6014
11659TIP3   OH256391   4.040   4.570   1.533  0.3230 -0.1191  0.4472
11659TIP3    H156392   3.958   4.565   1.581 -1.2489  2.5711 -1.6432
11659TIP3    H256393   4.101   4.614   1.592 -0.2957 -0.4659  1.3546
11660TIP3   OH256394   5.809   5.713  11.953 -0.2352 -0.8753  0.6903
11660TIP3    H156395   5.767   5.722  12.039  1.1606 -1.2430  1.4399
11660TIP3    H256396   5.738   5.725  11.891 -1.0476  0.8247  1.8599
11661TIP3   OH256397   4.532   2.598   1.039 -0.1323 -0.6174  0.1867
11661TIP3    H156398   4.539   2.586   0.944  0.5219  0.6273  0.0658
11661TIP3    H256399   4.615   2.566   1.074  1.3323  2.4962 -0.0752
11662TIP3   OH256400   0.537   3.273  11.706 -0.6342  0.0010  0.2155
11662TIP3    H156401   0.539   3.255  11.800 -0.1573  0.0829  0.2230
11662TIP3    H256402   0.623   3.312  11.687 -0.1538 -1.3503 -0.5096
11663TIP3   OH256403   4.367   3.637  14.021  0.7173  0.2643  0.6057
11663TIP3    H156404   4.306   3.611  13.952  1.5850 -1.6090  0.4931
11663TIP3    H256405   4.367   3.733  14.017 -2.1236  0.3672  0.5767
11664TIP3   OH256406   3.334   3.246  17.077 -0.7513 -0.1481  0.0551
11664TIP3    H156407   3.354   3.242  16.984 -1.7830 -0.9256 -0.1546
11664TIP3    H256408   3.267   3.314  17.084  1.0147  1.5985  0.5796
11665TIP3   OH256409   5.343   4.535   1.465  0.0220 -0.2398  0.6565
11665TIP3    H156410   5.348   4.559   1.373  0.7349 -0.7645  0.5496
11665TIP3    H256411   5.281   4.598   1.503  0.2882  0.4531 -0.0238
11666TIP3   OH256412   5.425   6.630  11.954  0.0721 -0.2300  0.2691
11666TIP3    H156413   5.346   6.584  11.980 -0.5992  1.9574  2.4152
11666TIP3    H256414   5.415   6.718  11.989  2.8360  0.5602 -0.6353
11667TIP3   OH256415   5.854   2.827  17.013 -0.1713 -0.5486 -0.1078
11667TIP3    H156416   5.927   2.766  17.013 -0.5349 -1.0393 -1.6493
11667TIP3    H256417   5.780   2.777  17.048  0.0724 -0.2450  0.8597
11668TIP3   OH256418   5.013   0.685   4.907  0.0263  0.4912 -0.9301
11668TIP3    H156419   5.093   0.640   4.936  0.0909 -0.5359 -2.5320
11668TIP3    H256420   4.986   0.636   4.830 -3.4711 -0.6561  0.8235
11669TIP3   OH256421   1.297   4.710  16.942 -0.1178  0.4071 -0.2462
11669TIP3    H156422   1.256   4.626  16.960  0.4142 -0.1396 -1.4868
11669TIP3    H256423   1.390   4.691  16.939  0.1045  1.2740  0.5796
11670TIP3   OH256424   5.352   5.328   1.945 -0.2649  0.5426 -0.1559
11670TIP3    H156425   5.312   5.413   1.966  0.4375  0.7904  0.2232
11670TIP3    H256426   5.444   5.339   1.968 -0.4932 -0.9347  1.7216
11671TIP3   OH256427   1.578   0.377  13.212 -0.3790  0.7307 -0.1398
11671TIP3    H156428   1.581   0.465  13.176  1.8076  0.3918 -0.9413
11671TIP3    H256429   1.639   0.378  13.285  2.1502 -0.8069 -2.0528
11672TIP3   OH256430   3.491   5.920  16.340 -0.2427  0.5410  0.5299
11672TIP3    H156431   3.443   5.846  16.378 -0.6847  0.2489 -0.5678
11672TIP3    H256432   3.429   5.960  16.279 -0.1791  2.1259  1.4327
11673TIP3   OH256433   1.766   3.859   4.372  0.0875  0.0233  0.4997
11673TIP3    H156434   1.687   3.817   4.337 -1.6621  0.6656  3.3353
11673TIP3    H256435   1.837   3.799   4.349 -1.4577 -1.4361 -0.7180
11674TIP3   OH256436   5.818   0.257  13.368 -0.6702 -0.4618  0.3170
11674TIP3    H156437   5.783   0.178  13.409 -0.3248 -1.1184 -0.6273
11674TIP3    H256438   5.869   0.225  13.294  0.3798  0.5868  0.5610
11675TIP3   OH256439   0.952   6.079  12.455  0.2817  0.7789  0.0251
11675TIP3    H156440   0.957   6.116  12.367  1.2175  0.4588 -0.0661
11675TIP3    H256441   0.873   6.026  12.454  0.9714 -0.2840 -1.0502
11676TIP3   OH256442   5.399   5.016  16.567 -0.3287  0.0893  0.3668
11676TIP3    H156443   5.415   5.110  16.578  1.7810 -0.1842  0.0873
11676TIP3    H256444   5.315   5.011  16.522 -0.1559  1.8768 -0.2387
11677TIP3   OH256445   1.550   6.689  11.570  0.1302 -0.2564 -0.6038
11677TIP3    H156446   1.496   6.738  11.632 -1.2133  1.2454 -2.8059
11677TIP3    H256447   1.621   6.653  11.623 -1.3513  0.2586  1.9046
11678TIP3   OH256448   4.481   1.436  13.299 -0.0123 -0.5368  0.9683
11678TIP3    H156449   4.472   1.520  13.255 -0.1825 -0.9408  0.2271
11678TIP3    H256450   4.518   1.458  13.385 -1.3444  0.4246  1.3139
11679TIP3   OH256451   3.565   5.877  13.024  0.3951 -0.0403 -0.0069
11679TIP3    H156452   3.614   5.796  13.008  0.6075  0.1380 -0.2668
11679TIP3    H256453   3.551   5.879  13.119  0.8614 -0.1120  0.0626
11680TIP3   OH256454   6.388   1.687   1.014  0.3339  0.0854 -0.2953
11680TIP3    H156455   6.318   1.631   1.045  0.3059 -0.0699 -0.6315
11680TIP3    H256456   6.442   1.704   1.092 -0.0144  0.1191 -0.0616
11681TIP3   OH256457   6.648   4.343  11.384  0.5119 -0.7740 -0.1847
11681TIP3    H156458   6.620   4.394  11.460 -0.7864 -1.2870 -0.2906
11681TIP3    H256459   6.634   4.252  11.409  0.4922 -0.9715 -0.8766
11682TIP3   OH256460   6.428   3.948   2.435  0.0974  0.3081  0.4074
11682TIP3    H156461   6.444   4.037   2.466 -0.5700  0.2724  0.8581
11682TIP3    H256462   6.500   3.932   2.373  1.0987  0.6030  1.4497
11683TIP3   OH256463   0.742   6.404   6.325 -0.5573 -0.0772  0.8849
11683TIP3    H156464   0.727   6.365   6.411 -1.3123  0.4084  0.9871
11683TIP3    H256465   0.700   6.490   6.330 -1.3253 -0.3675 -0.2345
11684TIP3   OH256466   1.900   4.577  14.619 -0.7516  0.0188 -0.3096
11684TIP3    H156467   1.893   4.538  14.706  0.5874  2.3005  0.9260
11684TIP3    H256468   1.967   4.525  14.574 -0.9399 -0.7518  0.2892
11685TIP3   OH256469   6.285   0.983  12.728  0.1819  0.9547 -0.7979
11685TIP3    H156470   6.222   0.915  12.705  0.9653 -0.1096  0.1217
11685TIP3    H256471   6.269   1.000  12.820  1.4941  0.3733 -0.4448
11686TIP3   OH256472   0.632   3.177  14.414 -0.2407  0.2658  0.3326
11686TIP3    H156473   0.604   3.237  14.345 -3.5003 -1.5403 -0.1106
11686TIP3    H256474   0.695   3.118  14.371 -1.1823  0.0182 -0.7594
11687TIP3   OH256475   1.270   4.211   3.194 -0.1777  0.3010 -0.1376
11687TIP3    H156476   1.252   4.274   3.125 -0.0358 -0.1106 -0.5571
11687TIP3    H256477   1.303   4.263   3.267  0.1471  0.6833 -0.5579
11688TIP3   OH256478   4.535   2.862   2.201  0.5068  0.3908 -0.4505
11688TIP3    H156479   4.497   2.832   2.283  2.2599 -1.7023 -0.3094
11688TIP3    H256480   4.460   2.877   2.143 -0.6457 -0.6841  0.7094
11689TIP3   OH256481   4.842   0.007   1.859  0.1413 -0.2869 -0.0437
11689TIP3    H156482   4.934  -0.019   1.868  0.2517  0.2393  0.4103
11689TIP3    H256483   4.846   0.101   1.840 -0.2610 -0.5103 -1.3290
11690TIP3   OH256484   5.381   0.954  12.393 -0.2138 -0.0363 -0.2285
11690TIP3    H156485   5.465   0.985  12.426 -0.5786  2.0090 -1.0649
11690TIP3    H256486   5.402   0.914  12.308  0.0158 -0.3190 -0.0405
11691TIP3   OH256487   1.074   1.816  11.395 -0.0134  0.4364  0.2861
11691TIP3    H156488   1.055   1.759  11.469  1.3937  0.1519  0.4591
11691TIP3    H256489   1.165   1.797  11.372  0.6959  2.9368  0.6515
11692TIP3   OH256490   3.084   3.323  11.228  0.2129  0.3859  0.0665
11692TIP3    H156491   3.143   3.299  11.156  0.7595 -0.3923  0.7452
11692TIP3    H256492   3.029   3.392  11.192 -0.3592 -0.8141 -1.5050
11693TIP3   OH256493   5.424   6.752   4.296  0.1925  0.0186  0.3960
11693TIP3    H156494   5.397   6.842   4.317  0.6411 -0.1071  1.5582
11693TIP3    H256495   5.515   6.747   4.325  0.4327 -0.5729 -0.4282
11694TIP3   OH256496   0.062   6.411   3.580 -0.3380 -0.4374 -0.1821
11694TIP3    H156497  -0.019   6.360   3.580 -0.6902  0.0176  1.9762
11694TIP3    H256498   0.069   6.446   3.491 -2.7370 -0.1807 -0.3307
11695TIP3   OH256499   0.505   1.782   5.723 -0.0159 -0.3910  0.3554
11695TIP3    H156500   0.458   1.865   5.710  1.8280  0.7374  0.4861
11695TIP3    H256501   0.527   1.781   5.816 -0.3318 -1.2085  0.4276
11696TIP3   OH256502   1.491   5.459   1.155  0.0955 -0.2109  0.0541
11696TIP3    H156503   1.545   5.381   1.141  0.5713  0.0368  0.4679
11696TIP3    H256504   1.404   5.424   1.177  0.2263 -0.6189 -0.0603
11697TIP3   OH256505   2.199   1.926   3.651 -0.1758 -0.4515 -0.1468
11697TIP3    H156506   2.119   1.924   3.598 -0.3553 -1.0704  0.1372
11697TIP3    H256507   2.257   1.863   3.608  0.6840  0.9786 -1.1472
11698TIP3   OH256508   5.674   2.289   3.896 -0.9335  0.2282 -0.1388
11698TIP3    H156509   5.668   2.305   3.990 -3.7667  0.0419 -0.2209
11698TIP3    H256510   5.704   2.373   3.860  0.2355  0.2862  0.8839
11699TIP3   OH256511   1.075   5.334   1.604 -0.3642 -0.5173  0.4819
11699TIP3    H156512   1.010   5.386   1.557 -1.5424 -2.1925  0.1546
11699TIP3    H256513   1.068   5.363   1.695  0.1219  0.9452  0.0823
11700TIP3   OH256514   0.611   1.445   3.202  0.0159  0.0643  0.0693
11700TIP3    H156515   0.520   1.467   3.183 -0.5662 -1.5744  0.7681
11700TIP3    H256516   0.613   1.430   3.296  1.3873  1.6145  0.3344
11701TIP3   OH256517   3.214   2.934   5.046 -0.2775  0.3345 -0.0336
11701TIP3    H156518   3.214   2.893   5.133 -0.7180  0.3525 -0.0194
11701TIP3    H256519   3.306   2.951   5.027 -0.0728 -0.7651 -0.0896
11702TIP3   OH256520   3.327   2.580   0.649 -0.5072 -0.0386 -0.0733
11702TIP3    H156521   3.341   2.603   0.740  0.2716  2.6494 -0.7864
11702TIP3    H256522   3.328   2.484   0.648  2.7459 -0.1920  2.2412
11703TIP3   OH256523   3.334   0.234  11.688  0.0512  0.2793 -0.1270
11703TIP3    H156524   3.288   0.309  11.651  0.2505  1.6398  2.2032
11703TIP3    H256525   3.286   0.158  11.656 -2.1112  1.5275 -0.0359
11704TIP3   OH256526   1.130   2.124   1.887 -0.6700  0.3218  0.2367
11704TIP3    H156527   1.111   2.196   1.946 -1.8862 -0.7843  1.2433
11704TIP3    H256528   1.189   2.068   1.935 -1.6907 -0.6022  0.4505
11705TIP3   OH256529   4.650   0.126   5.135  0.4325  0.2405 -0.1064
11705TIP3    H156530   4.737   0.117   5.176  0.0665  0.2235  0.6880
11705TIP3    H256531   4.643   0.050   5.078  1.5073  0.9747 -1.2620
11706TIP3   OH256532   3.299   1.143   1.529  0.2622  0.0464  0.1330
11706TIP3    H156533   3.269   1.054   1.544 -0.5824  0.4210  0.7383
11706TIP3    H256534   3.337   1.141   1.441 -0.0737 -0.8257  0.0015
11707TIP3   OH256535   6.484   0.583   0.623  0.0431 -0.3528 -0.1813
11707TIP3    H156536   6.451   0.639   0.693 -1.0921 -2.1712  0.8111
11707TIP3    H256537   6.572   0.557   0.651  0.1170 -0.0027 -0.0883
11708TIP3   OH256538   1.543   2.295   2.580 -0.2419  0.6356 -0.5065
11708TIP3    H156539   1.628   2.264   2.610 -0.8391 -1.0622 -0.4371
11708TIP3    H256540   1.559   2.330   2.492  0.0970 -2.4122 -1.7742
11709TIP3   OH256541   3.483   2.026   3.262  0.2182 -0.4400 -0.4723
11709TIP3    H156542   3.439   1.981   3.334 -0.7658  1.9642  0.5458
11709TIP3    H256543   3.568   2.052   3.297  0.3866 -0.6361 -0.7282
11710TIP3   OH256544   2.360   1.145  12.650  0.3126  0.4262  0.5370
11710TIP3    H156545   2.394   1.067  12.606  3.0036  1.6115  0.3699
11710TIP3    H256546   2.316   1.195  12.582 -0.4236 -0.3770  0.4104
11711TIP3   OH256547   5.030   3.852   1.441 -0.5874  0.5410 -0.1344
11711TIP3    H156548   5.083   3.902   1.379  1.2587  0.1284  1.0247
11711TIP3    H256549   5.019   3.766   1.400  0.6047  0.2750  0.0668
11712TIP3   OH256550   1.646   3.388   1.158  0.3123 -0.1842 -0.2362
11712TIP3    H156551   1.708   3.325   1.121  0.8173  0.7838 -1.1065
11712TIP3    H256552   1.593   3.337   1.218  1.0726 -1.3218 -0.4933
11713TIP3   OH256553   2.997   3.030  12.022  0.1230  0.0117  0.0598
11713TIP3    H156554   3.040   3.115  12.016 -0.1731  0.3073  1.6797
11713TIP3    H256555   3.035   2.978  11.951  0.4425  1.4271 -0.8288
11714TIP3   OH256556   0.643   4.950  12.215  0.6279  0.3354  0.2129
11714TIP3    H156557   0.738   4.949  12.228  0.6573 -0.5968 -0.0070
11714TIP3    H256558   0.630   5.003  12.137  0.7045  3.0813  1.9350
11715TIP3   OH256559   0.854   6.728   3.862 -0.3769 -0.0952 -0.2977
11715TIP3    H156560   0.884   6.804   3.812 -1.1129 -0.6837 -1.6732
11715TIP3    H256561   0.860   6.756   3.953  1.4934  0.8256 -0.6485
11716TIP3   OH256562   1.919   1.435  15.115 -0.4618  0.2108 -0.0530
11716TIP3    H156563   1.871   1.420  15.197 -0.6194 -0.1794 -0.2104
11716TIP3    H256564   1.881   1.515  15.079 -1.4597 -0.4306 -0.4942
11717TIP3   OH256565   5.591   1.799   4.340  0.3207  0.5576  0.5382
11717TIP3    H156566   5.618   1.839   4.257 -0.8793  1.3188  0.4823
11717TIP3    H256567   5.572   1.873   4.397 -2.5837  0.1954  0.2192
11718TIP3   OH256568   5.337   0.845   0.453  0.5598 -0.1981  0.0726
11718TIP3    H156569   5.296   0.920   0.496  0.5962  0.4829 -1.0274
11718TIP3    H256570   5.413   0.882   0.408  1.4592 -1.1700  0.7426
11719TIP3   OH256571   5.908   2.598   3.068  0.2152  0.0429 -0.2002
11719TIP3    H156572   5.861   2.530   3.020  0.8072  0.4259 -1.3551
11719TIP3    H256573   5.914   2.671   3.006  0.5197  0.7531  0.6541
11720TIP3   OH256574   3.098   5.295  17.224 -1.0865  0.0311 -0.0400
11720TIP3    H156575   3.044   5.323  17.149 -0.7712 -1.1265 -0.7238
11720TIP3    H256576   3.171   5.357  17.225 -1.3677  0.3750 -0.3607
11721TIP3   OH256577   4.571   0.214   0.662  0.0313 -0.2769 -0.0887
11721TIP3    H156578   4.585   0.278   0.593  1.6637 -1.8333 -1.2892
11721TIP3    H256579   4.621   0.247   0.737  0.0580  0.3158 -0.3649
11722TIP3   OH256580   0.836   2.071  15.150  0.2258  0.0873  0.1291
11722TIP3    H156581   0.805   2.161  15.141 -0.4723 -0.3298 -2.4408
11722TIP3    H256582   0.756   2.019  15.160  0.6211 -0.2828  1.5609
11723TIP3   OH256583   5.912   3.631   4.528 -0.4197  0.0468  0.2370
11723TIP3    H156584   5.960   3.710   4.501 -1.0206  0.5418  0.5918
11723TIP3    H256585   5.953   3.560   4.478 -0.4830  0.7195 -0.7920
11724TIP3   OH256586   5.377   4.705  14.128  0.5280  0.1954  0.2083
11724TIP3    H156587   5.334   4.684  14.045  0.0961  0.5973  0.3259
11724TIP3    H256588   5.371   4.625  14.179 -1.8267  0.7881  0.9620
11725TIP3   OH256589   5.897   2.496  14.775  0.5178  0.0383 -0.0046
11725TIP3    H156590   5.875   2.467  14.863 -0.5376  0.0200 -0.2705
11725TIP3    H256591   5.908   2.415  14.725  0.8112  0.0540  0.0320
11726TIP3   OH256592   4.808   5.297  15.128  0.4103 -0.9415 -0.3117
11726TIP3    H156593   4.734   5.267  15.075 -0.1066  0.2702 -0.3252
11726TIP3    H256594   4.769   5.362  15.187  1.4115 -0.5464 -0.0776
11727TIP3   OH256595   0.796   6.132   0.637  0.0323  0.1426  0.7171
11727TIP3    H156596   0.851   6.201   0.673 -0.0521  1.3471 -1.3392
11727TIP3    H256597   0.774   6.161   0.549 -2.1669 -1.3042  0.7000
11728TIP3   OH256598   6.415   4.539  14.962  0.3000  0.7224 -0.4403
11728TIP3    H156599   6.348   4.536  14.894 -0.4428  0.2539  0.2845
11728TIP3    H256600   6.494   4.504  14.920  0.2602  1.8113 -1.4675
11729TIP3   OH256601   0.585   0.296  15.890  0.6761 -0.3262 -0.3468
11729TIP3    H156602   0.547   0.222  15.936  0.9796 -0.0333  0.3899
11729TIP3    H256603   0.601   0.361  15.959 -1.0708  1.0622 -1.1584
11730TIP3   OH256604   6.443   2.592   3.868  0.4779 -0.3699  0.1304
11730TIP3    H156605   6.424   2.527   3.800  0.1790 -1.3986  1.1594
11730TIP3    H256606   6.360   2.604   3.914  0.4860  0.8884 -0.1433
11731TIP3   OH256607   5.044   5.639  11.978  0.4824 -0.0130 -0.0404
11731TIP3    H156608   5.020   5.567  11.919  0.0610 -0.1273  0.2683
11731TIP3    H256609   5.134   5.662  11.952 -0.0542  0.6443 -1.4441
11732TIP3   OH256610   2.180   2.283  13.906  0.1000 -0.3500  0.2313
11732TIP3    H156611   2.186   2.209  13.967  2.0528  2.0404  3.2746
11732TIP3    H256612   2.095   2.322  13.925  0.1979 -0.3120  0.6178
11733TIP3   OH256613   0.574   2.016   1.488 -0.1194  0.4639 -0.4108
11733TIP3    H156614   0.479   2.011   1.483 -0.1727  1.6154 -0.9105
11733TIP3    H256615   0.604   1.926   1.475 -1.0834  0.3085 -1.7574
11734TIP3   OH256616   0.945   2.246  11.163 -0.1654 -0.0248 -0.4295
11734TIP3    H156617   0.947   2.150  11.169 -1.4742 -0.1519 -1.5669
11734TIP3    H256618   0.966   2.275  11.252  4.7471 -1.1912 -0.8871
11735TIP3   OH256619   0.072   1.329  15.132  0.1426  0.7400  0.0478
11735TIP3    H156620   0.074   1.265  15.061 -1.3780 -0.2019  0.7857
11735TIP3    H256621   0.117   1.286  15.205  3.0513  2.2862 -0.7040
11736TIP3   OH256622   0.466   4.522   4.630  0.0239  0.6806 -0.2973
11736TIP3    H156623   0.557   4.537   4.606  0.1474  1.0616  0.4093
11736TIP3    H256624   0.428   4.480   4.552  1.0481 -0.4376 -0.2344
11737TIP3   OH256625   4.373   4.439   1.852 -0.2313  0.3832 -0.0557
11737TIP3    H156626   4.453   4.478   1.887  1.1371 -2.0125 -0.2805
11737TIP3    H256627   4.403   4.363   1.801 -2.4597  0.9790 -2.5064
11738TIP3   OH256628   0.139   1.610   3.311 -0.3360  0.5934 -0.4455
11738TIP3    H156629   0.082   1.551   3.262  0.5773 -0.8670  0.1523
11738TIP3    H256630   0.085   1.685   3.332 -2.6477 -1.4524  1.5869
11739TIP3   OH256631   3.116   4.213  13.674  0.8058  0.3148  0.2916
11739TIP3    H156632   3.199   4.173  13.699  0.1971 -1.6644 -0.6503
11739TIP3    H256633   3.050   4.160  13.718 -0.0278  0.5304 -0.6680
11740TIP3   OH256634   4.971   1.248   3.918  0.2476  0.1595  0.1535
11740TIP3    H156635   5.056   1.260   3.875 -1.0024 -0.5190 -2.7325
11740TIP3    H256636   4.921   1.193   3.858 -1.9889 -0.1518  2.1520
11741TIP3   OH256637   1.925   5.308  15.283 -0.7420  0.2735 -0.2241
11741TIP3    H156638   1.970   5.373  15.228  0.5310  0.3827  0.9127
11741TIP3    H256639   1.931   5.343  15.371 -1.8847 -0.3954  0.1357
11742TIP3   OH256640   2.321   1.112  15.848  0.6337  0.6176 -0.9928
11742TIP3    H156641   2.252   1.160  15.801 -0.0216  1.2339  0.5497
11742TIP3    H256642   2.332   1.160  15.930 -1.9483 -3.2433  1.9681
11743TIP3   OH256643   4.583   1.183  11.891 -0.1183  0.0645 -0.2664
11743TIP3    H156644   4.583   1.224  11.804  1.6344  1.1005  0.1744
11743TIP3    H256645   4.591   1.256  11.952 -4.1910 -0.3297  1.0733
11744TIP3   OH256646   4.900   3.598   2.284  0.0986  0.2652  0.1764
11744TIP3    H156647   4.913   3.678   2.336  0.1246  0.7932 -0.6206
11744TIP3    H256648   4.827   3.619   2.226  0.2705 -0.1982 -0.2094
11745TIP3   OH256649   1.825   2.748   5.318 -0.7115  0.0956  0.1649
11745TIP3    H156650   1.792   2.837   5.331 -0.3403  0.0696  1.4896
11745TIP3    H256651   1.754   2.702   5.272 -0.5291  1.2938 -1.3651
11746TIP3   OH256652   1.830   4.627   6.098  0.0403  0.1548  0.1331
11746TIP3    H156653   1.840   4.534   6.080  0.7453 -0.0035  1.2457
11746TIP3    H256654   1.762   4.656   6.037  1.1122 -0.6743 -1.5243
11747TIP3   OH256655   2.236   6.426  12.710  0.0075  0.0350 -0.2584
11747TIP3    H156656   2.244   6.340  12.669  0.9822 -0.4158  0.8325
11747TIP3    H256657   2.177   6.474  12.652 -1.7502 -1.8328 -0.1461
11748TIP3   OH256658   3.063   2.615   5.151 -0.5370 -0.3591  0.0176
11748TIP3    H156659   3.038   2.546   5.213 -2.1591 -0.7022 -0.9646
11748TIP3    H256660   3.016   2.692   5.180 -0.2681 -0.1711 -0.0372
11749TIP3   OH256661   4.682   4.834   2.034 -0.0870  0.0897 -0.3699
11749TIP3    H156662   4.604   4.882   2.006  0.0662  0.5275 -0.0624
11749TIP3    H256663   4.737   4.900   2.075  0.5668 -0.1666 -0.8201
11750TIP3   OH256664   1.480   2.025  10.949 -0.2675  0.0828 -1.0087
11750TIP3    H156665   1.391   2.060  10.956 -1.0032 -1.8209 -0.3234
11750TIP3    H256666   1.494   2.016  10.855  0.0148  2.2640 -1.2337
11751TIP3   OH256667   5.779   6.267  11.837  0.0657 -0.5134  0.5157
11751TIP3    H156668   5.838   6.343  11.842 -1.4878  0.7783  0.1526
11751TIP3    H256669   5.713   6.284  11.905 -2.1997  0.2235 -1.7108
11752TIP3   OH256670   3.240   2.879   5.336  0.0915  0.4926 -0.4925
11752TIP3    H156671   3.177   2.868   5.407  0.3320 -0.2443 -0.3871
11752TIP3    H256672   3.286   2.960   5.356  0.3560  0.1383  0.3439
11753TIP3   OH256673   1.650   0.122  10.960 -0.4117 -0.2119  0.0175
11753TIP3    H156674   1.711   0.192  10.935 -0.3228 -1.0078 -2.2015
11753TIP3    H256675   1.565   0.151  10.926 -0.8636 -0.0958  1.2197
11754TIP3   OH256676   6.546   2.673  15.402 -0.0740 -0.1662  0.4650
11754TIP3    H156677   6.562   2.756  15.447 -0.6886 -0.3680  1.0723
11754TIP3    H256678   6.632   2.645  15.371  0.1505  0.6426  0.3554
11755TIP3   OH256679   0.398   4.380  16.155 -0.2057  0.1986 -0.3268
11755TIP3    H156680   0.450   4.359  16.077 -1.0021  1.1492 -1.1489
11755TIP3    H256681   0.432   4.322  16.223  2.2818  1.1037 -0.6859
11756TIP3   OH256682   3.738   1.033   2.032 -0.8536  0.0766 -0.5316
11756TIP3    H156683   3.802   1.061   2.098 -2.4129 -0.6693  1.4109
11756TIP3    H256684   3.711   1.115   1.989  0.5001  0.5331 -0.5733
11757TIP3   OH256685   0.571   3.987   4.961  0.3036 -0.2660 -0.1049
11757TIP3    H156686   0.648   3.991   4.904 -1.2855  0.7117 -2.3476
11757TIP3    H256687   0.570   4.073   5.005  1.2231 -0.8138  1.0502
11758TIP3   OH256688   4.777   6.205  16.853 -0.1999  0.2479  0.4637
11758TIP3    H156689   4.681   6.210  16.849 -0.2067  1.3232  1.4200
11758TIP3    H256690   4.795   6.134  16.914 -0.3566 -0.8741 -0.7656
11759TIP3   OH256691   4.238   3.766   5.440  0.1499  0.3169  0.1884
11759TIP3    H156692   4.185   3.758   5.520  0.0754  2.0809  0.3467
11759TIP3    H256693   4.329   3.766   5.472  0.2143 -0.9814  0.0664
11760TIP3   OH256694   5.179   2.771   2.964 -0.1681  0.5997 -0.2152
11760TIP3    H156695   5.237   2.800   2.893 -1.4862  4.5207  0.0611
11760TIP3    H256696   5.167   2.849   3.019 -3.3812 -0.7959  1.3521
11761TIP3   OH256697   4.996   0.444   4.698 -0.3381 -0.8752  0.3970
11761TIP3    H156698   4.991   0.417   4.790  0.0224 -1.5266  0.2379
11761TIP3    H256699   4.999   0.361   4.649  1.4384 -0.5828 -0.0871
11762TIP3   OH256700   5.435   0.599   2.375  0.4615 -0.4818 -0.0715
11762TIP3    H156701   5.509   0.555   2.332  1.2578  0.2003  0.5646
11762TIP3    H256702   5.377   0.622   2.303  0.0881 -2.3922 -0.4527
11763TIP3   OH256703   4.746   0.999   2.000 -0.6585 -0.2375 -0.1966
11763TIP3    H156704   4.818   1.030   1.945 -1.3714 -3.5246 -3.4208
11763TIP3    H256705   4.768   0.909   2.020 -3.6723 -1.3438 -1.2161
11764TIP3   OH256706   3.243   1.644   0.082  0.2737  0.1126  0.4381
11764TIP3    H156707   3.316   1.636   0.144  0.4363 -1.5175  0.0818
11764TIP3    H256708   3.259   1.575   0.018 -0.8075  0.6880 -0.4683
11765TIP3   OH256709   6.596   1.498  17.091 -0.4401  0.1193 -0.0555
11765TIP3    H156710   6.691   1.487  17.101 -0.5078 -0.0564  0.4382
11765TIP3    H256711   6.565   1.416  17.054 -0.5961 -0.4029  1.1960
11766TIP3   OH256712   4.070   6.559   4.877 -0.6413 -0.4164  0.5524
11766TIP3    H156713   4.129   6.488   4.853 -0.8365 -0.6278  0.7003
11766TIP3    H256714   4.115   6.605   4.948 -0.5442 -0.4296  0.4998
11767TIP3   OH256715   3.052   2.535  13.075 -0.4202  0.3722 -0.2520
11767TIP3    H156716   2.986   2.585  13.026  0.6981  0.0030 -2.2408
11767TIP3    H256717   3.126   2.595  13.083 -0.2561  0.1106  0.1810
11768TIP3   OH256718   2.694   3.716  12.170 -0.6036  0.5110  0.8885
11768TIP3    H156719   2.615   3.665  12.157 -1.1533  1.1412  1.7009
11768TIP3    H256720   2.665   3.807  12.169  0.4777  0.9287 -1.4918
11769TIP3   OH256721   3.679   0.390  11.414  0.1283  0.6900 -0.7780
11769TIP3    H156722   3.621   0.445  11.466 -0.1489  0.4972 -0.8822
11769TIP3    H256723   3.715   0.449  11.348 -1.4289  0.4010 -1.9229
11770TIP3   OH256724   0.585   2.188  11.014  0.4554 -0.5274  0.7212
11770TIP3    H156725   0.671   2.217  10.982 -0.6673  1.6264 -0.6287
11770TIP3    H256726   0.572   2.102  10.975  2.6483 -1.6583  2.2931
11771TIP3   OH256727   3.560   2.583   6.534 -0.1167 -0.7317  0.0274
11771TIP3    H156728   3.595   2.515   6.475  0.2773 -0.0415 -0.5539
11771TIP3    H256729   3.500   2.633   6.478  0.1929 -0.1244  0.2350
11772TIP3   OH256730   3.345   4.314  15.557  0.1113  0.1221 -0.4673
11772TIP3    H156731   3.366   4.317  15.651  0.1311 -1.0186 -0.4175
11772TIP3    H256732   3.292   4.235  15.547  1.3272 -0.5975 -1.6441
11773TIP3   OH256733   5.112   0.351   2.972 -0.2061 -0.1021 -0.4651
11773TIP3    H156734   5.068   0.269   2.948 -0.0323 -0.4527  0.3849
11773TIP3    H256735   5.204   0.336   2.949 -0.5066  0.6725 -2.3482
11774TIP3   OH256736   2.515   1.565   6.047  0.2154 -0.3431 -0.4441
11774TIP3    H156737   2.425   1.570   6.014 -1.2856 -0.7038  3.1276
11774TIP3    H256738   2.526   1.474   6.074  1.3363 -0.0975  0.0054
11775TIP3   OH256739   5.211   1.479  16.487  0.2478  0.6969 -0.7036
11775TIP3    H156740   5.270   1.544  16.448 -0.7052  1.9610 -0.1340
11775TIP3    H256741   5.250   1.458  16.571  0.0690  1.3144 -0.4541
11776TIP3   OH256742   6.223   6.046   0.010  0.1217  0.1555 -0.6500
11776TIP3    H156743   6.248   5.955  -0.008  1.1319  0.7190 -2.4162
11776TIP3    H256744   6.128   6.047   0.007  0.1307 -0.7074 -1.4027
11777TIP3   OH256745   2.631   1.421   3.940  0.2486  0.4492  0.1572
11777TIP3    H156746   2.624   1.516   3.952 -0.6038  0.1520  2.9892
11777TIP3    H256747   2.708   1.396   3.991 -0.1836 -0.4821  0.3814
11778TIP3   OH256748   0.122   1.025   1.113 -0.8907 -0.7278  0.0350
11778TIP3    H156749   0.065   0.951   1.091  0.5605 -1.6438 -0.7425
11778TIP3    H256750   0.208   1.000   1.081 -0.2711  1.1374  0.1247
11779TIP3   OH256751   5.001   1.712  11.057  0.5162 -0.2710 -0.1585
11779TIP3    H156752   4.989   1.627  11.015 -0.4820  0.0130 -0.4731
11779TIP3    H256753   5.040   1.767  10.989 -0.2634 -0.0608 -0.4449
11780TIP3   OH256754   1.270   3.894  14.196  0.2039  0.0264  0.2536
11780TIP3    H156755   1.182   3.929  14.210  0.6489  1.2529  0.1447
11780TIP3    H256756   1.304   3.943  14.120  0.8423 -0.6888  0.0611
11781TIP3   OH256757   3.989   5.150  16.429  0.1707  0.2395  0.0858
11781TIP3    H156758   3.930   5.088  16.385  0.5128  1.3356 -2.0450
11781TIP3    H256759   4.076   5.128  16.395  0.5437  0.7481  0.6913
11782TIP3   OH256760   2.496   5.822   4.359 -0.0977 -0.1865  0.0417
11782TIP3    H156761   2.457   5.735   4.370 -1.1328  0.2411 -0.1387
11782TIP3    H256762   2.422   5.879   4.338  0.2933  1.0766  1.8554
11783TIP3   OH256763   4.648   5.953  11.114 -0.1010  0.6977 -0.5137
11783TIP3    H156764   4.664   6.027  11.173 -0.5994 -0.1570  0.7335
11783TIP3    H256765   4.703   5.882  11.149 -1.4186 -0.2275 -0.2357
11784TIP3   OH256766   6.146   5.785   5.059  0.7301  0.1970 -0.0258
11784TIP3    H156767   6.204   5.736   5.118  1.3948  0.6876 -0.2588
11784TIP3    H256768   6.192   5.867   5.043 -1.2204  1.7919  1.9134
11785TIP3   OH256769   3.193   4.431   4.866  0.5376 -0.2706 -0.7031
11785TIP3    H156770   3.153   4.449   4.951  0.1643  1.4048 -1.1943
11785TIP3    H256771   3.287   4.432   4.884  0.4610 -2.2474  0.0826
11786TIP3   OH256772   2.210   3.297   6.251 -0.1636 -0.2175  0.4788
11786TIP3    H156773   2.238   3.377   6.296  0.7002 -1.5292  2.3900
11786TIP3    H256774   2.288   3.267   6.204  0.3107 -1.2966  1.8946
11787TIP3   OH256775   2.308   2.624   1.908  0.1445 -0.3483 -0.0335
11787TIP3    H156776   2.248   2.626   1.983 -0.3156 -1.3826 -0.3469
11787TIP3    H256777   2.393   2.647   1.945 -0.6308  2.6017  0.1622
11788TIP3   OH256778   4.827   6.529  15.409  0.6368 -0.2706  0.0802
11788TIP3    H156779   4.778   6.600  15.367 -0.0409 -1.9414 -2.1043
11788TIP3    H256780   4.814   6.544  15.503 -1.6787  0.9966 -0.3661
11789TIP3   OH256781   2.968   5.300  11.941  0.2795  0.2187  0.1761
11789TIP3    H156782   3.050   5.298  11.892  0.4370  0.4890  0.4196
11789TIP3    H256783   2.976   5.378  11.997  0.2550 -0.2759  0.8799
11790TIP3   OH256784   1.723   3.654  15.477  0.8415  0.3993  0.2567
11790TIP3    H156785   1.664   3.601  15.532 -0.3660  1.8370  0.3954
11790TIP3    H256786   1.788   3.688  15.538  0.7670  0.2603  0.4156
11791TIP3   OH256787   3.858   6.712  15.907 -0.2235  0.1559  0.5766
11791TIP3    H156788   3.775   6.759  15.896 -0.8015 -0.5057  1.8258
11791TIP3    H256789   3.844   6.629  15.862  0.1693  0.4682 -0.1390
11792TIP3   OH256790   4.186   1.020  17.069 -0.1996 -0.0233  0.0434
11792TIP3    H156791   4.194   0.978  17.154  0.3133 -2.7638 -1.2191
11792TIP3    H256792   4.242   0.967  17.011 -2.6170  0.0069 -2.5500
11793TIP3   OH256793   1.116   5.862  15.438 -0.0253 -0.3006 -0.1152
11793TIP3    H156794   1.202   5.837  15.405 -0.6080 -1.7709 -0.6114
11793TIP3    H256795   1.103   5.951  15.406  0.6104 -0.6832 -1.5148
11794TIP3   OH256796   0.421   0.984   2.841  0.0819 -0.0519  0.0263
11794TIP3    H156797   0.515   0.970   2.851  0.0683 -0.1188  0.0612
11794TIP3    H256798   0.381   0.914   2.894 -0.0048 -0.9353 -1.1764
11795TIP3   OH256799   2.174   2.818   0.310  0.2913 -0.0739  0.3016
11795TIP3    H156800   2.264   2.793   0.287 -0.2551 -2.3878  0.4312
11795TIP3    H256801   2.136   2.739   0.349 -1.7960  0.8481  0.2889
11796TIP3   OH256802   5.294   3.856   4.934  0.0998  0.2995 -0.5344
11796TIP3    H156803   5.286   3.824   4.844 -1.6150  0.2655 -0.3924
11796TIP3    H256804   5.206   3.884   4.958  0.6603  0.9011  0.9255
11797TIP3   OH256805   2.305   6.007   4.184 -0.2105  0.2724  0.0193
11797TIP3    H156806   2.325   6.007   4.091 -0.4582 -1.8389 -0.0923
11797TIP3    H256807   2.214   5.977   4.190  0.2820 -1.1653  0.9643
11798TIP3   OH256808   5.283   1.219   4.730 -0.1751 -0.2646 -0.2221
11798TIP3    H156809   5.341   1.260   4.665  1.7474 -0.7512  1.1265
11798TIP3    H256810   5.341   1.176   4.791 -1.9655 -0.3709  1.5052
11799TIP3   OH256811   0.305   0.493  11.838  0.0883 -0.2952  0.4865
11799TIP3    H156812   0.276   0.410  11.801  0.9508 -0.4013  0.0300
11799TIP3    H256813   0.391   0.473  11.876  1.1375  0.7902 -1.2227
11800TIP3   OH256814   5.606   3.139   0.093  0.1611  0.4120  0.7296
11800TIP3    H156815   5.574   3.061   0.139 -1.5053  0.8449  0.3899
11800TIP3    H256816   5.604   3.114   0.001  0.0332  0.7027  0.6518
11801TIP3   OH256817   4.617   0.126   6.790 -0.0245  0.0882  0.1555
11801TIP3    H156818   4.582   0.214   6.806 -3.0999 -1.4539  3.3399
11801TIP3    H256819   4.549   0.082   6.739 -0.1758 -1.3571  1.5191
11802TIP3   OH256820   3.848   6.201   1.523  0.4356  0.6022 -0.6595
11802TIP3    H156821   3.880   6.291   1.518 -1.5466  1.5477  1.6756
11802TIP3    H256822   3.913   6.155   1.577 -1.0683  2.1076  2.7203
11803TIP3   OH256823   3.649   3.355  16.841  0.4382  0.2007 -0.0663
11803TIP3    H156824   3.658   3.438  16.887 -1.3260  0.6229 -0.4237
11803TIP3    H256825   3.657   3.288  16.909  0.2014  0.7277  0.4836
11804TIP3   OH256826   3.361   5.211   2.881 -0.4546  0.2089  0.4339
11804TIP3    H156827   3.350   5.210   2.786  0.0717  1.1336  0.3561
11804TIP3    H256828   3.420   5.284   2.897 -0.0006 -0.3572  1.4167
11805TIP3   OH256829   2.977   4.735   3.586  0.1242 -0.2596 -0.0804
11805TIP3    H156830   3.049   4.728   3.524  0.7624 -0.8805  0.7105
11805TIP3    H256831   2.946   4.825   3.578 -0.6962 -0.6877 -2.2498
11806TIP3   OH256832   1.922   5.129  11.330 -0.4723  0.0144  0.1348
11806TIP3    H156833   2.017   5.129  11.341 -0.4681 -1.3694  0.3441
11806TIP3    H256834   1.890   5.085  11.409 -1.0498 -2.2587 -1.2573
11807TIP3   OH256835   3.933   0.323   0.647 -0.3052 -0.1826 -0.2198
11807TIP3    H156836   4.025   0.315   0.621 -0.1682 -1.6554  0.5783
11807TIP3    H256837   3.922   0.414   0.673  1.4893 -0.4406  1.6411
11808TIP3   OH256838   2.889   1.281  15.878  0.8866 -0.0561  0.1129
11808TIP3    H156839   2.943   1.328  15.941  2.4643 -2.0495  0.3413
11808TIP3    H256840   2.950   1.230  15.826 -0.6032 -0.4884 -1.3153
11809TIP3   OH256841   3.516   4.274   0.203  0.1917  0.3593  1.1040
11809TIP3    H156842   3.431   4.235   0.182  0.9999 -0.7563 -0.3217
11809TIP3    H256843   3.500   4.368   0.207 -0.7218  0.3646 -1.3181
11810TIP3   OH256844   0.903   1.429  17.309  0.4727 -0.4623  0.8058
11810TIP3    H156845   0.947   1.374  17.373  1.0306 -0.0284  0.7950
11810TIP3    H256846   0.973   1.463  17.253  0.0594 -0.3271  0.3621
11811TIP3   OH256847   1.076   3.149   5.461 -0.0403 -0.6488 -0.0626
11811TIP3    H156848   1.143   3.118   5.521  0.8256  0.1645 -0.5901
11811TIP3    H256849   1.058   3.073   5.405 -1.2599 -1.5930  1.5205
11812TIP3   OH256850   3.285   0.138  14.552 -0.1729  0.2275  0.5295
11812TIP3    H156851   3.280   0.174  14.463 -1.3142  0.9518  0.8685
11812TIP3    H256852   3.376   0.112  14.562  0.2425  1.2358 -0.4363
11813TIP3   OH256853   1.135   4.955  15.526 -0.0823  0.0258  0.0231
11813TIP3    H156854   1.158   4.999  15.608 -1.8263 -0.8321  1.0268
11813TIP3    H256855   1.169   4.866  15.536  0.6649  0.2178 -0.6756
11814TIP3   OH256856   3.812   2.172   0.491 -0.9336 -0.3425  0.1725
11814TIP3    H156857   3.825   2.244   0.553 -0.1533 -1.2348  1.0736
11814TIP3    H256858   3.726   2.136   0.514 -0.7681 -0.4951  0.5643
11815TIP3   OH256859   1.565   5.202   1.090  0.2592  0.2599  0.3802
11815TIP3    H156860   1.620   5.127   1.068  1.3275  0.3716  2.3783
11815TIP3    H256861   1.476   5.167   1.091  0.6743 -0.8395  0.6394
11816TIP3   OH256862   3.704   4.699  16.098  0.4138  0.3880  0.0576
11816TIP3    H156863   3.631   4.651  16.058  0.8349  0.7000 -1.1258
11816TIP3    H256864   3.733   4.643  16.170  1.3851 -1.5515 -1.7282
11817TIP3   OH256865   1.268   5.661  16.168  0.2793  0.3068  0.2423
11817TIP3    H156866   1.362   5.677  16.178  0.0367  1.4670  0.8739
11817TIP3    H256867   1.251   5.676  16.074  0.9029 -1.0097 -0.0920
11818TIP3   OH256868   5.873   2.872  10.529 -0.6219  0.0821 -0.5766
11818TIP3    H156869   5.848   2.799  10.472  0.7643 -2.5321  1.8717
11818TIP3    H256870   5.959   2.847  10.563 -2.0561  0.4234  3.9948
11819TIP3   OH256871   0.740   4.244  17.075  0.4821  0.6437  0.0153
11819TIP3    H156872   0.721   4.167  17.021  1.1289  0.5741 -0.1183
11819TIP3    H256873   0.833   4.261  17.061  0.2101  1.8568 -0.4756
11820TIP3   OH256874   6.317   3.130  14.539  0.2534  0.0067 -0.2957
11820TIP3    H156875   6.289   3.194  14.474  0.4703 -1.9948 -2.4885
11820TIP3    H256876   6.254   3.059  14.532  1.2959 -1.0381  0.4297
11821TIP3   OH256877   5.066   5.646  17.011  0.2435  0.0784  0.2304
11821TIP3    H156878   4.990   5.593  16.987  0.1918  0.3356 -0.1866
11821TIP3    H256879   5.029   5.731  17.035  0.4475  0.4340 -0.6734
11822TIP3   OH256880   4.139   2.414  16.985  0.1574  0.1650  0.5123
11822TIP3    H156881   4.194   2.489  17.004  1.4443 -0.8321  0.8766
11822TIP3    H256882   4.109   2.384  17.071  0.2152 -0.1358  0.4305
11823TIP3   OH256883   6.010   5.991  12.151 -0.0362 -0.5172  0.0553
11823TIP3    H156884   6.100   5.958  12.153  0.2708  0.2959  2.6216
11823TIP3    H256885   6.018   6.086  12.160 -1.1350 -0.5558  2.1503
11824TIP3   OH256886   2.871   0.859   4.984  0.0674 -0.4812  0.0737
11824TIP3    H156887   2.828   0.857   4.899  1.1749 -2.5112 -0.5147
11824TIP3    H256888   2.867   0.768   5.015  0.2368  0.1014  1.9055
11825TIP3   OH256889   0.449   5.063  13.151  0.7247  0.0254 -0.0071
11825TIP3    H156890   0.467   5.017  13.233 -0.1584 -1.5544 -0.6620
11825TIP3    H256891   0.387   5.007  13.104 -1.0423  2.2556 -0.5338
11826TIP3   OH256892   6.668   4.603  11.985 -0.1291 -0.3455  0.2524
11826TIP3    H156893   6.624   4.610  12.070 -0.3237 -2.4574  0.3861
11826TIP3    H256894   6.644   4.516  11.953 -0.6346  0.6622 -2.3298
11827TIP3   OH256895   2.888   1.941   3.535  0.6319  0.4048 -0.1671
11827TIP3    H156896   2.840   1.981   3.607  1.0032 -1.4436  1.1875
11827TIP3    H256897   2.980   1.946   3.562  0.6638 -1.7444  0.3396
11828TIP3   OH256898   1.338   0.836  14.372 -0.4581  0.0497  0.0545
11828TIP3    H156899   1.281   0.870  14.441 -3.1260 -0.5597 -1.7064
11828TIP3    H256900   1.294   0.860  14.290  2.2118  0.1296 -1.4908
11829TIP3   OH256901   5.758   5.850   4.000 -0.1652  0.0612 -0.7673
11829TIP3    H156902   5.806   5.841   4.082  0.9088 -0.0572 -1.3975
11829TIP3    H256903   5.666   5.855   4.027  0.0782 -1.1065  0.3642
11830TIP3   OH256904   5.577   3.172   0.660 -0.1805 -0.4537 -0.4192
11830TIP3    H156905   5.668   3.199   0.675 -0.4756 -0.2115  1.0674
11830TIP3    H256906   5.532   3.251   0.633  0.0051 -0.5486 -1.0363
11831TIP3   OH256907   3.739   3.152  16.298  0.0809  0.1664 -0.6459
11831TIP3    H156908   3.676   3.219  16.324  0.6034 -0.2026  1.7407
11831TIP3    H256909   3.808   3.201  16.252  0.0353  1.1533  0.2990
11832TIP3   OH256910   0.608   2.068   5.443  0.2012 -0.2732 -0.6136
11832TIP3    H156911   0.551   2.129   5.489 -1.8750 -0.6391 -2.5310
11832TIP3    H256912   0.633   2.114   5.363 -0.3688 -1.4403 -1.4904
11833TIP3   OH256913   0.309   4.468   3.799  0.2900  0.1688  0.4264
11833TIP3    H156914   0.355   4.400   3.750 -0.5174 -0.2294  0.1891
11833TIP3    H256915   0.360   4.479   3.879  0.8959 -0.1184  0.0896
11834TIP3   OH256916   4.316   6.003  15.382 -0.1320  0.7135  0.1136
11834TIP3    H156917   4.371   5.954  15.321 -0.7501  0.1484 -0.0024
11834TIP3    H256918   4.285   6.078  15.332 -1.4186 -0.2583 -0.5941
11835TIP3   OH256919   4.801   3.904  15.425 -0.1410 -0.4276 -0.7490
11835TIP3    H156920   4.789   3.828  15.482 -0.8234  0.3287  0.1375
11835TIP3    H256921   4.732   3.965  15.451 -0.7170 -0.2105 -2.6637
11836TIP3   OH256922   3.239   6.718  17.246  0.1827  0.0329 -0.3627
11836TIP3    H156923   3.238   6.803  17.202  0.5286 -0.8619 -2.2049
11836TIP3    H256924   3.213   6.656  17.179 -2.1922 -1.1343  1.4849
11837TIP3   OH256925   0.070   0.565   2.997  0.2665  0.0759 -0.4676
11837TIP3    H156926   0.111   0.581   3.081  2.6090  0.8650 -1.6644
11837TIP3    H256927   0.103   0.479   2.970 -0.1672 -0.0098 -0.7362
11838TIP3   OH256928   6.547   3.394  16.211 -0.3791  0.3614  0.0703
11838TIP3    H156929   6.541   3.468  16.150 -0.8791 -1.0656 -1.6919
11838TIP3    H256930   6.496   3.422  16.287  0.8975  2.4928  0.2267
11839TIP3   OH256931   5.744   5.797   0.935 -0.2863  0.3961 -0.0357
11839TIP3    H156932   5.739   5.864   1.003  0.8502 -1.8217  2.4382
11839TIP3    H256933   5.689   5.830   0.864 -1.6942  2.8131  2.0229
11840TIP3   OH256934   5.512   0.826  15.527  0.0143 -0.5067 -0.3133
11840TIP3    H156935   5.552   0.859  15.447 -1.6115 -0.3425 -1.0959
11840TIP3    H256936   5.421   0.855  15.522  0.1566  0.6313  2.2278
11841TIP3   OH256937   5.936   0.959  16.598 -0.4210  0.0878 -0.5865
11841TIP3    H156938   5.909   0.867  16.587  0.1791 -0.2892  0.8915
11841TIP3    H256939   5.994   0.975  16.524 -2.2772  0.0055 -2.1398
11842TIP3   OH256940   2.889   2.649   0.578  0.7095 -0.3933  0.4302
11842TIP3    H156941   2.845   2.633   0.495 -0.5998 -0.9614  1.2069
11842TIP3    H256942   2.853   2.731   0.610 -0.5055 -1.3004  1.4898
11843TIP3   OH256943   0.079   1.615   0.187  0.3308 -0.7644 -0.0992
11843TIP3    H156944   0.090   1.710   0.186  0.5461 -0.7758  0.8021
11843TIP3    H256945  -0.012   1.601   0.214  0.1940 -0.8117 -0.5752
11844TIP3   OH256946   1.795   1.324  16.973 -0.9065  0.2201  0.2600
11844TIP3    H156947   1.740   1.388  17.018 -0.2936  1.6873 -0.9595
11844TIP3    H256948   1.813   1.364  16.888 -0.4482 -1.5816 -0.5369
11845TIP3   OH256949   3.978   6.754   1.761 -0.0266 -0.8922  0.0897
11845TIP3    H156950   3.924   6.830   1.780 -0.7514 -1.1908 -0.6990
11845TIP3    H256951   4.040   6.748   1.834 -0.8898 -0.3879  0.8664
11846TIP3   OH256952   5.484   5.576   4.221  0.1054  0.4575 -0.2076
11846TIP3    H156953   5.415   5.543   4.278  0.5688  3.0913  2.0454
11846TIP3    H256954   5.559   5.589   4.279  1.3322  1.2057 -1.8729
11847TIP3   OH256955   4.117   1.803   1.730 -0.0748  0.0431  0.4784
11847TIP3    H156956   4.115   1.898   1.720 -0.6472  0.0496  0.5813
11847TIP3    H256957   4.173   1.772   1.659  0.4453  0.4850  0.6896
11848TIP3   OH256958   3.601   3.983  14.120 -0.6692  0.1715 -0.0743
11848TIP3    H156959   3.552   3.914  14.164 -0.1985 -0.2800 -0.2363
11848TIP3    H256960   3.573   3.978  14.028  1.1589 -1.4750 -0.5992
11849TIP3   OH256961   2.227   5.740  11.411  0.3996  0.4824  0.0052
11849TIP3    H156962   2.134   5.723  11.396  0.2799  0.2793  0.9155
11849TIP3    H256963   2.230   5.785  11.495  1.1326  0.3820  0.0414
11850TIP3   OH256964   2.516   3.898   0.422 -0.1087  0.4373 -0.0645
11850TIP3    H156965   2.518   3.813   0.466  1.3452  0.8353  0.6927
11850TIP3    H256966   2.497   3.877   0.330  1.1821 -0.7957 -0.0782
11851TIP3   OH256967   4.415   4.993   4.928 -1.0934 -0.0219  0.4195
11851TIP3    H156968   4.449   4.993   4.839 -1.5779 -0.7082  0.2282
11851TIP3    H256969   4.348   4.925   4.929 -1.2869  0.1614  1.2367
11852TIP3   OH256970   6.695   1.717  14.487 -0.2017  0.2036 -0.2307
11852TIP3    H156971   6.728   1.698  14.575  0.9603 -0.1761 -0.7305
11852TIP3    H256972   6.668   1.809  14.490  1.5814  0.7464  0.0143
11853TIP3   OH256973   6.308   0.765   1.734 -0.0968  0.1321 -0.5745
11853TIP3    H156974   6.365   0.828   1.777 -1.4523  0.1327  1.3304
11853TIP3    H256975   6.347   0.753   1.647  3.9271 -1.3037  1.1619
11854TIP3   OH256976   5.143   2.997  16.786  0.5138 -0.2130  0.2622
11854TIP3    H156977   5.049   2.985  16.796  0.7337 -1.8848  0.5800
11854TIP3    H256978   5.155   3.023  16.695 -0.1122 -2.1902 -0.4421
11855TIP3   OH256979   3.007   2.691   6.153  0.0812 -0.5789  0.6820
11855TIP3    H156980   3.083   2.749   6.162 -1.5751  1.7269  0.5250
11855TIP3    H256981   2.972   2.710   6.066 -0.4317 -1.9317  0.5782
11856TIP3   OH256982   5.050   2.234  16.213  0.1586  1.0312 -0.8564
11856TIP3    H156983   5.010   2.265  16.295 -0.2923 -0.5719 -0.4349
11856TIP3    H256984   5.007   2.285  16.145 -0.0634  1.8038 -0.1599
11857TIP3   OH256985   4.991   5.902  11.473  0.2991 -0.5348  0.9329
11857TIP3    H156986   5.003   5.817  11.431  1.3725  0.7811 -1.6487
11857TIP3    H256987   5.001   5.965  11.402  0.5563  1.8043  2.9330
11858TIP3   OH256988   3.345   0.824  11.272  0.1542  0.2864 -0.4506
11858TIP3    H156989   3.412   0.785  11.216 -0.0036  0.8142 -1.0232
11858TIP3    H256990   3.262   0.793  11.236 -0.0087  1.7421 -1.4027
11859TIP3   OH256991   5.316   2.887   3.744 -0.0418 -0.1339  0.2033
11859TIP3    H156992   5.295   2.797   3.721  0.5006 -0.2686  0.2272
11859TIP3    H256993   5.400   2.905   3.701 -0.0237  0.2773  0.3981
11860TIP3   OH256994   1.687   6.082   1.364 -0.2591 -0.1192  0.7638
11860TIP3    H156995   1.682   5.988   1.378 -0.7831 -0.1403  0.4542
11860TIP3    H256996   1.597   6.112   1.369 -0.4119 -0.0017 -1.6264
11861TIP3   OH256997   3.762   5.690   2.315 -0.4638  0.0877 -0.2101
11861TIP3    H156998   3.671   5.699   2.343 -0.1544  1.9423  0.3401
11861TIP3    H256999   3.786   5.776   2.281  1.1957 -0.2373  0.0221
11862TIP3   OH257000   0.409   4.406  12.951  0.6722 -0.0496  0.4724
11862TIP3    H157001   0.478   4.471  12.965  0.5562 -0.0127  0.8805
11862TIP3    H257002   0.440   4.354  12.877 -0.5756  2.3166 -1.8707
11863TIP3   OH257003   2.819   1.184   1.623  0.2463 -0.4777  0.3179
11863TIP3    H157004   2.880   1.186   1.549 -1.5299 -1.2103 -1.2446
11863TIP3    H257005   2.758   1.114   1.602 -0.1287 -0.9479  2.6877
11864TIP3   OH257006   0.271   2.572   2.234 -0.1352 -0.9052 -0.3989
11864TIP3    H157007   0.212   2.643   2.204  0.8681  0.3509  0.4959
11864TIP3    H257008   0.339   2.569   2.167  0.5969 -0.0103  0.2803
11865TIP3   OH257009   0.367   6.381  13.078 -0.1102 -0.2124  0.0016
11865TIP3    H157010   0.318   6.461  13.060  0.1304 -0.5482 -2.3964
11865TIP3    H257011   0.302   6.320  13.113 -1.3407 -0.4422 -2.5140
11866TIP3   OH257012   4.789   6.167   5.603 -0.9777 -0.4623  0.9871
11866TIP3    H157013   4.740   6.217   5.539 -0.8628 -0.6964  0.7146
11866TIP3    H257014   4.734   6.092   5.624 -1.1572 -0.2201  1.4075
11867TIP3   OH257015   0.902   0.992   0.101 -0.2331  0.3373 -0.3305
11867TIP3    H157016   0.909   1.083   0.074 -0.7543 -0.1614 -2.2618
11867TIP3    H257017   0.992   0.961   0.106 -0.1080  0.4928 -1.3985
11868TIP3   OH257018   0.858   2.527  11.926  0.3647  0.7534 -0.1883
11868TIP3    H157019   0.888   2.491  11.842  0.8846 -0.9566  0.6884
11868TIP3    H257020   0.775   2.569  11.905  0.2100 -0.1229 -1.4713
11869TIP3   OH257021   0.261   3.924   2.179  0.7136  0.0345 -0.0526
11869TIP3    H157022   0.341   3.942   2.228  0.4460  0.9313  0.0740
11869TIP3    H257023   0.210   3.867   2.236 -0.0032  1.8010  1.1641
11870TIP3   OH257024   3.134   4.578  15.072  0.3041  0.3879 -0.0680
11870TIP3    H157025   3.054   4.525  15.073  1.8813 -2.1869  0.8462
11870TIP3    H257026   3.175   4.556  14.988  0.2395  1.4387 -0.3830
11871TIP3   OH257027   2.298   6.531   5.554  0.0594 -0.6869 -0.6171
11871TIP3    H157028   2.285   6.438   5.531  0.0834 -0.5815 -1.0707
11871TIP3    H257029   2.277   6.578   5.473 -1.5394 -0.1831  0.0627
11872TIP3   OH257030   4.706   4.200  13.743 -0.0837  0.0944 -0.6396
11872TIP3    H157031   4.678   4.129  13.687 -0.9755  0.4980 -0.7268
11872TIP3    H257032   4.637   4.207  13.810  0.1637  0.6462 -0.4324
11873TIP3   OH257033   4.320   2.873   6.065  0.3415  0.3581  0.0811
11873TIP3    H157034   4.263   2.821   6.122  1.9605  0.9280  2.3968
11873TIP3    H257035   4.397   2.819   6.052  0.5129  0.7416 -0.5454
11874TIP3   OH257036   6.523   4.601   1.172  0.2126 -0.6124 -0.9907
11874TIP3    H157037   6.613   4.594   1.204 -0.3159 -1.2656  0.4085
11874TIP3    H257038   6.489   4.512   1.174 -1.2510 -0.0657  0.9066
11875TIP3   OH257039   5.623   6.355  12.390 -0.6227  0.5486  0.6112
11875TIP3    H157040   5.551   6.419  12.393 -0.8994  0.2742 -0.0948
11875TIP3    H257041   5.585   6.275  12.426  0.1005  1.1059  2.7780
11876TIP3   OH257042   1.555   1.975   0.286 -0.4218 -0.4337 -0.7321
11876TIP3    H157043   1.649   1.983   0.304 -0.6480  1.7055 -0.1609
11876TIP3    H257044   1.513   2.017   0.361 -1.8322 -0.9211 -1.2163
11877TIP3   OH257045   5.343   3.577   3.538 -0.4407 -0.3573  0.1899
11877TIP3    H157046   5.411   3.520   3.573  0.4794  0.6392  0.0772
11877TIP3    H257047   5.262   3.527   3.548  0.0573 -0.8886  1.8971
11878TIP3   OH257048   1.120   0.391  15.791  0.9656  0.0865 -0.1049
11878TIP3    H157049   1.087   0.474  15.758 -0.5069 -0.6732 -0.5992
11878TIP3    H257050   1.141   0.340  15.712 -3.2822 -2.0341 -0.1342
11879TIP3   OH257051   0.982   0.116  14.474  0.1482 -0.0859 -0.8475
11879TIP3    H157052   1.000   0.186  14.538 -1.2538  1.0397 -1.6095
11879TIP3    H257053   0.888   0.101  14.482 -0.2607  0.7869 -3.2922
11880TIP3   OH257054   6.136   2.583   6.287  0.7985  0.2667 -0.5513
11880TIP3    H157055   6.049   2.549   6.268  0.9019  0.1178 -0.7650
11880TIP3    H257056   6.122   2.672   6.319  0.3348 -0.6443  2.0843
11881TIP3   OH257057   5.084   5.831   4.258  0.0923  0.2221  0.0390
11881TIP3    H157058   5.150   5.872   4.202  0.8597  0.1353  0.8606
11881TIP3    H257059   5.002   5.839   4.209  0.6647  0.5654 -0.8797
11882TIP3   OH257060   0.890   2.735  15.033 -0.7784 -0.2665 -0.1907
11882TIP3    H157061   0.811   2.714  14.982 -1.8741 -0.3282  1.4241
11882TIP3    H257062   0.914   2.823  15.006  0.7270 -1.4493 -3.2260
11883TIP3   OH257063   1.141   0.263   3.131 -0.0736 -0.2874  0.1449
11883TIP3    H157064   1.212   0.222   3.180 -0.1551 -1.9408 -1.0142
11883TIP3    H257065   1.116   0.339   3.183  2.7338  0.5307  0.4429
11884TIP3   OH257066   4.031   5.724   5.176  0.1978 -0.2476  0.2701
11884TIP3    H157067   4.038   5.718   5.081  1.0951 -0.7280  0.3570
11884TIP3    H257068   3.973   5.652   5.201  1.9885 -1.7244  0.3013
11885TIP3   OH257069   1.695   1.512   3.557  0.4668  0.2759  0.3153
11885TIP3    H157070   1.644   1.503   3.637  0.8883 -0.4441  0.5174
11885TIP3    H257071   1.706   1.422   3.526 -0.2255  0.5895 -0.8947
11886TIP3   OH257072   4.776   0.412   5.708 -0.5082 -0.4286  0.2433
11886TIP3    H157073   4.727   0.487   5.741  0.7970  0.1632  0.9034
11886TIP3    H257074   4.801   0.437   5.619 -0.9772 -0.5388  0.0759
11887TIP3   OH257075   1.082   0.650  13.287 -0.1625 -0.3703 -0.3141
11887TIP3    H157076   1.106   0.708  13.359 -2.2291  1.1838 -0.7582
11887TIP3    H257077   1.165   0.623  13.249  0.9224  0.6747  1.1744
11888TIP3   OH257078   0.384   0.363   4.421  0.6444 -0.3000 -0.2674
11888TIP3    H157079   0.328   0.417   4.477  1.5621  2.5444 -1.8675
11888TIP3    H257080   0.398   0.283   4.470 -0.6759  0.9965  2.4007
11889TIP3   OH257081   5.732   4.115   1.171  0.0122  0.6334  0.0363
11889TIP3    H157082   5.760   4.190   1.118 -1.3187  0.7666 -0.5349
11889TIP3    H257083   5.799   4.049   1.156  0.0344  0.9200 -1.2899
11890TIP3   OH257084   2.339   3.433   0.962  0.2020 -0.0212 -0.0501
11890TIP3    H157085   2.284   3.360   0.990  1.6965 -1.0474  0.3191
11890TIP3    H257086   2.381   3.463   1.043  1.0440 -0.0020 -0.4839
11891TIP3   OH257087   6.174   6.231  14.116  0.1550 -0.4111  0.5779
11891TIP3    H157088   6.187   6.325  14.123  1.2834 -0.5866  1.0023
11891TIP3    H257089   6.121   6.208  14.192  0.7328 -0.2638  1.0273
11892TIP3   OH257090   5.722   5.794   2.556 -0.1870  0.0585 -0.0513
11892TIP3    H157091   5.768   5.876   2.539 -0.8468  0.4712  0.0822
11892TIP3    H257092   5.632   5.812   2.528 -0.1134 -0.9581 -0.9792
11893TIP3   OH257093   6.581   1.711  13.783  0.3751  0.2185  0.0672
11893TIP3    H157094   6.650   1.764  13.742  1.0402 -0.1213  0.7099
11893TIP3    H257095   6.613   1.621  13.776 -0.8774 -0.1508 -1.2613
11894TIP3   OH257096   4.668   1.800   6.163 -0.1170  0.0040  0.0096
11894TIP3    H157097   4.621   1.808   6.080  0.3194  2.1818 -0.0897
11894TIP3    H257098   4.607   1.753   6.220 -2.0593  1.8520 -0.4254
11895TIP3   OH257099   6.381   1.282  16.978 -0.0684  0.3039  0.0960
11895TIP3    H157100   6.374   1.217  17.048  1.7991 -0.5333 -0.4375
11895TIP3    H257101   6.342   1.361  17.016  1.5348  0.1058  2.4005
11896TIP3   OH257102   3.571   0.410  16.276  0.4054  0.5072  0.9233
11896TIP3    H157103   3.479   0.384  16.277  0.1236  1.4481  1.9509
11896TIP3    H257104   3.574   0.488  16.331  1.3875  1.9897 -1.0772
11897TIP3   OH257105   3.131   5.846   3.773  0.3404  0.1270 -0.3488
11897TIP3    H157106   3.214   5.830   3.729 -0.3934  0.1704 -1.8395
11897TIP3    H257107   3.152   5.909   3.842  1.8126 -1.1162  0.3866
11898TIP3   OH257108   0.135   3.646  12.285  0.1448 -0.3680 -0.1722
11898TIP3    H157109   0.055   3.698  12.295  0.8963  0.9908 -1.0219
11898TIP3    H257110   0.136   3.590  12.363 -0.8266  0.6924  0.6442
11899TIP3   OH257111   3.862   4.177  16.206 -0.0511  0.3225  0.5724
11899TIP3    H157112   3.906   4.223  16.277  1.2230 -0.3650  0.2566
11899TIP3    H257113   3.933   4.133  16.159 -1.1235 -1.1557  0.2872
11900TIP3   OH257114   3.514   2.378   1.642 -0.0322  0.2793 -0.4348
11900TIP3    H157115   3.428   2.338   1.632 -0.7427  0.3426  3.5401
11900TIP3    H257116   3.498   2.455   1.697  2.5797 -0.0090  0.8946
11901TIP3   OH257117   3.165   2.994  12.800 -0.0384  0.0511 -0.5335
11901TIP3    H157118   3.248   2.978  12.756  0.7220  0.5997  0.6700
11901TIP3    H257119   3.126   3.068  12.753  0.1750 -0.1602 -1.0506
11902TIP3   OH257120   5.564   2.203   5.726  0.2710  0.3142  0.1248
11902TIP3    H157121   5.569   2.174   5.817  1.3394 -0.3906 -0.1299
11902TIP3    H257122   5.545   2.123   5.677  0.2171  0.5965 -0.3221
11903TIP3   OH257123   3.611   3.759  11.741 -0.3059  0.1351 -0.2162
11903TIP3    H157124   3.695   3.715  11.750 -0.2411  0.1389 -0.8116
11903TIP3    H257125   3.553   3.713  11.803 -0.1519 -0.5712 -0.5865
11904TIP3   OH257126   4.888   2.901  16.791 -0.5790 -0.0715  0.5540
11904TIP3    H157127   4.806   2.901  16.740 -1.1689  0.6063  1.4797
11904TIP3    H257128   4.861   2.920  16.880  0.9013  3.9450  0.3342
11905TIP3   OH257129   0.255   3.841  12.566 -0.0955  0.4977 -0.0139
11905TIP3    H157130   0.286   3.753  12.587  2.1337  1.1373 -0.3584
11905TIP3    H257131   0.273   3.851  12.472 -2.2949  0.6238 -0.4959
11906TIP3   OH257132   4.581   0.551  11.803 -0.1771  0.2973 -0.0031
11906TIP3    H157133   4.569   0.610  11.877 -2.0698  0.0182 -0.0209
11906TIP3    H257134   4.666   0.510  11.817  0.3038  1.6138  1.0178
11907TIP3   OH257135   6.073   0.786  12.641 -0.3763 -0.7352 -0.2455
11907TIP3    H157136   6.028   0.870  12.639  0.0010 -0.5063  0.5581
11907TIP3    H257137   6.108   0.775  12.553 -1.5322 -0.6678 -0.7358
11908TIP3   OH257138   2.109   3.585  12.853 -0.2570 -0.2333  0.1564
11908TIP3    H157139   2.089   3.508  12.906 -1.0114  1.2211  2.0798
11908TIP3    H257140   2.190   3.620  12.889 -1.4417  1.5053  1.3169
11909TIP3   OH257141   1.058   6.397  14.779  0.7869 -0.0662  0.3861
11909TIP3    H157142   1.072   6.492  14.779  1.0267 -0.0728 -1.0405
11909TIP3    H257143   1.146   6.361  14.792  0.9234 -0.0771 -0.4749
11910TIP3   OH257144   5.538   5.371  14.966  0.3347  0.3272  0.9566
11910TIP3    H157145   5.526   5.403  14.876  1.2170  1.4419  1.2016
11910TIP3    H257146   5.607   5.305  14.958 -0.0096 -0.0109  0.7380
11911TIP3   OH257147   6.030   1.246  11.332 -0.3483 -0.2363 -0.0334
11911TIP3    H157148   6.055   1.169  11.281  2.4260  0.8658 -0.5089
11911TIP3    H257149   6.083   1.240  11.412 -0.3439  1.0082  0.0709
11912TIP3   OH257150   3.874   0.684   4.886  0.3533  0.6984  0.0956
11912TIP3    H157151   3.944   0.696   4.951  1.0402  2.9969 -0.9669
11912TIP3    H257152   3.899   0.741   4.814 -0.4059 -1.7326 -2.2421
11913TIP3   OH257153   0.178   4.945   3.087  0.6235  0.0557 -0.1334
11913TIP3    H157154   0.157   4.890   3.011  0.5394 -0.6035  0.3607
11913TIP3    H257155   0.108   5.010   3.090  0.5467 -0.0069 -0.5348
11914TIP3   OH257156   5.173   2.274  14.111  0.5385 -0.2804  0.2655
11914TIP3    H157157   5.149   2.235  14.027  1.2928 -1.8298  0.7133
11914TIP3    H257158   5.228   2.207  14.153  1.0673  0.8976  1.5324
11915TIP3   OH257159   5.601   2.187  11.647 -0.6883 -0.3563  0.5597
11915TIP3    H157160   5.613   2.232  11.731  1.2805 -1.3293  0.8529
11915TIP3    H257161   5.649   2.241  11.584 -0.2850 -0.7989  0.4818
11916TIP3   OH257162   5.988   3.468  16.069 -0.1169  0.4030 -0.1841
11916TIP3    H157163   5.987   3.401  16.001 -1.9979 -0.4844  0.6593
11916TIP3    H257164   6.020   3.547  16.024 -0.0007 -0.4850 -1.7381
11917TIP3   OH257165   1.842   6.294  12.597 -0.0052 -0.1459 -0.5602
11917TIP3    H157166   1.829   6.288  12.692  2.2005 -1.2469 -0.2453
11917TIP3    H257167   1.800   6.216  12.562  1.0556 -0.9233 -0.1787
11918TIP3   OH257168   5.729   6.516   4.804  0.2345 -0.4160 -0.1343
11918TIP3    H157169   5.745   6.511   4.898 -1.9174  0.1169  0.3320
11918TIP3    H257170   5.703   6.427   4.779 -1.1434 -0.1539  0.2436
11919TIP3   OH257171   2.416   4.894   2.577  0.0899 -0.1911  0.1103
11919TIP3    H157172   2.344   4.956   2.589  0.3425  0.2927 -0.8652
11919TIP3    H257173   2.431   4.859   2.665 -0.1687  0.9928  0.6421
11920TIP3   OH257174   2.761   6.314   3.572  0.4962  0.4227 -0.6441
11920TIP3    H157175   2.698   6.378   3.539 -0.0285  0.0397 -0.4089
11920TIP3    H257176   2.760   6.327   3.667 -0.8333 -0.9994 -0.4193
11921TIP3   OH257177   4.697   5.466  14.460 -0.3384  0.3897  0.0228
11921TIP3    H157178   4.671   5.544  14.509  0.8258  1.4540 -0.9943
11921TIP3    H257179   4.615   5.419  14.445 -0.9255  0.8712  1.5427
11922TIP3   OH257180   2.889   2.175   4.628 -0.4454  0.1720 -0.1903
11922TIP3    H157181   2.980   2.200   4.643 -1.0689  2.2107  0.5544
11922TIP3    H257182   2.890   2.129   4.544  0.8479  3.1016 -1.9565
11923TIP3   OH257183   2.607   6.516  15.615  0.0502  0.1880 -0.5430
11923TIP3    H157184   2.625   6.595  15.666 -0.9853 -0.3006  0.6319
11923TIP3    H257185   2.575   6.453  15.679  1.6227 -1.4844 -1.3153
11924TIP3   OH257186   3.929   2.895   0.326  0.3628  0.0467 -0.4625
11924TIP3    H157187   4.022   2.890   0.305  0.3324 -0.5882 -0.4710
11924TIP3    H257188   3.925   2.951   0.403  1.2030 -3.0392  2.0565
11925TIP3   OH257189   2.275   2.803  17.240  0.3193  0.0711  0.2053
11925TIP3    H157190   2.344   2.831  17.180  1.6393 -1.5802  0.8725
11925TIP3    H257191   2.307   2.721  17.277 -0.5784  0.8580  2.9542
11926TIP3   OH257192   3.727   5.938  15.158  0.3818 -0.1606  0.2655
11926TIP3    H157193   3.713   5.999  15.086 -0.9598  0.4508  1.0038
11926TIP3    H257194   3.818   5.911  15.149  0.6611  1.0172 -0.7905
11927TIP3   OH257195   6.286   3.380   6.085  0.5468  0.4956 -0.0140
11927TIP3    H157196   6.329   3.307   6.129 -0.7773  0.6079  1.5959
11927TIP3    H257197   6.238   3.425   6.155 -2.1684  0.3675 -1.6379
11928TIP3   OH257198   2.308   2.925   5.788  0.2101  0.0781 -0.2441
11928TIP3    H157199   2.216   2.898   5.782  0.2126 -0.5860  1.7775
11928TIP3    H257200   2.304   3.017   5.814  0.0724 -0.1243  0.4941
11929TIP3   OH257201   6.711   1.504  12.289  0.1101 -0.1745 -0.2291
11929TIP3    H157202   6.618   1.482  12.293  0.1949 -0.4326  0.4246
11929TIP3    H257203   6.744   1.455  12.213 -0.3190  0.0533 -0.5678
11930TIP3   OH257204   3.732   0.523   0.931  0.3480  0.1722  0.1426
11930TIP3    H157205   3.637   0.533   0.939  0.4122  0.4569  0.5415
11930TIP3    H257206   3.768   0.601   0.971  0.7572  0.0398  0.0371
11931TIP3   OH257207   0.543   6.670   1.238 -0.1777  0.1839 -0.0412
11931TIP3    H157208   0.554   6.575   1.246  0.2293  0.2539  0.2296
11931TIP3    H257209   0.563   6.704   1.325  0.0501  0.5573 -0.2386
11932TIP3   OH257210   0.734   2.581   4.297 -0.2160  0.2505 -0.7153
11932TIP3    H157211   0.744   2.644   4.368 -1.8248  0.7401 -0.8856
11932TIP3    H257212   0.662   2.525   4.324  0.2727 -0.6492 -1.2127
11933TIP3   OH257213   5.126   3.185  16.081  0.0284 -0.3506 -0.5085
11933TIP3    H157214   5.199   3.144  16.129  0.3835  0.0574 -0.6901
11933TIP3    H257215   5.122   3.274  16.115  0.3955 -0.0030 -1.3501
11934TIP3   OH257216   2.094   1.272   5.553  0.1919 -0.3590  0.0379
11934TIP3    H157217   2.123   1.363   5.550 -0.5603 -0.1110 -0.0875
11934TIP3    H257218   2.004   1.277   5.586  0.1585 -1.0610  0.0710
11935TIP3   OH257219   2.656   6.747  11.041 -0.3622 -0.8018  0.2951
11935TIP3    H157220   2.598   6.742  10.964 -1.9397 -0.1641  1.3892
11935TIP3    H257221   2.596   6.743  11.116  0.9869  0.3005  1.4825
11936TIP3   OH257222   1.341   3.043   4.881  0.8459 -0.1811 -0.6677
11936TIP3    H157223   1.381   2.964   4.917 -0.1801 -0.3677  0.1296
11936TIP3    H257224   1.270   3.063   4.942 -1.4553 -0.9066 -2.9457
11937TIP3   OH257225   3.454   1.161   3.571 -0.2904  0.2254 -0.9623
11937TIP3    H157226   3.485   1.243   3.611  1.2929 -1.8029  2.4112
11937TIP3    H257227   3.361   1.157   3.595 -0.3357  0.9103 -0.9874
11938TIP3   OH257228   0.276   2.906  11.862  0.2546 -0.2784  0.3545
11938TIP3    H157229   0.211   2.853  11.814  0.8718 -2.6822  2.0013
11938TIP3    H257230   0.238   2.994  11.863 -0.3698 -0.3025 -3.3993
11939TIP3   OH257231   3.317   2.557   5.328  0.7048 -0.5472 -0.6144
11939TIP3    H157232   3.247   2.596   5.276  1.6034  0.0603 -1.4096
11939TIP3    H257233   3.318   2.608   5.410  2.0561  1.4014 -1.7506
11940TIP3   OH257234   1.393   3.657  16.959 -0.5283  0.1679 -0.1702
11940TIP3    H157235   1.331   3.599  16.915 -0.4543  0.1136 -0.2013
11940TIP3    H257236   1.349   3.742  16.961 -0.1075  0.4376 -1.3110
11941TIP3   OH257237   1.211   3.255  15.246 -0.6016 -0.1446  0.5078
11941TIP3    H157238   1.153   3.180  15.252 -0.8950  0.0235 -0.0840
11941TIP3    H257239   1.281   3.227  15.187 -0.0041 -0.3874  1.3124
11942TIP3   OH257240   3.298   4.973   1.635 -0.4590 -0.1073 -0.1498
11942TIP3    H157241   3.287   4.987   1.541 -0.3479 -2.2868 -0.5406
11942TIP3    H257242   3.373   4.915   1.642  0.2362  0.9084  1.3961
11943TIP3   OH257243   1.002   4.054  16.706  0.0455 -0.2792  0.0607
11943TIP3    H157244   0.938   3.997  16.750 -1.1794  1.1692  0.2476
11943TIP3    H257245   0.954   4.089  16.631  1.8582 -2.1136 -2.1014
11944TIP3   OH257246   5.517   3.770   3.048 -0.0773  0.4569  0.1167
11944TIP3    H157247   5.469   3.717   2.984  0.3730  0.0623  0.0932
11944TIP3    H257248   5.479   3.746   3.132 -0.0252  0.2590  0.0849
11945TIP3   OH257249   1.767   2.098   0.927  0.5140 -0.0496  0.3839
11945TIP3    H157250   1.804   2.181   0.956 -0.7509  0.1290  1.5925
11945TIP3    H257251   1.837   2.057   0.877  0.8909  2.0923 -0.9619
11946TIP3   OH257252   0.874   5.266  11.967 -0.5711 -0.1430  0.0294
11946TIP3    H157253   0.864   5.285  11.874  0.9424 -1.1387 -0.3760
11946TIP3    H257254   0.968   5.275  11.983 -0.9323  1.1118  1.7340
11947TIP3   OH257255   5.486   6.663   2.162 -0.5405  0.5364  0.5109
11947TIP3    H157256   5.493   6.578   2.118  1.0771 -0.5916  2.7422
11947TIP3    H257257   5.400   6.661   2.203 -1.7454  1.2811 -1.8213
11948TIP3   OH257258   5.394   3.807   1.387 -0.1938  0.1579  0.1580
11948TIP3    H157259   5.467   3.827   1.328 -0.5862 -0.4776 -0.5644
11948TIP3    H257260   5.376   3.890   1.431  0.7678  0.3958  0.1270
11949TIP3   OH257261   2.738   0.697  11.964 -0.0298  0.0793  0.5440
11949TIP3    H157262   2.755   0.791  11.962 -0.2985  0.1396  1.0363
11949TIP3    H257263   2.689   0.683  12.045  0.0528 -0.4915  0.4994
11950TIP3   OH257264   1.471   2.106  12.553 -0.4377  0.0331 -0.6825
11950TIP3    H157265   1.489   2.014  12.573 -0.0788  0.1271 -0.5558
11950TIP3    H257266   1.539   2.129  12.489  0.4330  0.6380  0.4315
11951TIP3   OH257267   3.953   0.923  11.742 -0.8295  0.3121 -0.1848
11951TIP3    H157268   3.908   0.988  11.796 -0.9402  0.4264 -0.4130
11951TIP3    H257269   4.046   0.937  11.760 -0.8863  0.0518  0.3135
11952TIP3   OH257270   1.335   0.678   2.498 -0.0381  0.0701  0.2505
11952TIP3    H157271   1.299   0.660   2.585 -0.5434 -0.9550 -0.1489
11952TIP3    H257272   1.275   0.742   2.460 -1.1285 -1.1530 -0.1691
11953TIP3   OH257273   2.558   0.446   5.689  0.1346  0.3872  0.2128
11953TIP3    H157274   2.633   0.393   5.716  0.4468  0.9625  0.4895
11953TIP3    H257275   2.511   0.465   5.770  0.0214  0.5364  0.1130
11954TIP3   OH257276   5.716   4.067   4.639 -0.4548 -0.3248  0.0875
11954TIP3    H157277   5.782   3.999   4.653 -1.8556 -1.4174  1.7629
11954TIP3    H257278   5.748   4.143   4.688  0.3192 -0.2987 -0.4410
11955TIP3   OH257279   1.261   0.637  13.855 -0.2424  0.1327  0.0036
11955TIP3    H157280   1.214   0.618  13.936  2.8625 -0.7018  1.8102
11955TIP3    H257281   1.288   0.728  13.863 -2.8729  1.2016 -1.8811
11956TIP3   OH257282   3.211   5.870   5.774 -0.3383 -0.0937  0.8203
11956TIP3    H157283   3.223   5.913   5.859  1.4454 -0.7738  0.9538
11956TIP3    H257284   3.213   5.777   5.794  1.9531 -0.3159 -0.1133
11957TIP3   OH257285   3.806   5.319  12.872  0.2167  0.1229  0.2334
11957TIP3    H157286   3.863   5.274  12.934 -0.3645  0.0108  0.6881
11957TIP3    H257287   3.856   5.319  12.790  0.9366  0.1634  0.6579
11958TIP3   OH257288   3.565   1.416  13.415 -0.3477 -0.9544 -0.1326
11958TIP3    H157289   3.631   1.356  13.451 -0.3099 -0.6784  0.2616
11958TIP3    H257290   3.509   1.437  13.490 -0.2317 -0.3223 -0.2234
11959TIP3   OH257291   0.447   0.588   3.191  0.3512 -0.4750  0.6338
11959TIP3    H157292   0.485   0.523   3.133 -0.6570 -2.9990  2.5852
11959TIP3    H257293   0.512   0.599   3.261  1.1207  1.7564 -0.3687
11960TIP3   OH257294   6.184   5.958  14.146 -0.4741  0.3234  0.2625
11960TIP3    H157295   6.216   6.048  14.157 -1.1968  0.2953  3.4306
11960TIP3    H257296   6.263   5.906  14.132  0.1434  1.1866  0.4564
11961TIP3   OH257297   3.965   5.087  16.117 -0.6355 -0.5747  0.3368
11961TIP3    H157298   3.902   5.098  16.045 -1.7207  0.7914  1.4301
11961TIP3    H257299   4.003   5.174  16.128  0.0656 -0.9464  0.9345
11962TIP3   OH257300   5.920   3.011   0.768 -0.0990 -0.3273 -0.1814
11962TIP3    H157301   5.868   2.948   0.817  0.7554 -1.5019 -0.7438
11962TIP3    H257302   5.990   2.959   0.729  0.4415  0.9232 -0.9283
11963TIP3   OH257303   6.750   5.963  15.800 -0.2257 -0.2507  0.0626
11963TIP3    H157304   6.658   5.937  15.792  0.4125 -2.4466 -1.0212
11963TIP3    H257305   6.792   5.925  15.723  1.8038 -0.2997  1.1319
11964TIP3   OH257306   6.246   2.130  16.145  0.7170 -0.3437 -0.4893
11964TIP3    H157307   6.191   2.165  16.075  0.8904  2.3728  0.5952
11964TIP3    H257308   6.185   2.104  16.213  0.6276 -0.9497 -0.8031
11965TIP3   OH257309   5.315   2.260  16.308 -0.4959 -0.3637 -0.3228
11965TIP3    H157310   5.225   2.256  16.274 -0.3046  0.2707 -0.9412
11965TIP3    H257311   5.305   2.291  16.398 -0.8376  0.7956 -0.7387
11966TIP3   OH257312   3.049   0.924   0.996 -0.1945 -0.1579  0.0367
11966TIP3    H157313   3.124   0.910   0.937 -0.2764  1.5126 -0.5138
11966TIP3    H257314   3.088   0.938   1.082  0.1318  0.5333 -0.2176
11967TIP3   OH257315   4.443   4.640   1.098  0.6583 -0.0598 -0.5904
11967TIP3    H157316   4.348   4.649   1.090  0.4743  0.2580  1.4980
11967TIP3    H257317   4.469   4.600   1.015 -1.0029  1.6908 -2.0771
11968TIP3   OH257318   4.101   4.323   6.225  0.3476  0.0932 -0.6202
11968TIP3    H157319   4.016   4.293   6.258  0.2880 -0.9544 -1.6696
11968TIP3    H257320   4.135   4.379   6.295 -1.7606  1.5693 -0.6816
11969TIP3   OH257321   3.359   4.396  16.013  0.4601  0.2636 -0.1088
11969TIP3    H157322   3.349   4.346  15.932  0.0548 -0.2745  0.2684
11969TIP3    H257323   3.339   4.334  16.083  0.6650  0.7586  0.4062
11970TIP3   OH257324   6.694   5.241   1.331 -0.5142  0.0048 -0.2506
11970TIP3    H157325   6.742   5.162   1.307  0.3139  0.2476  0.5453
11970TIP3    H257326   6.612   5.209   1.369  0.6166 -0.5668  1.8164
11971TIP3   OH257327   1.748   0.178  16.982 -0.2200  0.3674  0.3100
11971TIP3    H157328   1.788   0.112  17.040  0.1064  1.3658  1.2601
11971TIP3    H257329   1.678   0.216  17.035  0.9438  2.2376  0.5993
11972TIP3   OH257330   5.668   0.297  14.452  0.2782 -0.2634 -0.1952
11972TIP3    H157331   5.645   0.385  14.420  1.3700  0.3170  0.5501
11972TIP3    H257332   5.647   0.239  14.379 -1.9062  0.4067 -0.1613
11973TIP3   OH257333   1.196   3.093   6.092 -0.0347 -0.6452 -0.6693
11973TIP3    H157334   1.145   3.031   6.144  0.5487 -0.9318 -0.4352
11973TIP3    H257335   1.137   3.168   6.080 -0.0571 -0.4078  0.7415
11974TIP3   OH257336   4.365   3.088  13.653  0.0435 -0.5343  0.4841
11974TIP3    H157337   4.297   3.140  13.695  0.9665  1.7433 -0.6506
11974TIP3    H257338   4.425   3.152  13.616  2.2027 -2.4374  0.4269
11975TIP3   OH257339   4.879   4.468   3.232 -0.3667  0.4225 -0.0612
11975TIP3    H157340   4.960   4.518   3.237  0.0192 -0.2763  1.0621
11975TIP3    H257341   4.892   4.409   3.157  1.9004 -2.5086  2.4058
11976TIP3   OH257342   5.065   5.610   3.490  0.8808 -0.4090 -1.0207
11976TIP3    H157343   5.041   5.677   3.425 -0.9294  0.7651  0.7492
11976TIP3    H257344   4.982   5.577   3.522  1.6863 -0.2746  1.3628
11977TIP3   OH257345   3.991   5.732   0.016  0.5130  0.2354 -0.4585
11977TIP3    H157346   4.043   5.775  -0.052  0.5208  0.8270 -0.0858
11977TIP3    H257347   3.934   5.801   0.050 -1.9079 -0.7993 -2.1375
11978TIP3   OH257348   3.815   4.216   3.221 -0.4675 -0.5693  0.5378
11978TIP3    H157349   3.871   4.144   3.253 -1.1597 -1.2364  0.2914
11978TIP3    H257350   3.788   4.187   3.134 -0.5197  0.1379  0.3200
11979TIP3   OH257351   4.879   4.823  12.997 -0.1796 -0.3302  0.4530
11979TIP3    H157352   4.940   4.798  12.928 -0.4862 -0.2136  0.1384
11979TIP3    H257353   4.831   4.897  12.961 -0.8163 -0.7008  0.5231
11980TIP3   OH257354   0.277   6.051   5.252 -0.0788  0.5598 -0.2760
11980TIP3    H157355   0.331   6.036   5.330  0.2112 -1.7001 -0.8594
11980TIP3    H257356   0.196   6.089   5.287 -0.4639 -1.5652  1.3278
11981TIP3   OH257357   1.073   1.569  15.523  0.0502 -0.2181 -0.4898
11981TIP3    H157358   1.076   1.563  15.428  0.3112 -1.2538 -0.4274
11981TIP3    H257359   1.016   1.496  15.550  1.6867 -1.2794  0.2512
11982TIP3   OH257360   2.313   6.389  15.271 -0.1458 -0.0791  0.7122
11982TIP3    H157361   2.392   6.341  15.298  0.7197  0.7540 -0.2647
11982TIP3    H257362   2.327   6.409  15.179 -1.8271 -0.5009  0.3441
11983TIP3   OH257363   2.778   5.501   2.085  0.0971  0.1517 -0.5380
11983TIP3    H157364   2.747   5.581   2.127  0.5385  1.0901 -1.9347
11983TIP3    H257365   2.803   5.443   2.158 -2.5450  0.2838  0.5640
11984TIP3   OH257366   1.702   3.444  14.104 -0.4603  0.1016  0.2184
11984TIP3    H157367   1.736   3.358  14.079 -0.6360 -0.1414  0.7982
11984TIP3    H257368   1.646   3.427  14.180 -0.4723  0.7296  0.3590
11985TIP3   OH257369   0.932   5.903   4.479 -0.9041 -0.4361 -0.3283
11985TIP3    H157370   1.024   5.913   4.458 -0.9521  2.6460  0.3901
11985TIP3    H257371   0.886   5.929   4.399 -1.1149 -0.0470 -0.0864
11986TIP3   OH257372   5.300   5.791   5.705  0.0214 -0.0100 -0.0518
11986TIP3    H157373   5.363   5.765   5.773 -1.3307 -1.9551  0.5622
11986TIP3    H257374   5.274   5.708   5.664 -2.3744  0.6458 -0.0183
11987TIP3   OH257375   4.352   6.582  17.135  0.0320  0.6466 -0.4618
11987TIP3    H157376   4.313   6.619  17.056 -0.3526 -0.2003 -0.6841
11987TIP3    H257377   4.389   6.657  17.181  1.7266  0.9952 -2.2325
11988TIP3   OH257378   4.486   5.373   0.708  0.2331  0.8088 -0.5561
11988TIP3    H157379   4.581   5.367   0.716  0.0732  0.9374  1.9376
11988TIP3    H257380   4.461   5.445   0.766 -1.7343 -1.9979  2.3816
11989TIP3   OH257381   2.724   6.433  13.714 -0.2396  0.0830 -0.2476
11989TIP3    H157382   2.745   6.344  13.740 -1.3700  0.1250  0.8935
11989TIP3    H257383   2.720   6.430  13.618 -2.2188 -1.5744 -0.1745
11990TIP3   OH257384   0.812   0.050   4.120  0.3595  0.2734 -0.0133
11990TIP3    H157385   0.742   0.091   4.171  1.9804  0.0158  2.6089
11990TIP3    H257386   0.885   0.111   4.125  0.8845 -0.2196 -1.2386
11991TIP3   OH257387   0.552   3.662   4.313 -0.1797 -0.8542  0.5390
11991TIP3    H157388   0.473   3.608   4.305 -0.5131 -0.4759  1.2011
11991TIP3    H257389   0.608   3.634   4.240 -1.2270 -0.6117 -0.3861
11992TIP3   OH257390   1.023   1.853  15.655  0.4142 -0.5791 -0.3837
11992TIP3    H157391   1.041   1.784  15.591 -1.8778 -1.0190 -0.6559
11992TIP3    H257392   0.947   1.900  15.619  0.3684  0.4984  1.0141
11993TIP3   OH257393   0.565   4.351  14.582  0.4914 -0.1183  0.2251
11993TIP3    H157394   0.556   4.435  14.537 -1.3546 -0.0151  0.7084
11993TIP3    H257395   0.539   4.369  14.673  0.7311 -1.0674  0.4961
11994TIP3   OH257396   1.029   0.034   0.398  0.9276 -0.1304 -0.1012
11994TIP3    H157397   1.117   0.042   0.363  1.1190 -1.7816 -0.0550
11994TIP3    H257398   1.016   0.115   0.448  2.7222 -0.2281  0.5792
11995TIP3   OH257399   1.062   3.408  13.207 -0.0134 -0.2014 -0.3883
11995TIP3    H157400   0.979   3.417  13.252  0.1032  0.3728 -0.2809
11995TIP3    H257401   1.127   3.444  13.267  0.4244 -1.3311 -0.1524
11996TIP3   OH257402   1.380   4.283   6.679 -0.2904  0.4095  0.2477
11996TIP3    H157403   1.399   4.289   6.772 -0.6794  2.4615  0.2379
11996TIP3    H257404   1.389   4.372   6.647 -1.1476 -0.0868 -1.4971
11997TIP3   OH257405   3.724   4.020  11.828 -0.4382 -0.6085  0.2963
11997TIP3    H157406   3.791   4.066  11.779 -1.0932 -0.7838 -0.8046
11997TIP3    H257407   3.686   3.959  11.765 -3.0626  0.9275  0.2381
11998TIP3   OH257408   6.061   3.190  15.367  0.1560 -0.0429 -0.1627
11998TIP3    H157409   5.974   3.220  15.392  0.0525 -0.0154 -0.5531
11998TIP3    H257410   6.109   3.183  15.450 -0.8860 -2.2068  0.3093
11999TIP3   OH257411   0.263   2.503  12.850  0.5538  0.3690  0.1375
11999TIP3    H157412   0.319   2.502  12.927  0.7080  3.0347  0.1589
11999TIP3    H257413   0.263   2.595  12.822 -2.2080  0.0977 -1.0304
12000TIP3   OH257414   3.283   1.486   2.969 -0.3855 -0.8748  0.1090
12000TIP3    H157415   3.319   1.565   2.928 -2.3484 -0.1621 -0.3266
12000TIP3    H257416   3.354   1.454   3.025  1.3961 -0.3300 -1.7308
12001TIP3   OH257417   1.258   1.005   3.962  0.2068 -0.2643 -0.2832
12001TIP3    H157418   1.252   1.097   3.989  0.2597 -0.0229 -1.0628
12001TIP3    H257419   1.340   0.974   4.001  0.6770  0.2964 -0.7967
12002TIP3   OH257420   5.846   1.520   2.481  0.3354 -0.9162 -0.3224
12002TIP3    H157421   5.764   1.509   2.530 -0.6472  2.6690 -0.9111
12002TIP3    H257422   5.838   1.458   2.408 -0.2071 -3.0844  1.4503
12003TIP3   OH257423   0.086   1.205  15.669 -0.5312  0.0406 -0.4067
12003TIP3    H157424   0.173   1.179  15.699 -0.1859  2.1953  0.7413
12003TIP3    H257425   0.092   1.204  15.574  0.7935  0.2286 -0.3481
12004TIP3   OH257426   6.235   5.277  14.727  0.9009  0.1762 -0.5590
12004TIP3    H157427   6.181   5.248  14.653 -0.5771  0.5811  0.3372
12004TIP3    H257428   6.305   5.327  14.686 -0.7375  1.7067 -1.6496
12005TIP3   OH257429   5.772   0.733  12.704  0.6115 -0.1719  0.2464
12005TIP3    H157430   5.834   0.699  12.640 -0.7854 -0.9888 -0.7236
12005TIP3    H257431   5.713   0.660  12.722 -0.8427  0.9192  0.1459
12006TIP3   OH257432   3.005   1.485   2.778 -0.1697 -0.5347 -0.0852
12006TIP3    H157433   2.966   1.431   2.846  1.6756 -0.9686  0.6804
12006TIP3    H257434   3.081   1.526   2.819 -0.0477  0.6507 -1.3723
12007TIP3   OH257435   1.351   6.621   5.079 -0.1371 -0.6072 -0.1345
12007TIP3    H157436   1.328   6.553   5.142 -0.0359  0.7954  1.4704
12007TIP3    H257437   1.413   6.677   5.125  1.4751 -0.6131 -2.1677
12008TIP3   OH257438   4.798   0.633  16.600 -0.7397 -0.0898  0.2320
12008TIP3    H157439   4.776   0.604  16.511  0.2133 -0.8950  0.2512
12008TIP3    H257440   4.893   0.629  16.604 -0.8106 -0.9585  1.5994
12009TIP3   OH257441   2.431   2.209   0.221 -0.0502  0.0294  0.1815
12009TIP3    H157442   2.347   2.235   0.184 -0.6978 -2.1600 -0.0398
12009TIP3    H257443   2.488   2.196   0.144 -0.3412 -1.0943  0.1396
12010TIP3   OH257444   0.457   4.664  15.811  0.0467 -0.1215  0.0864
12010TIP3    H157445   0.511   4.691  15.885 -0.0240 -1.1050  0.5153
12010TIP3    H257446   0.518   4.618  15.753 -0.2462 -0.9727  0.4290
12011TIP3   OH257447   1.806   4.244  16.360 -0.4947 -0.0028  0.0219
12011TIP3    H157448   1.732   4.205  16.313 -0.4521  1.1224 -1.0338
12011TIP3    H257449   1.882   4.194  16.331 -0.5438  0.3292 -0.6971
12012TIP3   OH257450   1.078   6.007  12.684  0.1812 -0.4483  0.0609
12012TIP3    H157451   1.021   5.975  12.753  1.2975 -1.1502  0.7036
12012TIP3    H257452   1.022   6.015  12.607 -0.7834 -0.9978  0.6921
12013TIP3   OH257453   5.808   4.285   1.608 -0.2392 -0.3337  0.1725
12013TIP3    H157454   5.775   4.362   1.655 -1.7064 -0.9318  0.1803
12013TIP3    H257455   5.743   4.216   1.626 -0.7986 -0.6414 -2.5923
12014TIP3   OH257456   5.318   1.212  16.923  0.7677  0.5798  0.1737
12014TIP3    H157457   5.405   1.176  16.907  2.0014  3.5350 -0.5049
12014TIP3    H257458   5.331   1.277  16.992 -1.1972  0.1809  0.9919
12015TIP3   OH257459   4.030   6.510  14.290  0.4976 -0.2349 -0.0065
12015TIP3    H157460   3.943   6.539  14.264 -0.4849 -2.3100  0.7451
12015TIP3    H257461   4.056   6.571  14.359 -0.7452 -0.1164  0.3811
12016TIP3   OH257462   5.892   4.349  15.972 -0.3547 -0.0697 -0.6403
12016TIP3    H157463   5.958   4.373  15.906  0.2683  0.7951  0.2864
12016TIP3    H257464   5.907   4.409  16.045  0.1905 -2.1645  1.0807
12017TIP3   OH257465   0.011   2.651  13.174  0.4361 -0.2862  0.8701
12017TIP3    H157466   0.012   2.557  13.195 -0.5703 -0.5449 -0.1362
12017TIP3    H257467  -0.082   2.675  13.174  0.2865 -0.2680 -2.7721
12018TIP3   OH257468   2.407   4.163  10.598 -0.0864  0.6926 -0.0457
12018TIP3    H157469   2.462   4.212  10.659  0.0121  1.3064 -0.6100
12018TIP3    H257470   2.454   4.166  10.515 -0.6562  0.6652 -0.3796
12019TIP3   OH257471   4.348   3.309   3.032 -0.0290 -0.0895  0.5791
12019TIP3    H157472   4.408   3.370   2.990 -0.9888  1.0931  0.8358
12019TIP3    H257473   4.376   3.307   3.124 -0.4196  0.5450  0.7215
12020TIP3   OH257474   2.026   6.221  16.902  0.0612  0.9177  0.1578
12020TIP3    H157475   2.097   6.258  16.955 -0.0511  0.6267  0.5137
12020TIP3    H257476   2.071   6.177  16.829  0.3249 -0.3403  1.0440
12021TIP3   OH257477   1.265   5.773  11.326  0.3230  0.2191 -0.1793
12021TIP3    H157478   1.244   5.693  11.374 -1.6556 -0.2200 -1.6266
12021TIP3    H257479   1.340   5.749  11.271 -0.7744 -0.9808 -1.2336
12022TIP3   OH257480   5.649   3.133  11.913 -0.2873  0.2792  0.4776
12022TIP3    H157481   5.683   3.047  11.888 -1.1460  0.4185 -1.3400
12022TIP3    H257482   5.726   3.185  11.935  0.3155 -0.6330  0.5467
12023TIP3   OH257483   1.509   0.175  14.216 -0.0473  0.9027 -0.3922
12023TIP3    H157484   1.471   0.124  14.145  2.4643 -1.3165 -0.3123
12023TIP3    H257485   1.565   0.239  14.173  2.6925 -1.4262 -0.6246
12024TIP3   OH257486   0.797   5.480  14.630  0.5017  0.4480 -0.3988
12024TIP3    H157487   0.847   5.412  14.584 -1.0271 -0.9512 -0.1000
12024TIP3    H257488   0.718   5.435  14.660  1.0329  1.4914  2.8867
12025TIP3   OH257489   6.565   3.432   2.084  0.5657 -0.2819  0.6441
12025TIP3    H157490   6.552   3.486   2.162 -1.9516  1.8707 -1.0838
12025TIP3    H257491   6.477   3.407   2.057  1.4406 -2.0193 -0.8567
12026TIP3   OH257492   4.251   5.656  16.526  0.0017 -0.0573 -0.0651
12026TIP3    H157493   4.196   5.594  16.478  0.8522 -0.4880 -0.5172
12026TIP3    H257494   4.339   5.619  16.519  0.0484 -0.6548  2.6047
12027TIP3   OH257495   4.556   1.888   0.173  0.5940  0.1699  0.0954
12027TIP3    H157496   4.612   1.964   0.156 -0.1311  0.7963  0.4281
12027TIP3    H257497   4.497   1.918   0.242 -0.0715 -0.5116 -0.1752
12028TIP3   OH257498   2.326   0.925   6.605  0.3576  0.3866 -0.3063
12028TIP3    H157499   2.316   0.937   6.699  2.0795  2.7547 -0.3430
12028TIP3    H257500   2.373   0.842   6.596  2.2094  1.2154  1.1182
12029TIP3   OH257501   1.170   3.399  13.751  0.4005 -0.1007 -0.1418
12029TIP3    H157502   1.097   3.459  13.763  0.7350  0.1927  0.5284
12029TIP3    H257503   1.247   3.455  13.748  0.8821 -0.5363  2.0260
12030TIP3   OH257504   1.524   5.219  13.559 -0.0818 -0.5112  0.4924
12030TIP3    H157505   1.432   5.245  13.562  0.2000  0.4591  1.4268
12030TIP3    H257506   1.550   5.231  13.468 -0.4679  0.7426  0.5326
12031TIP3   OH257507   5.482   2.316  15.505 -0.4842 -0.2696 -0.3031
12031TIP3    H157508   5.558   2.300  15.449 -1.7892 -1.0191 -1.9861
12031TIP3    H257509   5.448   2.401  15.476 -0.2489  0.1098  0.5084
12032TIP3   OH257510   6.135   0.865  14.455  0.7211 -0.2248 -0.0208
12032TIP3    H157511   6.205   0.800  14.448  1.5906  0.5675  0.9944
12032TIP3    H257512   6.055   0.813  14.463  1.3942 -1.1766  0.8005
12033TIP3   OH257513   3.584   2.612  16.316 -0.0166  0.6700  0.1571
12033TIP3    H157514   3.610   2.653  16.233  0.9059 -1.1694 -0.5139
12033TIP3    H257515   3.489   2.621  16.317 -0.3020 -1.0322 -2.1568
12034TIP3   OH257516   3.234   0.288   5.000 -0.7336  0.2368 -0.5731
12034TIP3    H157517   3.311   0.301   4.944 -0.8795  0.8157 -0.6491
12034TIP3    H257518   3.261   0.220   5.061  0.3544  1.3684  0.2838
12035TIP3   OH257519   1.859   0.401   4.173  0.2869  0.3014  0.2381
12035TIP3    H157520   1.810   0.435   4.097 -0.1998 -1.1477 -0.1234
12035TIP3    H257521   1.792   0.367   4.232  0.7750 -0.4904  0.3527
12036TIP3   OH257522   5.196   6.224   2.320 -0.1198  0.2644  0.3159
12036TIP3    H157523   5.103   6.217   2.341  0.2088 -0.2418  1.7288
12036TIP3    H257524   5.234   6.143   2.354  0.4816 -0.7507 -2.5079
12037TIP3   OH257525   2.685   5.146  16.152  0.2924 -0.2423  0.2969
12037TIP3    H157526   2.605   5.097  16.173 -1.0405  0.9925 -1.5984
12037TIP3    H257527   2.753   5.078  16.145 -1.1915 -1.7172 -0.8567
12038TIP3   OH257528   5.019   2.056   2.743 -0.0398  0.2339  0.0070
12038TIP3    H157529   5.044   1.967   2.770  0.5066  0.4443  0.1942
12038TIP3    H257530   4.942   2.076   2.797 -0.1780 -0.1325 -0.0512
12039TIP3   OH257531   1.896   3.157  15.053  0.2765  0.0594 -0.1227
12039TIP3    H157532   1.899   3.246  15.017  4.2040 -0.5564 -1.9235
12039TIP3    H257533   1.834   3.110  14.998 -0.5928  1.2805 -0.2123
12040TIP3   OH257534   2.857   6.350   4.680 -0.4528 -0.0450  0.8883
12040TIP3    H157535   2.825   6.331   4.592 -0.1629 -0.8446  0.9532
12040TIP3    H257536   2.786   6.322   4.738 -0.6887  0.5824  0.9113
12041TIP3   OH257537   3.581   3.605  13.795  0.4444  0.5321  0.1496
12041TIP3    H157538   3.652   3.595  13.731  0.3234 -2.0487  0.3424
12041TIP3    H257539   3.625   3.598  13.880  0.2642  1.5006  0.3375
12042TIP3   OH257540   1.565   3.116  11.375 -0.3591  0.1586 -0.0416
12042TIP3    H157541   1.626   3.183  11.344 -0.2367 -0.4463 -1.1418
12042TIP3    H257542   1.619   3.040  11.393 -0.5170  0.2950  1.0971
12043TIP3   OH257543   6.443   0.154  12.001  0.4401 -0.0276 -0.7580
12043TIP3    H157544   6.481   0.084  11.948 -0.1280 -0.7593 -0.2230
12043TIP3    H257545   6.512   0.221  12.007  1.2693 -0.8738 -0.6495
12044TIP3   OH257546   0.997   5.564   3.450 -0.2606  0.3352 -0.0698
12044TIP3    H157547   0.925   5.511   3.414  2.0041 -1.9005 -1.7200
12044TIP3    H257548   1.040   5.506   3.512  0.4083  1.4514  0.5346
12045TIP3   OH257549   2.416   2.970  16.468 -0.4968 -0.3148  0.9209
12045TIP3    H157550   2.383   2.884  16.440 -1.5219  0.3513 -0.0129
12045TIP3    H257551   2.342   3.029  16.453  1.1734  1.3379 -1.6115
12046TIP3   OH257552   2.253   1.555  14.656  0.2623  0.2854 -0.2892
12046TIP3    H157553   2.167   1.523  14.627 -0.5956  1.4941  0.8218
12046TIP3    H257554   2.267   1.514  14.741  1.0753 -0.3512 -0.7103
12047TIP3   OH257555   2.044   3.911   2.801  0.1095 -0.0343 -0.5439
12047TIP3    H157556   2.059   3.908   2.706 -3.7566 -1.3388 -1.3045
12047TIP3    H257557   2.017   4.001   2.819  1.1480  0.2961 -0.5897
12048TIP3   OH257558   4.204   4.659   5.479  0.0030  0.1433  0.6479
12048TIP3    H157559   4.237   4.569   5.476 -0.9294 -0.2951  2.2193
12048TIP3    H257560   4.265   4.705   5.537 -0.5845  0.0201  1.3771
12049TIP3   OH257561   1.003   1.829  13.298  0.1856 -0.8637 -0.7158
12049TIP3    H157562   0.941   1.764  13.265  0.8323 -1.5773 -0.5429
12049TIP3    H257563   1.044   1.787  13.374 -0.1535  0.1527  0.0519
12050TIP3   OH257564   0.865   3.322  14.966  0.3882  0.1843 -0.2742
12050TIP3    H157565   0.780   3.344  14.928  0.0608 -0.7969 -0.1339
12050TIP3    H257566   0.863   3.362  15.053 -0.4202 -0.8158  0.1918
12051TIP3   OH257567   4.829   0.454  11.890  0.3245 -0.6128 -0.1647
12051TIP3    H157568   4.845   0.516  11.961 -1.9967  1.5729 -1.3888
12051TIP3    H257569   4.889   0.482  11.821 -2.1483  1.9405 -1.5292
12052TIP3   OH257570   1.195   6.208  10.649  0.6676 -0.0149  0.5430
12052TIP3    H157571   1.275   6.174  10.689  1.6779  0.7863 -0.7246
12052TIP3    H257572   1.215   6.300  10.632 -1.0096  0.5459  1.3856
12053TIP3   OH257573   0.835   3.318  11.718 -0.7041 -0.2784  0.3312
12053TIP3    H157574   0.831   3.241  11.661 -2.4644 -1.2073  1.6388
12053TIP3    H257575   0.886   3.290  11.794  0.8783  0.6887 -0.3115
12054TIP3   OH257576   3.705   2.288  13.157  0.9290 -0.0423  0.2842
12054TIP3    H157577   3.640   2.219  13.146 -0.2971  0.7601  2.0391
12054TIP3    H257578   3.668   2.364  13.113  1.9627 -0.2682 -1.0468
12055TIP3   OH257579   4.372   4.615  14.817 -0.4877  0.1233  0.0223
12055TIP3    H157580   4.361   4.699  14.773 -0.2715 -0.2385 -0.7380
12055TIP3    H257581   4.428   4.634  14.892 -0.5791  0.6861 -0.0471
12056TIP3   OH257582   2.060   3.934  14.950  0.0228 -0.5153 -0.2426
12056TIP3    H157583   2.001   4.009  14.958 -1.6625 -1.7146 -0.8826
12056TIP3    H257584   2.010   3.861  14.986  0.2935 -1.9668 -2.6392
12057TIP3   OH257585   5.823   6.558   5.758  0.1771  0.0810 -0.3417
12057TIP3    H157586   5.743   6.611   5.761  1.3977  1.9918  0.6191
12057TIP3    H257587   5.850   6.552   5.850  0.9250 -0.8822 -0.6163
12058TIP3   OH257588   5.500   2.910  16.978 -0.3047 -0.0531  0.2005
12058TIP3    H157589   5.408   2.934  16.976 -0.7034 -1.4968 -0.4895
12058TIP3    H257590   5.516   2.872  16.891  0.7366 -0.4823  0.5635
12059TIP3   OH257591   1.941   5.467  17.180  0.1526  0.1819 -0.0244
12059TIP3    H157592   2.014   5.470  17.242 -0.2165 -0.7240  0.4789
12059TIP3    H257593   1.962   5.393  17.123 -1.4084 -1.5317  1.5022
12060TIP3   OH257594   0.055   2.793  14.550  0.8527 -0.2468  0.0837
12060TIP3    H157595   0.133   2.848  14.549  1.8499 -1.2511  4.1838
12060TIP3    H257596  -0.012   2.846  14.593  0.3528 -0.6195 -0.2149
12061TIP3   OH257597   6.277   4.677   4.141 -0.4354  0.1236  0.0637
12061TIP3    H157598   6.244   4.741   4.078 -0.0283 -0.7260 -1.0448
12061TIP3    H257599   6.295   4.728   4.220 -1.7338  1.0792 -0.2149
12062TIP3   OH257600   6.260   0.482  14.267 -0.0700  0.0582 -0.3088
12062TIP3    H157601   6.236   0.424  14.339 -1.3507  0.1962 -0.6008
12062TIP3    H257602   6.293   0.561  14.309 -0.3373 -0.0581  0.1180
12063TIP3   OH257603   4.708   4.007   1.846 -0.2762 -0.5846  0.1320
12063TIP3    H157604   4.624   4.040   1.814 -0.0988 -0.0618  0.1898
12063TIP3    H257605   4.754   3.980   1.766 -0.5730 -1.0513  0.1181
12064TIP3   OH257606   5.501   2.310  14.680 -0.4659 -0.1029 -0.4346
12064TIP3    H157607   5.516   2.405  14.676 -0.6157 -0.0288  0.5135
12064TIP3    H257608   5.494   2.291  14.773  3.3952 -1.6571 -0.2961
12065TIP3   OH257609   1.879   2.591  15.376 -0.2301 -0.0542 -0.2598
12065TIP3    H157610   1.889   2.551  15.290  3.4093 -1.6502  0.7485
12065TIP3    H257611   1.843   2.521  15.431 -0.8206  0.4006 -0.0560
12066TIP3   OH257612   2.868   0.413   1.345 -0.5682  0.5658  0.2460
12066TIP3    H157613   2.956   0.378   1.332 -1.2587 -0.6405 -1.6299
12066TIP3    H257614   2.856   0.412   1.440  0.4398 -1.9762  0.4418
12067TIP3   OH257615   4.504   3.833   4.527 -0.0938  0.9358 -0.4324
12067TIP3    H157616   4.502   3.800   4.617 -0.7930 -0.4786 -0.9415
12067TIP3    H257617   4.554   3.914   4.533  0.4887  0.5035  1.1168
12068TIP3   OH257618   5.217   6.433  12.075 -0.0665  0.2566  0.3527
12068TIP3    H157619   5.170   6.514  12.093 -0.2350 -0.2380  2.5288
12068TIP3    H257620   5.222   6.389  12.161  0.0124 -2.0284 -0.7452
12069TIP3   OH257621   0.227   4.074  14.063  0.0852 -0.1063 -0.2213
12069TIP3    H157622   0.250   4.017  14.136 -1.3923 -1.2137 -0.5603
12069TIP3    H257623   0.239   4.162  14.097  3.3354 -0.5335  0.0230
12070TIP3   OH257624   4.245   0.342  15.607  0.4327  0.3165 -0.3435
12070TIP3    H157625   4.335   0.314  15.590  0.9320  1.9818 -0.6419
12070TIP3    H257626   4.196   0.311  15.530  0.7672 -0.4822 -0.2434
12071TIP3   OH257627   0.351   0.919   5.615  0.1602 -0.5985  0.1486
12071TIP3    H157628   0.325   0.830   5.639 -0.7736 -0.4995 -0.4523
12071TIP3    H257629   0.396   0.909   5.531 -0.9989 -0.3771 -0.5110
12072TIP3   OH257630   5.979   3.319  14.549 -0.3591 -0.0283  0.4255
12072TIP3    H157631   5.995   3.395  14.493  0.7798  0.8462  1.8624
12072TIP3    H257632   5.983   3.353  14.638 -2.3859 -1.3353  1.0922
12073TIP3   OH257633   4.747   1.625  11.983 -0.1779  0.2176  0.2658
12073TIP3    H157634   4.696   1.703  12.004 -1.0540 -0.3536  0.2897
12073TIP3    H257635   4.689   1.552  12.002 -0.8244 -0.3980 -3.4307
12074TIP3   OH257636   4.646   0.954   2.836  0.5412  0.2993  0.0682
12074TIP3    H157637   4.643   1.004   2.755 -0.6389  1.3585  0.7158
12074TIP3    H257638   4.673   1.018   2.902 -0.6295  0.0171  0.8488
12075TIP3   OH257639   2.717   6.003   2.851  0.8411  0.3452 -0.1592
12075TIP3    H157640   2.725   5.923   2.904 -0.9153 -0.7199 -1.4012
12075TIP3    H257641   2.623   6.019   2.846  1.1728  3.0628  0.7860
12076TIP3   OH257642   4.837   5.550   4.649  0.0265  0.1125 -0.0751
12076TIP3    H157643   4.862   5.605   4.575 -0.2953 -0.7221 -0.8264
12076TIP3    H257644   4.748   5.577   4.671 -0.0220  0.0905 -0.2471
12077TIP3   OH257645   0.673   1.347  12.144 -0.0430 -0.7238  0.0925
12077TIP3    H157646   0.745   1.390  12.099 -0.6339 -0.0638 -0.2227
12077TIP3    H257647   0.716   1.295  12.213  0.6630  0.6222  0.7117
12078TIP3   OH257648   5.813   4.243   2.247 -0.0796 -0.4227  0.0358
12078TIP3    H157649   5.738   4.228   2.190  0.0584 -2.8249  0.4074
12078TIP3    H257650   5.775   4.270   2.330 -0.4842 -0.6515 -0.0737
12079TIP3   OH257651   5.563   0.673   4.073  0.1451 -0.0394 -0.2118
12079TIP3    H157652   5.638   0.721   4.037  1.3499 -1.9224 -0.3539
12079TIP3    H257653   5.589   0.651   4.162  0.1468 -1.4045 -0.5198
12080TIP3   OH257654   2.402   6.657  12.578 -0.3035 -0.1035 -0.1437
12080TIP3    H157655   2.423   6.614  12.495 -0.7570 -1.2727  0.3174
12080TIP3    H257656   2.364   6.587  12.631 -1.8364  1.0797  0.3600
12081TIP3   OH257657   1.931   0.303   4.916 -0.5431  0.0413 -0.1485
12081TIP3    H157658   2.021   0.272   4.922 -0.2777  0.6903 -0.6637
12081TIP3    H257659   1.938   0.394   4.890 -1.3157  0.4870  1.0982
12082TIP3   OH257660   2.505   2.868  15.377  0.2024  0.2304  0.4131
12082TIP3    H157661   2.592   2.898  15.402 -0.1418  0.3997  1.4731
12082TIP3    H257662   2.493   2.901  15.288  0.3479  2.1751  1.0632
12083TIP3   OH257663   5.031   6.186  12.494 -0.2219 -0.0721 -0.0715
12083TIP3    H157664   5.017   6.280  12.505 -2.4953 -0.2901 -0.6156
12083TIP3    H257665   4.949   6.146  12.523 -0.0248 -1.7582 -1.6421
12084TIP3   OH257666   5.072   2.657  15.180 -0.3063 -0.4315  0.7335
12084TIP3    H157667   5.000   2.706  15.140  1.3421  0.3282 -1.4990
12084TIP3    H257668   5.151   2.697  15.144  1.2565 -1.3734  2.9346
12085TIP3   OH257669   3.107   0.888  17.119  0.4261 -0.2759  0.0736
12085TIP3    H157670   3.202   0.901  17.119  0.7423 -2.2752  0.0849
12085TIP3    H257671   3.082   0.892  17.027  1.0064 -2.5003 -0.2367
12086TIP3   OH257672   0.399   1.251  15.747 -0.0253 -0.0117 -0.2265
12086TIP3    H157673   0.463   1.272  15.815 -1.4543 -0.5394  1.3581
12086TIP3    H257674   0.376   1.335  15.708  1.1135  0.2551 -0.3413
12087TIP3   OH257675   3.531   1.094   4.579  0.1504  0.7412 -0.1443
12087TIP3    H157676   3.453   1.072   4.528  0.1129 -0.8132  0.5269
12087TIP3    H257677   3.587   1.017   4.571  0.1978  0.4997  1.9811
12088TIP3   OH257678   0.277   5.724   3.205 -0.0769  0.2884 -0.8025
12088TIP3    H157679   0.213   5.733   3.134  2.0676 -0.7131 -2.9627
12088TIP3    H257680   0.356   5.765   3.171  0.5595  1.3799  1.7624
12089TIP3   OH257681   2.896   4.333   2.773  0.6564 -0.1110  0.1235
12089TIP3    H157682   2.834   4.381   2.718  2.2261 -0.1330 -1.7640
12089TIP3    H257683   2.842   4.298   2.845 -1.6131 -0.6023 -1.6968
12090TIP3   OH257684   1.311   4.697   6.358 -0.0299  0.4732 -0.0026
12090TIP3    H157685   1.291   4.789   6.341  2.2911  1.1028  0.2685
12090TIP3    H257686   1.226   4.654   6.364 -1.1492  2.3709 -1.3041
12091TIP3   OH257687   4.673   3.412  15.031  0.1079  0.4164  0.2535
12091TIP3    H157688   4.687   3.374  15.118  1.0204 -0.7572 -0.3660
12091TIP3    H257689   4.579   3.428  15.026 -0.2920 -1.4868  0.7097
12092TIP3   OH257690   3.318   6.195   5.607  0.8093  0.2390  0.0532
12092TIP3    H157691   3.378   6.153   5.669 -0.3615 -1.0226  0.3955
12092TIP3    H257692   3.335   6.151   5.524 -0.9867 -1.6103  0.5874
12093TIP3   OH257693   3.273   5.044   0.897 -0.5220  0.3947 -0.0313
12093TIP3    H157694   3.282   4.990   0.975 -3.6879  2.2291  1.8335
12093TIP3    H257695   3.359   5.086   0.887  1.2105 -2.8413 -0.0720
12094TIP3   OH257696   4.623   1.565   1.430  0.2212  0.1367  0.2818
12094TIP3    H157697   4.537   1.523   1.430  0.0902  0.3909 -0.1466
12094TIP3    H257698   4.686   1.492   1.426 -0.0094 -0.0235 -0.7651
12095TIP3   OH257699   5.229   6.741   1.985  0.4582  0.0176 -0.5742
12095TIP3    H157700   5.195   6.830   1.973  2.4874  1.0285  0.7039
12095TIP3    H257701   5.232   6.730   2.080  0.7825 -1.2031 -0.7213
12096TIP3   OH257702   5.319   4.236   4.880 -0.0616 -0.0058  0.2329
12096TIP3    H157703   5.354   4.160   4.834 -0.5259 -1.8136  2.6611
12096TIP3    H257704   5.265   4.281   4.815  0.3073 -1.7017 -1.3147
12097TIP3   OH257705   5.158   1.187  14.400  0.0037 -0.8614 -0.2065
12097TIP3    H157706   5.225   1.122  14.421  1.5998  0.5648 -0.6421
12097TIP3    H257707   5.079   1.155  14.444  1.4744 -1.5276  2.1450
12098TIP3   OH257708   1.427   3.509  13.682  0.1874  0.7299 -0.3987
12098TIP3    H157709   1.476   3.561  13.617  0.3455  1.7052  0.4624
12098TIP3    H257710   1.481   3.514  13.761  0.0912 -0.5972 -0.2400
12099TIP3   OH257711   0.256   6.702  12.647  0.4850 -0.2522 -0.5515
12099TIP3    H157712   0.231   6.674  12.559  0.3116 -1.4956 -0.1186
12099TIP3    H257713   0.174   6.697  12.698  1.2905 -3.5219  0.6647
12100TIP3   OH257714   4.246   1.950  13.142 -0.1298 -0.0640 -1.2147
12100TIP3    H157715   4.151   1.941  13.137 -0.2654  0.2195  0.2833
12100TIP3    H257716   4.263   1.976  13.233  1.5591 -2.4611 -0.7290
12101TIP3   OH257717   6.565   0.763  17.112  0.0988  0.4483 -0.3662
12101TIP3    H157718   6.588   0.854  17.097  0.9986  0.0916 -1.2783
12101TIP3    H257719   6.598   0.717  17.035  0.3466 -0.7571  0.4267
12102TIP3   OH257720   5.218   5.202  16.780 -0.2322 -0.0580  0.0126
12102TIP3    H157721   5.265   5.250  16.712  1.0141 -0.9545  0.2158
12102TIP3    H257722   5.204   5.267  16.850 -0.6648  0.6097 -0.6844
12103TIP3   OH257723   3.590   0.015  16.352 -0.5256  0.1015 -0.5419
12103TIP3    H157724   3.521   0.060  16.302 -0.9442  0.0408 -0.0283
12103TIP3    H257725   3.663   0.076  16.351 -1.0061  0.7069 -0.0627
12104TIP3   OH257726   5.147   6.740   0.134 -0.1461 -0.3283  0.3836
12104TIP3    H157727   5.195   6.822   0.121 -1.0214  0.3116  1.0672
12104TIP3    H257728   5.195   6.676   0.082  0.6590  0.5771 -0.0255
12105TIP3   OH257729   2.634   1.427  11.562  0.5932  0.1492  0.4484
12105TIP3    H157730   2.598   1.417  11.475  0.7444 -2.4556  0.6127
12105TIP3    H257731   2.619   1.519  11.584  0.2030  0.7746 -2.1239
12106TIP3   OH257732   2.046   0.873  14.099 -0.1547 -0.2510 -0.9727
12106TIP3    H157733   2.041   0.792  14.150  1.9983 -0.9024 -1.7138
12106TIP3    H257734   2.090   0.848  14.018 -0.9208  1.3548 -1.9405
12107TIP3   OH257735   4.996   0.418   2.043 -0.0793  0.4875  0.0541
12107TIP3    H157736   5.074   0.368   2.018 -0.5019 -0.1419  0.0036
12107TIP3    H257737   4.968   0.380   2.126  0.5574  1.7251  0.8761
12108TIP3   OH257738   6.535   3.681  11.433 -0.3476 -0.2564 -0.0110
12108TIP3    H157739   6.522   3.758  11.378 -0.2070  0.6409  1.1874
12108TIP3    H257740   6.591   3.711  11.505 -0.4499 -1.4234  0.5850
12109TIP3   OH257741   0.658   2.260  16.064  1.0020 -0.0136  0.2555
12109TIP3    H157742   0.656   2.355  16.066 -1.8866  0.0124  2.3100
12109TIP3    H257743   0.598   2.237  15.992  0.7166 -0.2635  0.5723
12110TIP3   OH257744   3.665   0.905   3.113 -0.3811 -0.2129 -0.2393
12110TIP3    H157745   3.751   0.915   3.153 -1.1055  1.6576  0.9910
12110TIP3    H257746   3.633   0.821   3.144 -0.6774  0.8924  2.8020
12111TIP3   OH257747   1.677   5.213  13.934  0.8469 -0.3368  0.1058
12111TIP3    H157748   1.753   5.155  13.937  1.3017  0.2401 -0.1673
12111TIP3    H257749   1.622   5.184  14.007  0.9329 -1.2856 -0.1897
12112TIP3   OH257750   5.088   4.073  11.545  0.1573  0.3268  0.4277
12112TIP3    H157751   5.102   4.148  11.487 -1.9962  0.4964  0.0271
12112TIP3    H257752   5.027   4.017  11.497  2.1741 -2.0485  0.4630
12113TIP3   OH257753   0.091   2.985   3.262 -0.2222  0.0409 -0.0295
12113TIP3    H157754   0.142   3.065   3.274  1.2657 -0.9560  0.5700
12113TIP3    H257755   0.036   3.003   3.186 -1.2741  2.2798  1.1828
12114TIP3   OH257756   5.457   1.928  12.804  0.2067 -0.1126 -0.4722
12114TIP3    H157757   5.414   1.856  12.851  0.8464 -1.2948 -1.6287
12114TIP3    H257758   5.544   1.934  12.844 -0.2114  0.7577  0.3397
12115TIP3   OH257759   2.759   0.241  13.913 -0.3816 -0.2959  0.2316
12115TIP3    H157760   2.711   0.249  13.995  0.5676  1.4201  0.6553
12115TIP3    H257761   2.845   0.208  13.938 -0.7812 -1.9195 -0.3662
12116TIP3   OH257762   3.486   4.587   0.251  0.2121  0.0022  0.6155
12116TIP3    H157763   3.476   4.682   0.258 -0.7228 -0.1067  0.9490
12116TIP3    H257764   3.523   4.560   0.335  0.1788  0.0326  0.6397
12117TIP3   OH257765   6.241   4.618  12.818 -0.4024  0.4477 -0.3571
12117TIP3    H157766   6.231   4.663  12.734  0.3560 -1.1328 -1.3474
12117TIP3    H257767   6.194   4.536  12.807 -1.8892  0.9731  1.4646
12118TIP3   OH257768   1.400   1.979  13.834 -0.3576  0.1490 -0.0362
12118TIP3    H157769   1.491   1.996  13.861 -0.1383  0.6948 -1.0458
12118TIP3    H257770   1.355   1.955  13.915  0.9623 -1.3898  0.3148
12119TIP3   OH257771   5.797   4.593  13.065 -0.7007  0.0604  0.1373
12119TIP3    H157772   5.779   4.555  13.151 -1.3300  0.1304  0.0447
12119TIP3    H257773   5.750   4.536  13.004 -1.5057  0.8766 -0.0173
12120TIP3   OH257774   6.199   4.409   5.219  0.0003 -0.2875  0.1356
12120TIP3    H157775   6.278   4.370   5.256 -0.0858  0.7509  1.5070
12120TIP3    H257776   6.133   4.402   5.288 -0.8594 -0.3400 -0.6625
12121TIP3   OH257777   5.473   4.814  15.319  0.1947 -0.9334  0.1691
12121TIP3    H157778   5.467   4.814  15.414  0.6683 -1.7111  0.2023
12121TIP3    H257779   5.423   4.891  15.292 -0.1871 -0.8728  1.0279
12122TIP3   OH257780   3.846   4.790   1.431 -0.2897  0.1280 -0.2927
12122TIP3    H157781   3.870   4.709   1.386  0.8910 -1.2535  2.5595
12122TIP3    H257782   3.750   4.792   1.428 -0.3221 -1.1897 -0.7207
12123TIP3   OH257783   4.559   0.731   6.278  0.7821 -0.3090  0.5494
12123TIP3    H157784   4.595   0.774   6.356  1.3645 -3.1785  2.0169
12123TIP3    H257785   4.475   0.694   6.308  1.3610 -2.0807  0.0818
12124TIP3   OH257786   3.084   0.300   3.996  0.4616  0.3282  0.7230
12124TIP3    H157787   3.146   0.349   4.050 -0.0951  0.8437  0.9104
12124TIP3    H257788   3.023   0.263   4.059  0.9720 -0.7648  0.5967
12125TIP3   OH257789   2.430   1.844   3.246  0.1335  0.4458 -0.1256
12125TIP3    H157790   2.360   1.908   3.232 -0.9428 -0.8077 -0.6505
12125TIP3    H257791   2.505   1.897   3.272 -0.2791  2.0997 -2.0233
12126TIP3   OH257792   2.013   0.858   3.831 -0.1685  0.2498 -0.3535
12126TIP3    H157793   2.057   0.941   3.848  0.3291  0.4348 -2.2919
12126TIP3    H257794   2.080   0.803   3.791 -1.1151 -0.2016 -1.3758
12127TIP3   OH257795   3.860   1.347  11.492 -0.0486 -0.5656  0.0279
12127TIP3    H157796   3.831   1.264  11.528  1.3285 -1.5366 -0.9964
12127TIP3    H257797   3.908   1.324  11.413  2.1323  1.0318  0.7791
12128TIP3   OH257798   6.574   3.298   5.096  0.0227 -0.0229 -0.0084
12128TIP3    H157799   6.541   3.209   5.080  0.9939  0.0118 -2.7026
12128TIP3    H257800   6.664   3.285   5.127 -0.2537  0.0208  0.8348
12129TIP3   OH257801   0.217   1.940   5.546  0.4215 -0.0911 -0.7785
12129TIP3    H157802   0.230   1.850   5.516  2.2982  0.3910 -1.5750
12129TIP3    H257803   0.189   1.932   5.636  4.3035 -1.5545  0.5167
12130TIP3   OH257804   5.868   1.431   0.838 -0.2623  0.1173 -0.0630
12130TIP3    H157805   5.836   1.382   0.914  0.5844 -0.4479 -0.0546
12130TIP3    H257806   5.789   1.462   0.794 -0.8303 -1.5994 -0.2976
12131TIP3   OH257807   4.149   5.850   3.404  0.5540  0.0215  0.1096
12131TIP3    H157808   4.175   5.777   3.459  0.3924 -0.4767 -0.4676
12131TIP3    H257809   4.072   5.886   3.447 -1.4367 -2.2217 -1.2909
12132TIP3   OH257810   1.443   1.383   5.328 -0.1535  0.4066  0.1182
12132TIP3    H157811   1.392   1.456   5.364 -0.3705 -0.0957  0.8415
12132TIP3    H257812   1.413   1.307   5.377 -0.3112 -0.2689 -0.9994
12133TIP3   OH257813   0.225   1.675   4.066  0.1032 -0.4083  0.0413
12133TIP3    H157814   0.184   1.759   4.082  1.0493  0.4969 -1.9112
12133TIP3    H257815   0.152   1.614   4.054 -0.6592  0.6107 -0.7183
12134TIP3   OH257816   5.388   3.892  13.981  0.0131 -0.5141  0.2312
12134TIP3    H157817   5.331   3.956  14.023  0.4103  0.3298 -0.5051
12134TIP3    H257818   5.476   3.914  14.011  0.2167 -0.3471 -0.4781
12135TIP3   OH257819   6.742   0.069  10.941  0.0498  0.0175 -0.7500
12135TIP3    H157820   6.762   0.159  10.913  1.8427  0.2357  0.9928
12135TIP3    H257821   6.814   0.017  10.906  0.7637 -0.1670  0.9142
12136TIP3   OH257822   3.824   5.177   5.883  0.0772  0.2862 -0.2135
12136TIP3    H157823   3.731   5.184   5.908 -0.6645 -2.4532 -1.7619
12136TIP3    H257824   3.831   5.225   5.801 -0.1001  0.1445 -0.3139
12137TIP3   OH257825   5.456   6.092   5.092 -0.1105 -0.1068 -0.1472
12137TIP3    H157826   5.534   6.037   5.082 -0.5029 -0.4851 -1.3140
12137TIP3    H257827   5.449   6.138   5.008 -1.3819 -0.4210 -0.2313
12138TIP3   OH257828   4.980   5.174  11.587 -0.1205 -0.9912  0.6370
12138TIP3    H157829   4.991   5.081  11.607 -0.6083 -2.0262 -3.1140
12138TIP3    H257830   4.891   5.181  11.554  0.2691  0.5893 -0.1751
12139TIP3   OH257831   6.246   0.466   0.967 -0.0858 -0.1815  0.5367
12139TIP3    H157832   6.223   0.376   0.942 -0.0641 -0.3070  0.9569
12139TIP3    H257833   6.313   0.455   1.035 -0.8184  0.1182  1.3306
12140TIP3   OH257834   3.398   2.100  11.419  0.3258 -0.5711  0.2182
12140TIP3    H157835   3.452   2.120  11.495  0.5468 -1.6426  0.3514
12140TIP3    H257836   3.317   2.065  11.455 -0.2036  0.3834 -0.0037
12141TIP3   OH257837   4.657   3.642  13.763  0.0501  0.2840 -0.2839
12141TIP3    H157838   4.657   3.682  13.850  1.9566  0.3442 -0.2742
12141TIP3    H257839   4.565   3.620  13.747 -0.8644  3.2945  0.3206
12142TIP3   OH257840   3.323   3.654   1.873  0.0717 -0.0531  0.6476
12142TIP3    H157841   3.308   3.727   1.934 -0.6568  0.9838 -0.7118
12142TIP3    H257842   3.399   3.681   1.822 -0.0437 -0.3707  0.3115
12143TIP3   OH257843   3.412   1.588   1.023 -0.6502  0.7267 -0.8204
12143TIP3    H157844   3.419   1.673   1.066 -0.7095 -0.4784  1.6892
12143TIP3    H257845   3.374   1.530   1.088 -2.2312 -0.8922 -3.0172
12144TIP3   OH257846   6.676   5.290   2.034 -0.1287 -0.4180  0.3006
12144TIP3    H157847   6.726   5.343   1.972 -1.9420 -0.0107 -0.8738
12144TIP3    H257848   6.729   5.291   2.114  1.2997  0.7106 -0.6140
12145TIP3   OH257849   1.122   1.583  16.138 -0.9107  0.2020 -0.1239
12145TIP3    H157850   1.108   1.676  16.155 -2.9539 -0.0263 -0.3018
12145TIP3    H257851   1.186   1.556  16.203 -0.5679  1.6540  0.1724
12146TIP3   OH257852   1.659   1.637   5.957 -0.1039 -0.4671 -0.2096
12146TIP3    H157853   1.694   1.663   5.872 -0.7546  0.3429 -0.2450
12146TIP3    H257854   1.663   1.716   6.010  0.7474 -1.0805  0.6866
12147TIP3   OH257855   1.854   0.300   0.722 -0.1438  0.2404 -0.6113
12147TIP3    H157856   1.799   0.376   0.744  0.1633  0.3538 -0.2218
12147TIP3    H257857   1.794   0.225   0.726  0.2481 -0.0554  2.6954
12148TIP3   OH257858   1.517   4.664  11.679  0.4356 -0.3560  0.0101
12148TIP3    H157859   1.440   4.645  11.625  0.0185 -3.6320  1.4705
12148TIP3    H257860   1.487   4.728  11.743 -1.7857 -2.8361  1.6663
12149TIP3   OH257861   5.454   0.760  17.358  0.1275  0.0354  0.0265
12149TIP3    H157862   5.511   0.824  17.400 -0.4796  0.7469 -0.1946
12149TIP3    H257863   5.493   0.675  17.378  0.6778  0.4491  0.7456
12150TIP3   OH257864   2.132   0.722  14.769 -0.0401 -0.2962 -0.0097
12150TIP3    H157865   2.100   0.645  14.722  0.3923 -0.6811  0.3215
12150TIP3    H257866   2.068   0.791  14.748 -0.5495 -0.7974 -0.1289
12151TIP3   OH257867   0.006   0.762   3.949 -1.0661 -0.2624  0.1220
12151TIP3    H157868   0.007   0.745   4.043  0.0250  0.8592  0.3398
12151TIP3    H257869  -0.055   0.698   3.914 -1.3641 -0.8144  1.5716
12152TIP3   OH257870   1.092   2.257   6.392 -0.4281  0.4495  0.3967
12152TIP3    H157871   1.029   2.189   6.416 -1.1618  0.5327 -1.1161
12152TIP3    H257872   1.176   2.223   6.421 -0.7000 -1.3701 -0.7684
12153TIP3   OH257873   2.191   2.582  10.785 -0.3379  1.6298  0.6226
12153TIP3    H157874   2.206   2.490  10.805  1.0916  0.8460 -3.0821
12153TIP3    H257875   2.098   2.596  10.802 -1.6583 -1.7877 -2.3778
12154TIP3   OH257876   4.255   1.602   3.944  0.1299 -0.5730  0.8140
12154TIP3    H157877   4.289   1.513   3.948  1.2468 -0.1563  1.0995
12154TIP3    H257878   4.229   1.622   4.035  1.5372 -0.0129  1.1195
12155TIP3   OH257879   2.106   0.296  14.976 -0.2521 -0.3354  0.4249
12155TIP3    H157880   2.023   0.343  14.976 -0.2914 -0.0495 -3.4224
12155TIP3    H257881   2.081   0.204  14.964 -0.1237 -0.1028 -2.1825
12156TIP3   OH257882   5.233   4.615  11.710  0.3730 -0.2484 -0.1808
12156TIP3    H157883   5.207   4.678  11.643 -0.4423 -0.8302 -0.4228
12156TIP3    H257884   5.309   4.656  11.753  0.3300  0.5456 -0.8332
12157TIP3   OH257885   4.224   5.969   1.159  0.2328  0.4534  0.2784
12157TIP3    H157886   4.228   5.947   1.253 -0.3418 -1.0047 -0.0108
12157TIP3    H257887   4.234   5.885   1.115 -0.8516  0.9430 -0.9443
12158TIP3   OH257888   0.219   0.600   3.991 -0.2658 -0.5413  0.3816
12158TIP3    H157889   0.237   0.607   4.085 -1.1629 -0.4134  0.5589
12158TIP3    H257890   0.136   0.646   3.980  1.1216  1.8294 -0.9508
12159TIP3   OH257891   1.005   1.620   4.687 -0.7156  0.0047 -0.2019
12159TIP3    H157892   0.965   1.645   4.770  1.0293  0.3217  0.5799
12159TIP3    H257893   0.971   1.533   4.669 -0.6920 -0.2976  1.1321
12160TIP3   OH257894   1.303   0.235  13.188  0.1925  0.3386  0.1469
12160TIP3    H157895   1.276   0.146  13.163  0.4801 -0.0140  1.0217
12160TIP3    H257896   1.399   0.234  13.181  0.2358  0.4073  0.6608
12161TIP3   OH257897   5.410   5.299  12.538  0.1956  0.0436 -0.0532
12161TIP3    H157898   5.475   5.321  12.471 -0.1350  1.5234  0.0703
12161TIP3    H257899   5.438   5.349  12.615 -0.0361 -0.7905  0.5903
12162TIP3   OH257900   5.756   4.197  10.946  0.0196 -0.0702  0.0727
12162TIP3    H157901   5.814   4.156  11.010 -0.6197 -0.1486  0.6158
12162TIP3    H257902   5.701   4.256  10.998 -0.4203 -0.0320 -0.4221
12163TIP3   OH257903   1.051   6.070   3.298 -0.3919 -0.6003  0.4276
12163TIP3    H157904   0.996   5.994   3.319  0.6488 -1.3020  0.6663
12163TIP3    H257905   1.073   6.059   3.206 -0.0776 -0.6842  0.5142
12164TIP3   OH257906   2.899   1.772  16.890  0.1547 -0.6659  0.0544
12164TIP3    H157907   2.981   1.820  16.884 -0.1413  0.3818  2.8609
12164TIP3    H257908   2.885   1.737  16.802  2.2001  1.4045 -1.1982
12165TIP3   OH257909   5.359   3.726  13.636  0.7208 -0.6787 -0.3231
12165TIP3    H157910   5.365   3.664  13.564  1.3038 -1.3708  0.3119
12165TIP3    H257911   5.447   3.730  13.673 -0.0762 -2.3413  1.9903
12166TIP3   OH257912   6.081   1.158   3.304 -0.3198  0.3257 -0.4312
12166TIP3    H157913   6.153   1.200   3.256 -1.1561  0.0656 -1.9576
12166TIP3    H257914   6.115   1.072   3.328 -0.2217  0.0831 -1.4168
12167TIP3   OH257915   1.748   4.036  12.488  0.1823  0.1510  0.3132
12167TIP3    H157916   1.735   3.941  12.493 -2.1012  0.4068  0.2807
12167TIP3    H257917   1.692   4.071  12.557 -2.1242  1.6588 -2.1520
12168TIP3   OH257918   1.274   5.674  17.212  0.1360 -0.5136 -0.4036
12168TIP3    H157919   1.218   5.596  17.212 -1.4446  0.3814  3.0483
12168TIP3    H257920   1.291   5.690  17.305  0.8225  2.9480 -0.9888
12169TIP3   OH257921   4.697   2.987   2.880  0.3932  0.5093 -0.0770
12169TIP3    H157922   4.766   2.948   2.934  1.1175  1.4417 -0.2999
12169TIP3    H257923   4.701   3.080   2.900 -0.2789  0.6769 -0.6944
12170TIP3   OH257924   4.399   5.112   6.686  0.1995 -0.3807  0.5145
12170TIP3    H157925   4.325   5.134   6.743 -0.0591 -0.8352  0.3656
12170TIP3    H257926   4.364   5.045   6.627  0.7136 -0.5504  0.3966
12171TIP3   OH257927   6.304   6.751  14.666  0.1600  0.5249 -0.5302
12171TIP3    H157928   6.248   6.759  14.743  0.6417 -0.0991 -0.1026
12171TIP3    H257929   6.312   6.840  14.632  0.2246  0.8587  0.3391
12172TIP3   OH257930   1.586   0.433  14.820 -0.7198  0.1006  0.4626
12172TIP3    H157931   1.574   0.339  14.805 -1.2796 -0.1895  2.4508
12172TIP3    H257932   1.661   0.456  14.766 -0.2788 -1.5991  0.2832
12173TIP3   OH257933   6.440   3.282   3.768 -0.6152 -0.2629 -0.0292
12173TIP3    H157934   6.386   3.353   3.732 -0.0379 -0.1436 -0.6684
12173TIP3    H257935   6.431   3.292   3.863  0.1406  1.2023 -0.0824
12174TIP3   OH257936   2.091   5.046   1.736 -0.1577  0.2597 -0.0775
12174TIP3    H157937   2.142   5.127   1.747 -1.5164  0.8652  2.3935
12174TIP3    H257938   2.008   5.064   1.779 -1.3838 -1.7046 -1.4906
12175TIP3   OH257939   6.162   6.195  12.499 -0.1726  0.5449 -0.1032
12175TIP3    H157940   6.164   6.105  12.469  2.9958  0.0654  1.0756
12175TIP3    H257941   6.128   6.190  12.589 -0.2791  0.5462 -0.1442
12176TIP3   OH257942   0.113   5.405   3.197 -0.0600 -0.0656 -0.1031
12176TIP3    H157943   0.189   5.451   3.234  0.6129  0.5852 -2.1668
12176TIP3    H257944   0.100   5.330   3.256  0.9708  0.8517  1.3726
12177TIP3   OH257945   5.865   4.004  17.377 -0.4286  0.4648 -0.1947
12177TIP3    H157946   5.772   4.023  17.378 -0.6846 -0.6788 -0.3829
12177TIP3    H257947   5.888   3.991  17.469 -0.3991  0.9910 -0.1275
12178TIP3   OH257948   2.551   1.218   2.287 -0.3989  0.1919  0.9274
12178TIP3    H157949   2.461   1.238   2.263 -0.1078  1.4208  0.7684
12178TIP3    H257950   2.581   1.296   2.335  0.3238 -0.5261  1.6754
12179TIP3   OH257951   5.720   3.144  11.504 -0.0622 -0.2026  0.3954
12179TIP3    H157952   5.782   3.208  11.537  0.9934 -0.3879 -1.0939
12179TIP3    H257953   5.764   3.105  11.429 -0.3956 -3.1612  1.6193
12180TIP3   OH257954   6.149   2.318  13.078  0.0999 -0.0303  0.1212
12180TIP3    H157955   6.069   2.287  13.121  0.3108 -1.6695 -0.5798
12180TIP3    H257956   6.217   2.258  13.107  0.8740  0.7066 -0.1197
12181TIP3   OH257957   5.542   1.229  14.416 -0.0430  0.2951  0.2168
12181TIP3    H157958   5.537   1.303  14.355 -0.3589  0.1107  0.0127
12181TIP3    H257959   5.616   1.177  14.386 -1.7641 -1.2524 -1.6984
12182TIP3   OH257960   0.317   2.227  11.075 -0.6242  0.3231 -0.4899
12182TIP3    H157961   0.407   2.195  11.086 -0.6399  0.0130 -1.1550
12182TIP3    H257962   0.262   2.157  11.109 -0.5983  1.1093  1.2344
12183TIP3   OH257963   0.710   0.289  14.496 -0.5229 -0.1754  0.3285
12183TIP3    H157964   0.752   0.348  14.433  1.0381  0.1430  1.5881
12183TIP3    H257965   0.677   0.216  14.443  1.1580 -0.1469 -0.8322
12184TIP3   OH257966   5.295   1.231  13.592  0.3095 -0.0720 -0.3495
12184TIP3    H157967   5.330   1.217  13.680 -0.7124  3.3924  0.8082
12184TIP3    H257968   5.361   1.283  13.548 -0.6532  1.2475 -0.3074
12185TIP3   OH257969   0.605   0.649   2.815  0.9586  0.3436 -0.5490
12185TIP3    H157970   0.688   0.640   2.860  0.5718  1.9409  0.5764
12185TIP3    H257971   0.629   0.668   2.724  1.8139  0.1980 -0.3583
12186TIP3   OH257972   6.344   0.277  15.494 -0.3610  0.0532  0.2108
12186TIP3    H157973   6.321   0.237  15.578  0.4170 -1.4590 -0.2518
12186TIP3    H257974   6.277   0.344  15.480 -0.1868  0.7280  2.2823
12187TIP3   OH257975   1.270   0.311  15.431  0.3749 -0.0919  0.1457
12187TIP3    H157976   1.282   0.247  15.502 -1.4854  0.1772  0.7475
12187TIP3    H257977   1.333   0.283  15.364  0.2036 -2.0596  0.7211
12188TIP3   OH257978   6.739   3.504  13.973  0.3029 -0.1294  0.3003
12188TIP3    H157979   6.727   3.598  13.983 -1.6958 -0.4333  1.1961
12188TIP3    H257980   6.651   3.469  13.959  1.1713 -1.6918 -1.9507
12189TIP3   OH257981   4.797   4.161  11.238 -0.1753 -0.5196  0.2919
12189TIP3    H157982   4.875   4.185  11.288 -0.8358  0.9020  0.6877
12189TIP3    H257983   4.823   4.170  11.146 -0.2531  1.4023  0.4159
12190TIP3   OH257984   6.267   2.081   5.503 -0.0038 -0.1277  0.1740
12190TIP3    H157985   6.198   2.025   5.539  0.1739 -0.2536  0.3194
12190TIP3    H257986   6.312   2.117   5.579 -0.7716  1.0452  0.0954
12191TIP3   OH257987   3.823   0.417   4.841  0.2797  0.5681 -0.7402
12191TIP3    H157988   3.857   0.425   4.752  1.3357 -0.4273 -0.4573
12191TIP3    H257989   3.826   0.506   4.876  0.3515  0.8856 -1.5230
12192TIP3   OH257990   1.311   1.882  12.698  0.1458 -0.1406  0.1910
12192TIP3    H157991   1.292   1.830  12.621  1.7006 -0.0912 -0.2566
12192TIP3    H257992   1.326   1.971  12.664 -0.6385  0.2120  0.7325
12193TIP3   OH257993   2.103   3.122  11.677 -0.1062 -0.2786 -0.4276
12193TIP3    H157994   2.015   3.138  11.642  0.0216 -0.5165 -0.8614
12193TIP3    H257995   2.092   3.127  11.772 -0.2145  1.5837 -0.5069
12194TIP3   OH257996   4.598   4.616   6.403 -0.3423 -0.0847  0.0129
12194TIP3    H157997   4.682   4.585   6.435  0.1388  0.9462 -0.2170
12194TIP3    H257998   4.551   4.642   6.483 -0.1739 -0.0114  0.0887
12195TIP3   OH257999   5.635   0.123  11.026  0.5993  0.1480 -0.0572
12195TIP3    H158000   5.675   0.103  11.110  0.6855  1.7444  0.3105
12195TIP3    H258001   5.582   0.045  11.006 -0.6037  0.2868  2.1844
12196TIP3   OH258002   6.339   5.864  14.378  0.0130 -0.3973 -0.2723
12196TIP3    H158003   6.415   5.847  14.434  1.5024  1.3958 -1.6103
12196TIP3    H258004   6.370   5.851  14.289 -0.6026  2.2573 -0.9778
12197TIP3   OH258005   4.818   0.512  12.962 -0.2981  0.8630 -0.2095
12197TIP3    H158006   4.872   0.549  12.892 -0.0081  2.9947  1.0619
12197TIP3    H258007   4.817   0.418  12.944  2.0805  1.0060 -1.4655
12198TIP3   OH258008   6.366   0.787   3.966  0.1253  0.1446  0.3133
12198TIP3    H158009   6.429   0.718   3.941  1.1370  1.1901 -0.1244
12198TIP3    H258010   6.419   0.852   4.011 -0.7227  0.8932  0.2451
12199TIP3   OH258011   3.470   2.337  13.483 -0.1316  0.4348 -0.5759
12199TIP3    H158012   3.453   2.379  13.399 -0.8401 -2.2759 -1.8975
12199TIP3    H258013   3.510   2.253  13.461 -2.2890 -1.3378  1.6091
12200TIP3   OH258014   3.235   3.653   3.425  0.1252  0.2962 -0.2249
12200TIP3    H158015   3.235   3.569   3.378 -0.6218  0.8452 -1.2540
12200TIP3    H258016   3.200   3.631   3.511 -1.9296 -0.1752 -1.1056
12201TIP3   OH258017   5.017   2.104  13.216 -0.0070 -0.3886 -0.1708
12201TIP3    H158018   4.942   2.084  13.159 -0.0482 -0.8469  0.0370
12201TIP3    H258019   5.019   2.199  13.220 -0.9980 -0.3673  0.3499
12202TIP3   OH258020   1.724   0.550   3.146  0.2083 -0.2096  0.2217
12202TIP3    H158021   1.649   0.557   3.205 -0.0490 -1.5825  0.0961
12202TIP3    H258022   1.792   0.603   3.187 -0.9350  1.3968  0.1303
12203TIP3   OH258023   2.342   3.718   4.088  0.4371 -0.0651  0.0146
12203TIP3    H158024   2.251   3.692   4.097  0.1705  1.1518  1.0710
12203TIP3    H258025   2.374   3.668   4.012 -0.8544 -1.1243  0.1312
12204TIP3   OH258026   6.005   3.474  15.273  0.2178 -0.3084 -0.1750
12204TIP3    H158027   5.943   3.437  15.210 -0.7404 -0.6483  0.9341
12204TIP3    H258028   6.069   3.404  15.288 -1.1443 -1.2959  1.3195
12205TIP3   OH258029   2.914   2.431  13.446  0.5529 -0.3037  0.6066
12205TIP3    H158030   2.958   2.351  13.475  2.1089  0.2741 -0.0401
12205TIP3    H258031   2.829   2.401  13.415  0.1446 -1.3662  2.5971
12206TIP3   OH258032   0.577   0.688  15.385 -0.3855 -0.1487  0.2940
12206TIP3    H158033   0.641   0.715  15.452 -1.1098 -1.2484  1.4728
12206TIP3    H258034   0.536   0.770  15.358 -0.5149  0.2775  1.6698
12207TIP3   OH258035   0.285   1.933  16.072 -0.4036  0.0498 -0.4287
12207TIP3    H158036   0.198   1.905  16.101  0.3756 -1.4323  0.6131
12207TIP3    H258037   0.291   1.899  15.982 -0.9030  0.2083 -0.5304
12208TIP3   OH258038   3.308   5.919  17.115 -0.0529  0.7171 -0.1629
12208TIP3    H158039   3.301   5.926  17.210  1.5512 -0.4449  0.0740
12208TIP3    H258040   3.402   5.923  17.097  0.0012 -2.6824 -1.3343
12209TIP3   OH258041   3.065   4.019  17.171 -0.4575 -0.0947 -0.5624
12209TIP3    H158042   3.148   4.049  17.135 -0.1159 -1.3713 -0.9134
12209TIP3    H258043   3.040   4.086  17.234 -0.2544  1.3874 -1.9927
12210TIP3   OH258044   4.223   1.078   4.624  0.2666  0.3784  0.1585
12210TIP3    H158045   4.227   0.983   4.636 -2.6089  0.3022  1.3101
12210TIP3    H258046   4.291   1.113   4.681  1.4791 -0.9490 -0.4141
12211TIP3   OH258047   3.778   2.882  17.005 -0.8779 -0.0315 -0.1986
12211TIP3    H158048   3.873   2.876  16.993 -1.0706 -0.0030 -2.1262
12211TIP3    H258049   3.742   2.818  16.943 -2.1931  2.8228 -2.6365
12212TIP3   OH258050   5.353   4.561  16.008  0.1875 -0.0127 -0.2929
12212TIP3    H158051   5.298   4.518  16.074 -0.3511 -0.5818 -1.0891
12212TIP3    H258052   5.292   4.583  15.937  0.8038  0.3380 -0.7246
12213TIP3   OH258053   1.485   0.487  12.502 -0.3968  0.7291 -0.1588
12213TIP3    H158054   1.471   0.574  12.463 -1.1547  0.4916 -0.4313
12213TIP3    H258055   1.418   0.480  12.569 -0.4045  0.3123 -0.2092
12214TIP3   OH258056   4.105   0.577   6.198  0.1245 -0.6246 -0.2240
12214TIP3    H158057   4.153   0.615   6.271 -1.6232 -0.2809  0.7995
12214TIP3    H258058   4.171   0.529   6.148  2.0190  1.9310 -0.3615
12215TIP3   OH258059   0.779   5.534  11.838  0.0795 -0.0758 -0.2445
12215TIP3    H158060   0.712   5.591  11.800 -0.8159 -1.7272 -1.3196
12215TIP3    H258061   0.804   5.477  11.765  1.3269 -0.6850  0.6396
12216TIP3   OH258062   4.653   0.747   5.581 -0.1679  0.8676 -0.2775
12216TIP3    H158063   4.562   0.774   5.567 -1.7759 -2.5523  1.9634
12216TIP3    H258064   4.647   0.652   5.592  4.1522  0.0584 -2.8970
12217TIP3   OH258065   6.143   6.712   2.387 -0.1856 -0.7812  0.1158
12217TIP3    H158066   6.048   6.702   2.395 -0.3645  0.8757  0.5076
12217TIP3    H258067   6.154   6.796   2.342  1.0897 -1.1561 -0.2916
12218TIP3   OH258068   1.042   6.635  15.882 -0.0198  0.2354  0.4718
12218TIP3    H158069   1.033   6.564  15.946 -1.3577  1.2479  1.4785
12218TIP3    H258070   0.962   6.630  15.830  0.3165  0.4237 -0.0706
12219TIP3   OH258071   3.473   6.496  12.140  0.0988 -0.4598 -0.4765
12219TIP3    H158072   3.393   6.494  12.192 -0.9852  2.5391 -1.7845
12219TIP3    H258073   3.462   6.424  12.077 -0.8242 -1.0642  0.3418
12220TIP3   OH258074   0.831   1.626  13.174  0.0559 -0.2312  0.1142
12220TIP3    H158075   0.792   1.595  13.092  0.1142  0.8908 -0.3618
12220TIP3    H258076   0.761   1.676  13.216  0.3572  0.1105  0.2140
12221TIP3   OH258077   6.623   4.291  12.572  0.0377 -0.3104 -0.2274
12221TIP3    H158078   6.534   4.282  12.539  0.6862 -0.2432 -2.1347
12221TIP3    H258079   6.679   4.279  12.494  1.6872 -0.3619  0.9095
12222TIP3   OH258080   5.179   3.654   6.519 -0.4338  0.3553 -0.1196
12222TIP3    H158081   5.173   3.678   6.611 -0.8968 -1.6903  0.4505
12222TIP3    H258082   5.272   3.659   6.498 -0.0423 -1.0705  1.0825
12223TIP3   OH258083   6.269   3.946  15.594 -0.4482  0.0090 -0.1131
12223TIP3    H158084   6.338   3.985  15.648  0.0976 -1.4355  0.2929
12223TIP3    H258085   6.305   3.946  15.506  0.0215 -0.5566  0.0653
12224TIP3   OH258086   2.218   4.225  12.594 -0.1304  0.1554 -0.5934
12224TIP3    H158087   2.126   4.207  12.577  0.0022  0.2295 -1.3990
12224TIP3    H258088   2.247   4.277  12.520  1.1540 -1.8009 -1.5514
12225TIP3   OH258089   3.990   2.456  16.591  0.0993  0.3370  0.6768
12225TIP3    H158090   3.984   2.547  16.620 -0.4826  0.5869 -0.1827
12225TIP3    H258091   3.898   2.428  16.584  0.2107  0.3373 -1.0392
12226TIP3   OH258092   1.478   4.370   4.691  0.0074  0.4102  0.2001
12226TIP3    H158093   1.548   4.371   4.757  0.1665  0.0812  0.0389
12226TIP3    H258094   1.512   4.423   4.619 -1.3714  3.4098  1.5794
12227TIP3   OH258095   5.155   0.773  15.702  0.3852  0.6406  0.5647
12227TIP3    H158096   5.104   0.777  15.783  0.6567  0.7708  0.7349
12227TIP3    H258097   5.242   0.743  15.731  0.2892  0.0169  0.2234
12228TIP3   OH258098   6.463   2.244   1.446  0.5155 -0.0584  0.0460
12228TIP3    H158099   6.446   2.169   1.389 -0.2230 -0.4938  0.8081
12228TIP3    H258100   6.427   2.319   1.400 -0.0084 -0.3940 -0.1003
12229TIP3   OH258101   6.035   1.083  14.671 -0.0223 -0.5453 -0.1715
12229TIP3    H158102   6.009   0.991  14.664  0.7011 -0.8425  0.7977
12229TIP3    H258103   6.106   1.093  14.608 -1.7783  0.0332 -2.1512
12230TIP3   OH258104   0.859   3.215   2.986 -0.1419  0.7897  0.2604
12230TIP3    H158105   0.816   3.301   2.995  0.3073  0.9511  0.9219
12230TIP3    H258106   0.793   3.160   2.944 -1.3632  0.7636  2.1136
12231TIP3   OH258107   2.213   1.075  14.293 -0.3516  0.4354 -0.5561
12231TIP3    H158108   2.151   1.125  14.239  1.3213  2.0253 -1.0957
12231TIP3    H258109   2.200   1.110  14.381 -0.8712  0.0889 -0.4913
12232TIP3   OH258110   0.431   3.051  12.189  0.3117 -0.4590  0.1105
12232TIP3    H158111   0.368   3.040  12.260 -0.8982 -0.4856 -0.9288
12232TIP3    H258112   0.428   2.968  12.142  1.1810 -0.4801  0.0719
12233TIP3   OH258113   6.444   5.194  16.479  0.1474  0.1590  0.4256
12233TIP3    H158114   6.371   5.238  16.435 -0.0769  0.6886  1.2982
12233TIP3    H258115   6.481   5.261  16.537  0.8027 -0.3510  0.6073
12234TIP3   OH258116   2.456   4.538  11.906  0.2251 -0.0073  0.1288
12234TIP3    H158117   2.499   4.459  11.875 -0.8585 -0.6710  0.2861
12234TIP3    H258118   2.516   4.574  11.971  1.8716  0.6438 -1.6456
12235TIP3   OH258119   1.480   3.162  16.834  0.2413 -0.2729 -0.6932
12235TIP3    H158120   1.403   3.105  16.832 -1.3505  1.5419  2.2715
12235TIP3    H258121   1.467   3.221  16.759  0.0635 -1.4573 -1.6390
12236TIP3   OH258122   4.494   0.798  11.419  0.5357  0.2971  0.4984
12236TIP3    H158123   4.550   0.798  11.341  0.0935  0.3244  0.1781
12236TIP3    H258124   4.459   0.709  11.424  1.2189  0.0465  1.1546
12237TIP3   OH258125   1.211   4.357   4.611 -0.2835 -0.2725 -0.5038
12237TIP3    H158126   1.193   4.450   4.603 -0.1033 -0.1318  0.5808
12237TIP3    H258127   1.301   4.353   4.645 -1.3920 -0.7135  2.7072
12238TIP3   OH258128   4.016   0.775  15.389 -0.1554  0.8206 -0.2422
12238TIP3    H158129   3.927   0.782  15.354 -0.3754  0.1881  0.1660
12238TIP3    H258130   4.019   0.839  15.460 -0.3736  0.6760 -0.0978
12239TIP3   OH258131   1.703   3.580  12.692 -0.3459  0.6255  0.1713
12239TIP3    H158132   1.682   3.511  12.629  1.3123 -0.0093  0.2385
12239TIP3    H258133   1.642   3.567  12.764  0.3476 -1.2227  0.4704
12240TIP3   OH258134   1.638   4.733  12.912  0.6414 -0.3961  0.2242
12240TIP3    H158135   1.569   4.683  12.868  1.9662 -2.0666 -0.0326
12240TIP3    H258136   1.605   4.823  12.913 -1.0124 -0.9396 -0.9293
12241TIP3   OH258137   3.562   1.314  14.344 -0.9805  0.1860 -1.1884
12241TIP3    H158138   3.469   1.330  14.360 -0.9672 -0.4422 -0.3941
12241TIP3    H258139   3.564   1.227  14.303 -0.7213  0.0210 -0.8296
12242TIP3   OH258140   4.308   0.738  13.257  0.0491  0.7112  0.0212
12242TIP3    H158141   4.289   0.698  13.172 -1.2830  0.5675  0.3512
12242TIP3    H258142   4.369   0.678  13.299 -2.0910 -1.2082  0.6040
12243TIP3   OH258143   0.956   0.173  11.237 -0.2330 -0.2125  0.1457
12243TIP3    H158144   1.025   0.203  11.178  1.0923 -2.0101  0.7358
12243TIP3    H258145   0.990   0.191  11.325 -1.0620  0.0022  0.4345
12244TIP3   OH258146   6.495   3.769  16.446  0.9881 -0.0680 -0.3221
12244TIP3    H158147   6.425   3.711  16.415  0.1937  0.8756 -0.3178
12244TIP3    H258148   6.465   3.800  16.531  2.8384 -2.0960  1.1929
12245TIP3   OH258149   0.297   1.779   0.865 -0.2623  0.2633 -0.0358
12245TIP3    H158150   0.366   1.714   0.857 -2.3015 -2.2617  1.3254
12245TIP3    H258151   0.252   1.778   0.781 -0.5651 -0.4923  0.1261
12246TIP3   OH258152   2.615   2.408   3.024 -0.8472 -1.0163 -0.4766
12246TIP3    H158153   2.590   2.422   2.933  0.7149 -0.5677 -0.8649
12246TIP3    H258154   2.645   2.317   3.027 -0.7532 -0.9852 -0.4518
12247TIP3   OH258155   0.985   0.159  17.054 -0.2030 -0.2548 -0.1023
12247TIP3    H158156   0.957   0.189  17.140 -0.4062  0.1982 -0.3220
12247TIP3    H258157   1.045   0.228  17.023 -1.4447  0.4443 -1.0338
12248TIP3   OH258158   5.216   2.232  12.127 -0.0689 -0.4394  0.4898
12248TIP3    H158159   5.215   2.268  12.215 -0.2996 -1.0186  0.7327
12248TIP3    H258160   5.125   2.210  12.109 -0.3985  1.7129 -0.7734
12249TIP3   OH258161   4.890   2.013   5.956 -0.0895  0.6382  0.0826
12249TIP3    H158162   4.802   2.039   5.929 -0.3347  0.1766  0.4114
12249TIP3    H258163   4.876   1.937   6.012  0.6039 -0.4015 -1.0941
12250TIP3   OH258164   6.621   4.722  11.746  0.5621  0.3856  0.8108
12250TIP3    H158165   6.629   4.675  11.829  0.4361  0.5743  0.9288
12250TIP3    H258166   6.705   4.765  11.735  0.6906  0.1047  0.6853
12251TIP3   OH258167   2.535   4.145  16.492  0.3658  0.0492  0.3118
12251TIP3    H158168   2.462   4.108  16.542 -0.0079  1.0693  0.5522
12251TIP3    H258169   2.543   4.234  16.525  1.7099 -0.0301  0.2669
12252TIP3   OH258170   4.810   4.226  12.006 -0.0231  0.8339 -0.1178
12252TIP3    H158171   4.739   4.172  12.041  0.6877  1.0278  1.7552
12252TIP3    H258172   4.768   4.279  11.938 -1.2559 -0.3169 -0.2996
12253TIP3   OH258173   0.180   0.792   2.458 -0.2879  0.7409  0.5790
12253TIP3    H158174   0.258   0.845   2.444 -0.2163  0.2240 -1.1685
12253TIP3    H258175   0.208   0.723   2.518  0.5898  0.5568 -0.0336
12254TIP3   OH258176   3.202   1.388   2.565 -0.2569 -0.0292  0.1816
12254TIP3    H158177   3.145   1.425   2.632  1.0023  1.8502  0.2872
12254TIP3    H258178   3.147   1.381   2.487 -0.7365  1.4154  0.3691
12255TIP3   OH258179   6.328   4.164  16.592  0.3678 -0.3973  0.0526
12255TIP3    H158180   6.409   4.181  16.545  0.5235 -0.0113  0.4546
12255TIP3    H258181   6.337   4.074  16.625  0.3354 -0.6025 -0.4861
12256TIP3   OH258182   1.300   6.091  12.224 -0.0637 -0.4304  0.0245
12256TIP3    H158183   1.293   6.114  12.131 -0.5188 -0.2750  0.0969
12256TIP3    H258184   1.242   6.152  12.269  0.9581  0.1986  0.5365
12257TIP3   OH258185   1.586   4.825   3.060  0.2580  1.0129 -0.3132
12257TIP3    H158186   1.541   4.782   3.134 -0.1979 -1.2653 -1.8047
12257TIP3    H258187   1.587   4.758   2.991  1.5808  2.7126 -2.0353
12258TIP3   OH258188   5.477   4.297  16.961  0.6866  0.5288  0.0147
12258TIP3    H158189   5.417   4.285  16.887 -0.8756 -0.2850  1.3387
12258TIP3    H258190   5.496   4.208  16.990  0.3344  0.8533  1.2919
12259TIP3   OH258191   2.769   2.195   0.905 -0.4178 -0.3435  0.5426
12259TIP3    H158192   2.696   2.135   0.888  1.0264 -2.0264 -0.0120
12259TIP3    H258193   2.753   2.270   0.847 -0.6049 -1.6629 -1.1706
12260TIP3   OH258194   0.941   3.298   0.339  0.1281  1.0623 -0.2659
12260TIP3    H158195   0.942   3.283   0.244  1.4542 -0.7328 -0.0313
12260TIP3    H258196   1.031   3.285   0.366 -0.5975 -0.7693  1.5331
12261TIP3   OH258197   2.415   3.122  13.213 -0.0051  0.0736 -0.0456
12261TIP3    H158198   2.442   3.192  13.273 -1.3978  1.4886 -0.9656
12261TIP3    H258199   2.496   3.082  13.183  0.8270  1.2237  0.6175
12262TIP3   OH258200   5.239   6.616   6.774 -0.0657 -1.6179  0.0375
12262TIP3    H158201   5.226   6.692   6.830  1.5040 -0.7150 -0.7765
12262TIP3    H258202   5.150   6.594   6.743 -0.5169  0.0334  0.0783
12263TIP3   OH258203   6.475   1.499   1.331  0.2809 -0.4327  0.1420
12263TIP3    H158204   6.383   1.475   1.341  0.5031 -1.6234 -0.4879
12263TIP3    H258205   6.504   1.522   1.419 -0.6682  0.1797  0.3068
12264TIP3   OH258206   5.868   5.420  12.802 -0.0583  0.4789  0.0757
12264TIP3    H158207   5.855   5.410  12.708 -1.3492  0.7884  0.1945
12264TIP3    H258208   5.950   5.467  12.810  0.4916 -0.2839 -0.8626
12265TIP3   OH258209   4.825   6.244  13.426  0.0039 -0.7072 -0.1579
12265TIP3    H158210   4.748   6.232  13.370 -0.7765 -0.5114  0.8308
12265TIP3    H258211   4.836   6.339  13.431 -2.3105 -0.4424  3.0164
12266TIP3   OH258212   3.770   1.911   6.158  0.0442  0.0075  0.8658
12266TIP3    H158213   3.850   1.884   6.203 -0.0182  2.4063  2.6344
12266TIP3    H258214   3.783   1.883   6.067  1.9194 -1.5618  1.5443
12267TIP3   OH258215   6.191   3.182  15.642 -0.2178  0.1095  0.4867
12267TIP3    H158216   6.155   3.096  15.666 -0.2891  0.0520  0.1734
12267TIP3    H258217   6.286   3.171  15.648 -0.2435  0.3663  1.6864
12268TIP3   OH258218   1.702   6.457   3.036 -0.0524  0.4944  0.3165
12268TIP3    H158219   1.736   6.396   3.102  0.6650 -1.3183 -1.6172
12268TIP3    H258220   1.697   6.405   2.956 -0.0728  2.8310 -1.2856
12269TIP3   OH258221   2.210   6.354   1.303  0.5835  0.7544  0.2286
12269TIP3    H158222   2.169   6.334   1.387 -0.1477 -0.1786 -0.3245
12269TIP3    H258223   2.292   6.396   1.326  0.8633 -0.3756  1.4368
12270TIP3   OH258224   5.728   1.892   5.900  0.2918  0.3220 -0.1066
12270TIP3    H158225   5.680   1.854   5.828 -1.0020 -0.9995  1.3892
12270TIP3    H258226   5.759   1.817   5.951  1.9457  1.1977  0.2578
12271TIP3   OH258227   2.890   5.019   3.942 -1.0309 -0.3319  0.2715
12271TIP3    H158228   2.860   5.099   3.898 -0.6934  0.3882  1.3116
12271TIP3    H258229   2.966   4.991   3.891 -0.1605  0.9384  0.8037
12272TIP3   OH258230   4.730   5.284   1.095  0.1615 -0.0892  0.7459
12272TIP3    H158231   4.818   5.252   1.118  0.9299 -0.0760 -1.8630
12272TIP3    H258232   4.747   5.362   1.043 -1.3999 -0.2714 -0.0692
12273TIP3   OH258233   5.500   5.902   4.092  0.1409 -0.2072  0.0941
12273TIP3    H158234   5.486   5.811   4.116  1.2321 -0.0868  1.3285
12273TIP3    H258235   5.450   5.952   4.157  1.0356  0.0879  0.5771
12274TIP3   OH258236   4.270   1.243  13.080  0.0675  0.0682  0.0336
12274TIP3    H158237   4.355   1.216  13.045  0.2421  1.0954 -0.3849
12274TIP3    H258238   4.207   1.184  13.039  0.6053 -0.9996  0.6900
12275TIP3   OH258239   1.089   4.535   0.587  0.1882 -0.3793 -0.0865
12275TIP3    H158240   1.170   4.584   0.597 -0.3743  0.4169  0.7010
12275TIP3    H258241   1.114   4.443   0.600  0.6615  0.0005  2.0955
12276TIP3   OH258242   2.719   2.068   0.348  0.0658  0.1670  0.2232
12276TIP3    H158243   2.735   2.141   0.289 -1.3940  1.3495  1.2097
12276TIP3    H258244   2.681   2.108   0.426  0.8006 -1.4684  1.4971
12277TIP3   OH258245   4.554   0.188   3.680 -0.1501 -0.2724  0.2027
12277TIP3    H158246   4.540   0.098   3.649  1.7913 -0.5627  0.0673
12277TIP3    H258247   4.525   0.243   3.607  1.5315 -0.8788 -0.9760
12278TIP3   OH258248   3.035   3.057   4.665 -0.3460  0.1736 -0.0085
12278TIP3    H158249   2.982   2.987   4.702 -1.9038  2.4970  2.5369
12278TIP3    H258250   2.971   3.114   4.620  0.0780  2.2527  1.8439
12279TIP3   OH258251   4.630   4.870   1.671  0.2916 -0.0820  0.3066
12279TIP3    H158252   4.569   4.835   1.736  0.2520  0.4196  0.5483
12279TIP3    H258253   4.687   4.929   1.720 -0.1161  0.7668 -0.1957
12280TIP3   OH258254   2.100   4.497   2.081  0.2938 -0.1099 -0.0807
12280TIP3    H158255   2.018   4.446   2.084 -0.7948  1.5500 -0.1065
12280TIP3    H258256   2.139   4.474   1.997 -0.6079 -0.2917 -0.4644
12281TIP3   OH258257   2.156   5.059  13.726  0.0561 -0.0859  0.1258
12281TIP3    H158258   2.163   5.137  13.672  0.6220  0.1992  0.5994
12281TIP3    H258259   2.098   5.085  13.798 -3.4346 -1.4129 -1.9676
12282TIP3   OH258260   6.248   2.843  16.551  0.5467  0.1908 -0.2193
12282TIP3    H158261   6.325   2.788  16.567  0.3708 -0.1085 -0.3837
12282TIP3    H258262   6.248   2.856  16.456  0.9586  1.0298 -0.1131
12283TIP3   OH258263   0.578   2.175  16.935 -0.2685 -0.7766  0.0197
12283TIP3    H158264   0.670   2.191  16.955 -0.2432  0.3636 -0.8673
12283TIP3    H258265   0.565   2.082  16.954  1.5803 -1.4560 -1.6188
12284TIP3   OH258266   5.805   4.042  11.966  0.3616 -0.3709  0.4057
12284TIP3    H158267   5.831   3.971  11.908 -0.4907 -0.8140  0.5686
12284TIP3    H258268   5.712   4.056  11.948  0.5650  0.8663  0.2020
12285TIP3   OH258269   5.526   3.668   2.184  0.2507 -0.3220 -0.1526
12285TIP3    H158270   5.524   3.617   2.103  1.3699 -2.0196  0.8325
12285TIP3    H258271   5.518   3.603   2.253  1.4345  0.8671  1.1496
12286TIP3   OH258272   1.478   1.803   4.207 -0.4308  0.0078 -0.1041
12286TIP3    H158273   1.469   1.766   4.119  1.0072  1.6048 -0.9941
12286TIP3    H258274   1.423   1.881   4.206 -0.0498  0.2832  0.2579
12287TIP3   OH258275   3.739   5.429  17.294 -0.0769  0.1761 -0.8532
12287TIP3    H158276   3.710   5.494  17.358  0.9130 -0.2775  0.0837
12287TIP3    H258277   3.660   5.409  17.243 -1.6002 -1.3731  1.8887
12288TIP3   OH258278   2.961   4.123   2.386 -0.3190  0.3871 -0.2408
12288TIP3    H158279   3.012   4.191   2.341  0.1682 -0.1923 -0.5828
12288TIP3    H258280   2.889   4.103   2.326 -0.8558  1.0615  0.1540
12289TIP3   OH258281   2.948   3.502  15.769 -0.1562  0.1524  0.2478
12289TIP3    H158282   2.963   3.596  15.756  0.5101  0.1266  0.7252
12289TIP3    H258283   3.035   3.462  15.756 -0.3683 -0.3547  0.3597
12290TIP3   OH258284   5.253   0.297  16.382  0.0587 -0.0565 -0.1219
12290TIP3    H158285   5.339   0.288  16.342  0.8266  1.8967  0.9381
12290TIP3    H258286   5.203   0.350  16.319 -0.7586 -2.0064 -1.1985
12291TIP3   OH258287   5.269   5.483   0.407  0.3454 -0.5361  0.0987
12291TIP3    H158288   5.248   5.417   0.473 -0.2815  0.6326  1.1357
12291TIP3    H258289   5.364   5.493   0.412  0.2794 -0.2718  1.0522
12292TIP3   OH258290   4.552   4.620  11.713 -0.5981  0.0776 -0.5964
12292TIP3    H158291   4.493   4.694  11.702 -2.3176 -1.2449 -0.7179
12292TIP3    H258292   4.498   4.553  11.755  0.9348 -1.0799 -0.3991
12293TIP3   OH258293   6.275   0.613  11.033  0.2219  1.2439 -0.8022
12293TIP3    H158294   6.336   0.540  11.030  0.7222  1.6228 -0.2066
12293TIP3    H258295   6.188   0.573  11.041  0.6123  0.6972  1.4013
12294TIP3   OH258296   4.495   0.576  12.958 -0.4388 -0.2769  0.5029
12294TIP3    H158297   4.487   0.488  12.920 -0.0061 -0.3120  0.4896
12294TIP3    H258298   4.404   0.603  12.975 -0.5420 -1.1425  1.4470
12295TIP3   OH258299   2.098   1.945  13.810 -0.0443 -0.0247  0.0894
12295TIP3    H158300   2.176   1.981  13.853 -1.0151  2.4261 -0.0229
12295TIP3    H258301   2.130   1.913  13.726  0.9867  0.0877  0.4250
12296TIP3   OH258302   1.359   1.428  17.188  0.2548 -0.1400 -0.2232
12296TIP3    H158303   1.431   1.490  17.196 -0.5521  0.6954  0.8470
12296TIP3    H258304   1.292   1.461  17.248 -0.0635 -2.2514  0.6875
12297TIP3   OH258305   6.544   0.389   3.489 -0.4615 -0.3541 -0.0251
12297TIP3    H158306   6.469   0.340   3.522 -0.6167 -0.2801 -0.2610
12297TIP3    H258307   6.515   0.421   3.403 -0.8659  1.2847  0.6810
12298TIP3   OH258308   2.418   0.730  16.392  0.4199  0.0986 -0.1044
12298TIP3    H158309   2.492   0.703  16.338 -0.3103 -3.0522  0.2685
12298TIP3    H258310   2.341   0.707  16.341 -0.3480  1.5817  0.3116
12299TIP3   OH258311   1.380   6.738   3.762 -0.1534  1.0791 -0.0630
12299TIP3    H158312   1.416   6.670   3.819 -1.5693 -0.0167 -0.3966
12299TIP3    H258313   1.330   6.795   3.820 -3.9658 -1.6110 -0.3157
12300TIP3   OH258314   3.736   4.518   1.440  0.0281 -0.5203  0.3939
12300TIP3    H158315   3.685   4.503   1.519  0.7909 -0.5005  0.8990
12300TIP3    H258316   3.789   4.438   1.431  0.3312 -0.2991  0.2030
12301TIP3   OH258317   0.312   3.523  14.879 -0.0377  0.2422 -0.3233
12301TIP3    H158318   0.404   3.540  14.859  0.9945  0.8605  3.9353
12301TIP3    H258319   0.298   3.432  14.855  1.1144  0.5945 -2.5767
12302TIP3   OH258320   5.677   0.791   3.055 -0.1308  0.3651  0.2355
12302TIP3    H158321   5.770   0.793   3.033  0.2145 -2.7375  0.9747
12302TIP3    H258322   5.674   0.816   3.148 -0.1735  1.4039 -0.0360
12303TIP3   OH258323   4.532   1.725   1.216  0.1396  0.0799  0.1789
12303TIP3    H158324   4.447   1.681   1.204  0.3863 -0.6012  0.8640
12303TIP3    H258325   4.582   1.665   1.271  1.1054  0.4379 -0.2995
12304TIP3   OH258326   3.106   4.183  16.691  0.5675  0.1289 -0.0044
12304TIP3    H158327   3.056   4.150  16.766  0.8156 -0.1180  0.0568
12304TIP3    H258328   3.123   4.275  16.712 -1.8748  0.9227 -1.0919
12305TIP3   OH258329   4.341   0.670  14.480 -0.1141  0.4379  0.3592
12305TIP3    H158330   4.400   0.617  14.534  2.1106  1.0438 -1.3320
12305TIP3    H258331   4.334   0.622  14.398 -1.9197  0.4787  0.4433
12306TIP3   OH258332   2.642   3.346   1.810  0.0466  0.6465  0.5750
12306TIP3    H158333   2.596   3.275   1.765  1.7304 -1.7719  2.3864
12306TIP3    H258334   2.726   3.353   1.765 -0.3421  2.0129  0.0087
12307TIP3   OH258335   4.196   2.907   5.638  0.0494 -0.1530 -0.2022
12307TIP3    H158336   4.155   2.950   5.563 -1.7982 -1.6394 -0.1255
12307TIP3    H258337   4.209   2.816   5.610  1.8033 -0.1243  0.3938
12308TIP3   OH258338   0.207   1.288   5.886  0.5398  0.1394 -0.3350
12308TIP3    H158339   0.251   1.367   5.853 -0.3961  0.5359 -0.6567
12308TIP3    H258340   0.116   1.314   5.897  0.4198 -0.6111  0.5467
12309TIP3   OH258341   2.052   3.529  16.090 -0.5531 -0.1977  0.7746
12309TIP3    H158342   2.127   3.556  16.143 -0.5831  0.2553  0.5879
12309TIP3    H258343   1.993   3.485  16.152 -0.8176  0.7676  1.2183
12310TIP3   OH258344   3.864   0.354  13.171 -0.4029 -0.2867  0.0123
12310TIP3    H158345   3.870   0.448  13.183 -2.5434  0.1033 -1.4890
12310TIP3    H258346   3.798   0.342  13.103  0.6428 -2.8329 -0.6882
12311TIP3   OH258347   2.215   5.674   2.644  0.3170  0.2492  0.2096
12311TIP3    H158348   2.174   5.750   2.604 -1.0150 -0.4606  0.1779
12311TIP3    H258349   2.143   5.627   2.687  1.0860 -1.0328  0.1446
12312TIP3   OH258350   2.297   4.802  17.278 -0.0667 -0.3868 -0.0873
12312TIP3    H158351   2.387   4.780  17.301 -0.3721 -0.4567  1.0908
12312TIP3    H258352   2.284   4.761  17.192  0.9891 -0.4352 -0.2401
12313TIP3   OH258353   0.567   1.275   3.961 -0.3838  0.2386 -0.5838
12313TIP3    H158354   0.513   1.346   3.927 -1.5827 -0.2451  0.2520
12313TIP3    H258355   0.579   1.295   4.053  1.4013  0.6419 -0.8608
12314TIP3   OH258356   4.165   6.205  15.214 -0.2357 -0.2039 -0.1529
12314TIP3    H158357   4.201   6.188  15.127 -2.4221 -2.0172 -0.8158
12314TIP3    H258358   4.174   6.300  15.226  2.7805 -0.2962 -1.0404
12315TIP3   OH258359   0.190   3.138  16.497  0.3551 -0.2338  0.3676
12315TIP3    H158360   0.176   3.183  16.580  0.0160  0.9694 -0.3171
12315TIP3    H258361   0.273   3.091  16.508  0.5190  0.2451  1.2418
12316TIP3   OH258362   2.426   2.406  11.798 -0.1488  0.5377 -0.2321
12316TIP3    H158363   2.402   2.478  11.740 -1.7732 -0.7167 -1.2003
12316TIP3    H258364   2.348   2.391  11.852 -0.2458 -1.1475 -0.7826
12317TIP3   OH258365   4.114   6.103   3.230 -0.0333  0.0082  0.1416
12317TIP3    H158366   4.142   6.030   3.284  2.0683 -0.5029 -1.5245
12317TIP3    H258367   4.093   6.173   3.293 -0.2364 -1.3676  1.6720
12318TIP3   OH258368   5.178   6.086   1.944  0.6980 -0.1970 -0.5272
12318TIP3    H158369   5.233   6.053   2.015  0.3186 -3.1048 -1.4499
12318TIP3    H258370   5.210   6.040   1.866 -2.3040 -1.2951 -1.2673
12319TIP3   OH258371   4.328   0.362   3.859 -0.0204 -0.1880  0.0330
12319TIP3    H158372   4.290   0.443   3.824 -1.2176  0.4805  2.6599
12319TIP3    H258373   4.419   0.365   3.831 -0.3232  1.4884 -0.9098
12320TIP3   OH258374   1.551   3.351   4.380  0.4823 -0.2670 -0.2377
12320TIP3    H158375   1.530   3.257   4.383 -0.2425 -0.1624 -1.4122
12320TIP3    H258376   1.637   3.357   4.421  0.2775 -1.3700  0.4024
12321TIP3   OH258377   0.825   6.316  12.223  0.2106  0.9705 -0.1541
12321TIP3    H158378   0.902   6.263  12.205  0.7916  1.6069  0.4083
12321TIP3    H258379   0.756   6.252  12.241  0.9742  0.3862  0.8187
12322TIP3   OH258380   0.933   4.344   2.077  0.6051  0.6464 -0.2600
12322TIP3    H158381   0.943   4.254   2.046  0.4745  0.2936  0.6889
12322TIP3    H258382   1.007   4.391   2.039  1.1068 -0.0328 -0.1440
12323TIP3   OH258383   5.762   3.372  16.558 -0.8387  0.4323  0.1859
12323TIP3    H158384   5.720   3.289  16.579 -2.5624  0.9180 -1.1118
12323TIP3    H258385   5.719   3.436  16.616  0.4406  0.4652  1.1432
12324TIP3   OH258386   2.003   2.606   0.734 -0.4603 -0.1287 -0.2771
12324TIP3    H158387   2.094   2.629   0.715 -0.1883  0.2306  1.3274
12324TIP3    H258388   2.005   2.574   0.824 -1.2187 -4.2062 -1.5003
12325TIP3   OH258389   2.513   5.505   2.211  0.6502  0.1911 -0.0834
12325TIP3    H158390   2.418   5.504   2.198  0.5350 -2.0894  0.4623
12325TIP3    H258391   2.548   5.477   2.126  0.6739 -0.9785  0.2857
12326TIP3   OH258392   1.181   1.191  11.090 -0.2192  0.1478 -0.4250
12326TIP3    H158393   1.226   1.159  11.012  0.2390  1.6170 -0.7869
12326TIP3    H258394   1.136   1.270  11.061  0.2355  0.9157  0.8713
12327TIP3   OH258395   0.149   5.112   5.379 -0.1803 -0.3645  0.3548
12327TIP3    H158396   0.179   5.108   5.288 -0.6145  0.0540  0.1885
12327TIP3    H258397   0.219   5.158   5.425 -0.4046  0.3180  0.0295
12328TIP3   OH258398   1.146   2.962   3.245  0.0014 -0.5449  0.3389
12328TIP3    H158399   1.156   2.990   3.335 -1.6040  1.4755 -0.0420
12328TIP3    H258400   1.122   3.041   3.197  1.7371 -1.3315 -2.0807
12329TIP3   OH258401   0.618   2.944  16.014 -0.0107  0.5577  0.0675
12329TIP3    H158402   0.679   2.878  15.980 -0.1833  0.3573  0.1467
12329TIP3    H258403   0.569   2.973  15.937  0.7742  1.3542 -0.1591
12330TIP3   OH258404   1.454   6.086  13.917  0.0709 -0.7067 -0.5013
12330TIP3    H158405   1.538   6.130  13.926 -0.8627  1.0300  0.3112
12330TIP3    H258406   1.417   6.086  14.005 -2.1133  1.5085 -1.2914
12331TIP3   OH258407   2.837   5.779  12.305  0.2638 -0.2723 -0.5371
12331TIP3    H158408   2.902   5.708  12.311  0.3100 -0.2719 -0.9552
12331TIP3    H258409   2.757   5.741  12.341  0.1828 -0.6751 -1.1241
12332TIP3   OH258410   0.286   0.966  12.671  0.5898 -0.7436  0.4863
12332TIP3    H158411   0.229   1.015  12.611  0.4360 -2.9728 -1.3180
12332TIP3    H258412   0.368   1.015  12.672  0.5762 -0.6079 -1.5561
12333TIP3   OH258413   3.285   3.493   0.460 -0.4071  0.3092  0.7542
12333TIP3    H158414   3.260   3.411   0.501 -0.9853  0.1044  0.0088
12333TIP3    H258415   3.248   3.561   0.517 -2.2317  0.0218 -0.0149
12334TIP3   OH258416   6.630   5.466   4.433  0.4025 -0.0557  0.6322
12334TIP3    H158417   6.574   5.397   4.469  1.3071 -0.4317  1.3303
12334TIP3    H258418   6.588   5.489   4.349 -0.0167 -1.2943  0.4874
12335TIP3   OH258419   0.339   2.246   4.444 -0.6703 -0.8241 -0.1931
12335TIP3    H158420   0.355   2.156   4.415 -1.4815 -0.7323 -0.9844
12335TIP3    H258421   0.330   2.240   4.539  1.4099 -1.2413  0.0133
12336TIP3   OH258422   1.553   2.899  11.919 -0.2566  0.2360  0.0887
12336TIP3    H158423   1.637   2.857  11.898 -1.0615 -0.2759 -2.4309
12336TIP3    H258424   1.574   2.992  11.927  0.4646  0.2125 -1.2506
12337TIP3   OH258425   3.975   0.334   4.585 -0.4171  0.1971  0.0055
12337TIP3    H158426   3.998   0.253   4.631  0.6798  1.1759  1.2517
12337TIP3    H258427   3.904   0.308   4.526 -0.5936 -1.5064  0.8977
12338TIP3   OH258428   2.671   6.754   2.895  0.3194  0.6425 -0.0837
12338TIP3    H158429   2.628   6.681   2.851 -0.0060  0.0551  1.1549
12338TIP3    H258430   2.609   6.826   2.890 -0.6333 -0.0447  1.2255
12339TIP3   OH258431   1.864   1.087  15.143  0.2140  0.1173 -0.6836
12339TIP3    H158432   1.791   1.060  15.199  1.4044 -0.0750  0.8618
12339TIP3    H258433   1.918   1.008  15.133  1.8617  0.9459  0.9233
12340TIP3   OH258434   3.807   3.037  17.330  0.2800  0.1941  0.3919
12340TIP3    H158435   3.796   3.124  17.368 -0.3951  0.1684  0.2699
12340TIP3    H258436   3.723   3.018  17.288  0.3814 -0.5570  0.5014
12341TIP3   OH258437   5.225   1.931   0.786 -0.4558 -0.2428  0.0146
12341TIP3    H158438   5.292   1.880   0.742  0.4534  2.3532 -1.8615
12341TIP3    H258439   5.145   1.913   0.736 -0.1691  0.0258 -0.5560
12342TIP3   OH258440   5.541   5.165   6.184  0.6794  0.0807  0.3687
12342TIP3    H158441   5.495   5.238   6.142 -0.8504  0.0086  1.8310
12342TIP3    H258442   5.564   5.107   6.111  1.1977  1.5890 -0.7376
12343TIP3   OH258443   1.858   6.747  12.248  0.4783 -0.1427 -0.0620
12343TIP3    H158444   1.767   6.762  12.277  0.9489  1.6622  0.6079
12343TIP3    H258445   1.869   6.652  12.254 -0.6474 -0.2121  2.1761
12344TIP3   OH258446   5.172   4.071   3.814 -0.1800 -0.0192 -0.1220
12344TIP3    H158447   5.222   3.995   3.843 -1.1382 -0.3338  0.7756
12344TIP3    H258448   5.222   4.147   3.845 -1.2094 -0.3345  2.5829
12345TIP3   OH258449   4.536   3.054  16.348 -0.4100 -0.7039 -0.3498
12345TIP3    H158450   4.446   3.041  16.378 -0.0755 -0.8130  0.6454
12345TIP3    H258451   4.551   2.983  16.286 -0.4056 -1.8234  0.8963
12346TIP3   OH258452   2.612   6.644   3.832  0.0657  0.2426  0.1586
12346TIP3    H158453   2.652   6.723   3.868  1.1734  0.1124 -0.7130
12346TIP3    H258454   2.619   6.579   3.901  0.8163  0.4046  0.2359
12347TIP3   OH258455   4.024   6.271  14.012  0.6419 -0.1195 -0.1654
12347TIP3    H158456   3.986   6.225  14.087  0.6752 -0.1181 -0.1476
12347TIP3    H258457   4.118   6.255  14.019  0.5360 -1.2804 -0.9667
12348TIP3   OH258458   4.799   5.603  14.177 -0.7646  0.0333  0.4303
12348TIP3    H158459   4.768   5.516  14.199  0.5337 -0.3622  0.7816
12348TIP3    H258460   4.811   5.601  14.082  1.2135 -0.8814  0.6454
12349TIP3   OH258461   3.414   0.634   5.168 -0.0275  0.3293  0.1909
12349TIP3    H158462   3.437   0.640   5.261 -0.4242 -1.8407  0.4730
12349TIP3    H258463   3.319   0.643   5.166 -0.1045 -0.4912  0.0916
12350TIP3   OH258464   2.843   3.380  14.958 -0.4498  0.1791 -0.1270
12350TIP3    H158465   2.782   3.451  14.975 -1.1683  0.1105 -2.1877
12350TIP3    H258466   2.928   3.423  14.946 -0.8634  0.7041 -1.2790
12351TIP3   OH258467   4.516   0.134  12.423  0.2108  0.1702 -0.6046
12351TIP3    H158468   4.498   0.114  12.515  2.5956 -0.0024 -0.1261
12351TIP3    H258469   4.499   0.053  12.377 -1.0318  0.2634 -0.3487
12352TIP3   OH258470   6.096   3.812  13.118  0.8738 -0.2162  0.2832
12352TIP3    H158471   6.089   3.840  13.209 -0.0774  0.0406  0.1342
12352TIP3    H258472   6.074   3.890  13.067 -0.1089 -0.7635 -0.1510
12353TIP3   OH258473   4.367   6.719  10.767 -0.3880  0.1924  0.1716
12353TIP3    H158474   4.401   6.749  10.851  0.9330 -2.6220  0.7617
12353TIP3    H258475   4.412   6.774  10.702 -1.1986  2.1873  1.2195
12354TIP3   OH258476   2.262   5.144   3.379 -0.5706 -0.7244  0.4320
12354TIP3    H158477   2.214   5.196   3.444 -1.5496  0.2828 -1.0306
12354TIP3    H258478   2.213   5.063   3.372 -0.0366 -1.1550  1.4616
12355TIP3   OH258479   6.444   0.959   1.848 -0.0120 -0.5478  0.0449
12355TIP3    H158480   6.508   0.990   1.911 -0.6264 -0.5289  0.6686
12355TIP3    H258481   6.441   1.028   1.781  1.1349 -0.8841 -0.3760
12356TIP3   OH258482   5.365   4.450  12.286 -0.6484  0.1951  0.2410
12356TIP3    H158483   5.396   4.523  12.341  0.8214  0.2164 -0.5477
12356TIP3    H258484   5.329   4.387  12.348 -0.1035  0.7298  1.1291
12357TIP3   OH258485   0.748   0.637  14.539  0.5253  0.3424  0.8626
12357TIP3    H158486   0.739   0.675  14.626  1.4490 -0.1140  1.1661
12357TIP3    H258487   0.819   0.574  14.547 -1.7345 -2.4239  0.6914
12358TIP3   OH258488   3.197   2.042  13.339 -0.4207 -0.2161 -0.4551
12358TIP3    H158489   3.220   2.117  13.285 -0.4530 -0.6312 -1.0566
12358TIP3    H258490   3.269   1.980  13.328  1.0520  0.8556  2.3020
12359TIP3   OH258491   4.696   1.765   2.981 -0.2036 -0.6772 -0.2431
12359TIP3    H158492   4.644   1.801   3.053  0.4237  1.2355 -0.6729
12359TIP3    H258493   4.786   1.771   3.011 -0.0789 -2.0559 -0.3044
12360TIP3   OH258494   0.993   0.726  12.124 -0.2906  0.1464 -0.3512
12360TIP3    H158495   0.947   0.809  12.114  0.4043  0.8044  1.4732
12360TIP3    H258496   1.062   0.744  12.188  0.7930 -1.4833 -0.9790
12361TIP3   OH258497   5.296   1.683   2.544  0.3666  0.0062 -0.3942
12361TIP3    H158498   5.338   1.620   2.484  1.4669  0.4644 -0.1263
12361TIP3    H258499   5.227   1.724   2.491 -1.5752 -2.6104 -0.0978
12362TIP3   OH258500   5.154   1.452   1.044 -0.0247 -0.2699  0.5321
12362TIP3    H158501   5.122   1.536   1.075 -3.4040 -0.5555 -1.6363
12362TIP3    H258502   5.203   1.473   0.964 -0.4449 -0.2730  0.2669
12363TIP3   OH258503   6.267   2.838  13.116  0.1642  0.6130 -0.0289
12363TIP3    H158504   6.341   2.864  13.171  1.5460 -3.7237  0.5091
12363TIP3    H258505   6.300   2.846  13.026  0.7869  0.0103  0.1454
12364TIP3   OH258506   1.761   4.763  11.552  0.0833  0.3046 -0.4492
12364TIP3    H158507   1.809   4.686  11.520 -1.3027 -0.8143  0.0686
12364TIP3    H258508   1.683   4.727  11.593 -1.1171  2.0678 -1.0892
12365TIP3   OH258509   4.748   0.691  15.744  0.4566 -0.2456 -0.7473
12365TIP3    H158510   4.736   0.761  15.681 -2.1597  1.7371  1.6896
12365TIP3    H258511   4.676   0.630  15.726  0.5522 -0.4017 -0.5979
12366TIP3   OH258512   2.826   5.638   0.481  0.5618 -0.1516 -0.3929
12366TIP3    H158513   2.742   5.591   0.475  0.0162  0.5909  0.9576
12366TIP3    H258514   2.881   5.596   0.415  0.0438 -2.5755  0.5964
12367TIP3   OH258515   4.660   0.441  14.917  0.8928 -0.1456 -0.0311
12367TIP3    H158516   4.745   0.448  14.960  0.2701  0.0996  1.1931
12367TIP3    H258517   4.634   0.349  14.930  1.4821 -0.5421 -1.4438
12368TIP3   OH258518   0.960   0.542   2.738  0.2324  0.0575  0.1081
12368TIP3    H158519   0.919   0.526   2.823 -2.0218  0.7897 -0.7718
12368TIP3    H258520   1.034   0.600   2.758  2.1154 -2.7242  1.9819
12369TIP3   OH258521   3.875   5.253   5.250 -0.1352  0.2925  0.3557
12369TIP3    H158522   3.858   5.345   5.267  1.4649  0.5150  0.9430
12369TIP3    H258523   3.850   5.208   5.331  1.2306  0.5349  0.9550
12370TIP3   OH258524   1.587   3.338  12.582 -0.0285 -0.3291  0.1158
12370TIP3    H158525   1.506   3.324  12.631  0.1044  1.6239  0.9824
12370TIP3    H258526   1.559   3.383  12.502  0.3215  2.3018  1.3782
12371TIP3   OH258527   6.229   2.127   2.627  0.4007 -0.7041  0.0560
12371TIP3    H158528   6.286   2.083   2.563 -0.9752 -0.5782 -1.3245
12371TIP3    H258529   6.154   2.068   2.637 -1.5486  1.2097 -1.9269
12372TIP3   OH258530   2.464   2.342  13.463  0.1426 -0.5212  0.3544
12372TIP3    H158531   2.538   2.292  13.426 -0.9178 -1.5948 -0.3774
12372TIP3    H258532   2.435   2.398  13.391 -0.4842 -0.9431  0.2768
12373TIP3   OH258533   6.334   1.105   2.565 -0.4863 -0.4276  0.5618
12373TIP3    H158534   6.395   1.179   2.570  0.1170 -0.9848  2.2060
12373TIP3    H258535   6.383   1.036   2.521 -1.2876  0.3094 -1.6226
12374TIP3   OH258536   2.823   5.409  12.597  0.7785 -0.4389  0.2691
12374TIP3    H158537   2.790   5.356  12.524  0.4837 -1.7043  1.2947
12374TIP3    H258538   2.753   5.472  12.614  0.0836 -1.2689  0.5776
12375TIP3   OH258539   5.725   2.872   4.941  0.0961 -0.2690  0.0131
12375TIP3    H158540   5.761   2.957   4.918 -1.0163 -0.1867 -1.5505
12375TIP3    H258541   5.638   2.871   4.902  1.0084 -3.1049 -2.3511
12376TIP3   OH258542   3.149   4.928  13.736 -0.4966  0.2633 -0.2117
12376TIP3    H158543   3.177   4.998  13.795  0.1526 -0.2072  0.0460
12376TIP3    H258544   3.181   4.956  13.650 -2.6818  1.6646 -0.6594
12377TIP3   OH258545   0.261   0.348   5.120  0.0183 -0.1498 -0.0164
12377TIP3    H158546   0.283   0.394   5.201  0.4748 -1.4408  0.6116
12377TIP3    H258547   0.172   0.316   5.134 -0.6782  1.3034 -0.8343
12378TIP3   OH258548   4.583   4.375   2.643 -0.5821 -0.4151 -0.3674
12378TIP3    H158549   4.672   4.346   2.663 -1.1768 -2.5306 -0.5787
12378TIP3    H258550   4.595   4.459   2.599  1.2773 -0.4361  0.0159
12379TIP3   OH258551   0.734   4.307  15.762  0.1537 -0.1937 -0.2834
12379TIP3    H158552   0.828   4.307  15.781 -0.1539 -0.1348  1.4696
12379TIP3    H258553   0.717   4.220  15.725  0.4743 -1.3403  2.0614
12380TIP3   OH258554   2.635   0.054  16.434 -0.6888 -0.6812  0.0341
12380TIP3    H158555   2.667   0.061  16.344 -0.2203 -0.4085  0.2162
12380TIP3    H258556   2.673  -0.028  16.466  1.0612  0.3428  0.7141
12381TIP3   OH258557   6.082   3.687   6.685 -0.5577 -0.0535  0.0201
12381TIP3    H158558   6.028   3.747   6.737  0.4107  0.3319  0.6111
12381TIP3    H258559   6.040   3.687   6.599 -1.2286  0.6023  0.3283
12382TIP3   OH258560   2.670   4.576   5.844  0.0379  0.6806 -0.3534
12382TIP3    H158561   2.741   4.641   5.852  0.2737  0.4525 -0.5800
12382TIP3    H258562   2.621   4.603   5.767  1.3713 -0.5762 -1.7241
12383TIP3   OH258563   6.186   1.309   3.066  0.3718 -0.5564  0.4600
12383TIP3    H158564   6.266   1.283   3.020  0.1199  1.4332 -1.2374
12383TIP3    H258565   6.121   1.320   2.996 -0.4231  1.1524  1.4043
12384TIP3   OH258566   0.121   5.984  11.649  0.0244 -0.6464 -0.2684
12384TIP3    H158567   0.116   5.991  11.553 -2.5535 -0.1827 -0.1856
12384TIP3    H258568   0.113   6.075  11.679  2.4330 -0.5979  0.4296
12385TIP3   OH258569   0.794   6.510  13.719 -0.0115 -0.1380  0.6663
12385TIP3    H158570   0.764   6.431  13.674 -1.4812  1.1866 -0.8024
12385TIP3    H258571   0.850   6.554  13.655 -1.4169  1.3320  0.3749
12386TIP3   OH258572   3.199   1.221   2.991  0.3931 -0.1766 -0.0575
12386TIP3    H158573   3.105   1.241   2.986  0.0623 -1.9301 -1.5891
12386TIP3    H258574   3.240   1.285   2.933  0.6231  2.6335  2.8802
12387TIP3   OH258575   2.990   3.215   0.416 -0.0360  0.0124  0.3407
12387TIP3    H158576   2.909   3.195   0.464 -0.4743  2.9467  0.9793
12387TIP3    H258577   3.050   3.245   0.484  1.1061 -0.6504 -0.3509
12388TIP3   OH258578   1.228   2.061   6.149  0.2177  0.0702  0.0778
12388TIP3    H158579   1.152   2.019   6.188 -0.5627  1.7932  0.4926
12388TIP3    H258580   1.260   2.121   6.216 -0.1869  1.9175 -1.2916
12389TIP3   OH258581   6.170   3.534   3.476 -0.3440  0.1660 -0.0008
12389TIP3    H158582   6.168   3.445   3.510 -0.7090 -0.4333 -1.5299
12389TIP3    H258583   6.263   3.559   3.481 -0.2823 -0.1809  0.7150
12390TIP3   OH258584   0.024   2.277   1.642 -0.0564  0.6263  0.0219
12390TIP3    H158585  -0.028   2.343   1.686 -0.3802  0.5010 -0.1675
12390TIP3    H258586   0.114   2.307   1.650 -0.3007  1.8072 -1.2487
12391TIP3   OH258587   3.426   1.840   4.660 -0.2327  0.3005  0.3143
12391TIP3    H158588   3.468   1.759   4.688  0.0487  0.5284  0.5626
12391TIP3    H258589   3.374   1.868   4.736 -0.1523  0.4654  0.3100
12392TIP3   OH258590   1.162   4.293  12.875  0.4227 -0.0706 -0.5879
12392TIP3    H158591   1.110   4.365  12.839  0.3862 -1.0490 -2.6197
12392TIP3    H258592   1.179   4.319  12.965 -1.6745  1.3448 -0.5209
12393TIP3   OH258593   0.795   6.203  13.588  0.5134 -0.0002  0.2489
12393TIP3    H158594   0.857   6.261  13.544  1.0977  1.0873  2.3764
12393TIP3    H258595   0.850   6.137  13.631 -0.1141 -1.9582 -1.7520
12394TIP3   OH258596   2.509   6.571   2.732 -0.1252 -0.2745  0.2417
12394TIP3    H158597   2.414   6.563   2.720 -0.2608  0.1936  0.9010
12394TIP3    H258598   2.547   6.546   2.648 -0.8301 -0.5593  0.0014
12395TIP3   OH258599   4.398   6.438  15.812  0.1212  0.3063 -0.4827
12395TIP3    H158600   4.314   6.448  15.858  0.7198  0.2005  0.6840
12395TIP3    H258601   4.438   6.361  15.852  1.2095  0.9468 -0.2936
12396TIP3   OH258602   0.561   3.003  16.261  0.2599  0.9086  0.2722
12396TIP3    H158603   0.508   3.080  16.243  1.1916  1.3767 -0.5594
12396TIP3    H258604   0.591   2.973  16.176  0.3222 -0.0862  0.6249
12397TIP3   OH258605   1.350   3.050  12.202 -0.2156 -0.4408  0.1918
12397TIP3    H158606   1.282   3.039  12.268 -2.4523 -0.5465 -1.9907
12397TIP3    H258607   1.397   2.966  12.201  1.3231  0.2542  3.0075
12398TIP3   OH258608   3.213   5.425  13.923  0.8657 -0.1098 -0.4675
12398TIP3    H158609   3.265   5.446  13.845  1.0628 -1.8548 -0.8635
12398TIP3    H258610   3.173   5.508  13.948  1.7473  0.7435 -1.7223
12399TIP3   OH258611   2.546   2.616   0.103  0.4777  0.2409  0.2833
12399TIP3    H158612   2.500   2.575   0.029 -0.2844  2.0977 -0.3400
12399TIP3    H258613   2.611   2.673   0.063 -0.0124  1.3590  1.0056
12400TIP3   OH258614   6.499   1.543  14.406 -0.0232 -0.0808  0.1118
12400TIP3    H158615   6.564   1.473  14.407 -1.5081 -1.5088  0.3798
12400TIP3    H258616   6.544   1.618  14.446  0.0352 -2.3834  5.0834
12401TIP3   OH258617   1.837   2.176   1.875  0.1793  0.5393 -0.7138
12401TIP3    H158618   1.869   2.266   1.869  0.3669  0.4457 -1.1558
12401TIP3    H258619   1.744   2.184   1.894  0.3183  0.8206 -0.1089
12402TIP3   OH258620   6.241   5.862   5.709  0.0371 -0.2382  0.2410
12402TIP3    H158621   6.162   5.819   5.678  0.5314 -1.4823  0.6473
12402TIP3    H258622   6.239   5.849   5.804 -0.0847  1.1540  0.4524
12403TIP3   OH258623   0.148   4.266  15.971 -0.0693 -0.3083 -0.7409
12403TIP3    H158624   0.221   4.326  15.953 -0.1131  0.2212  0.7116
12403TIP3    H258625   0.074   4.324  15.988  0.0280 -0.6995  1.2776
12404TIP3   OH258626   5.377   6.664  12.277  0.0204 -0.5673 -0.1288
12404TIP3    H158627   5.451   6.714  12.311  1.4536 -2.2142 -0.7207
12404TIP3    H258628   5.364   6.594  12.340  0.5549 -1.6931 -1.2405
12405TIP3   OH258629   0.619   1.922   0.783 -0.1569 -0.4844 -0.4810
12405TIP3    H158630   0.622   1.970   0.866 -0.2057 -0.2585 -0.6085
12405TIP3    H258631   0.697   1.867   0.784  0.2180  0.0316 -0.5912
12406TIP3   OH258632   3.481   4.601   3.410  0.8427 -0.6373 -0.5228
12406TIP3    H158633   3.525   4.658   3.347  0.0589 -1.2622 -1.6734
12406TIP3    H258634   3.411   4.656   3.447  0.4416 -0.6699 -1.2161
12407TIP3   OH258635   5.608   5.704   2.231 -0.2649  0.1091 -0.0197
12407TIP3    H158636   5.664   5.782   2.232 -0.7772  0.4800  0.7094
12407TIP3    H258637   5.618   5.668   2.143 -0.2771  1.1881 -0.4743
12408TIP3   OH258638   2.572   3.692  15.643  0.0867 -0.0761 -0.0768
12408TIP3    H158639   2.630   3.714  15.716  0.4966 -0.9964 -0.1172
12408TIP3    H258640   2.578   3.597  15.635 -1.4647 -0.1955 -0.0659
12409TIP3   OH258641   5.224   4.756   5.975  0.0218  0.4116 -0.5246
12409TIP3    H158642   5.141   4.716   6.001 -0.3915  0.7859 -1.2410
12409TIP3    H258643   5.272   4.686   5.929 -0.3979  0.5210 -1.1437
12410TIP3   OH258644   5.137   4.783  16.994  0.0803 -0.6362  0.0877
12410TIP3    H158645   5.049   4.759  17.022  0.8592 -1.8782  1.5672
12410TIP3    H258646   5.128   4.800  16.900 -1.7400 -0.6500  0.2217
12411TIP3   OH258647   3.238   0.631   3.312  0.0650  0.1378  0.0579
12411TIP3    H158648   3.227   0.559   3.374 -2.2193  0.9132  0.6741
12411TIP3    H258649   3.172   0.614   3.244 -0.9825  1.9011  0.5516
12412TIP3   OH258650   6.320   3.823   2.812 -0.1549  0.6387  0.3367
12412TIP3    H158651   6.391   3.763   2.834  0.1879  1.4417  1.5492
12412TIP3    H258652   6.287   3.792   2.728 -0.1106 -1.3468  0.9894
12413TIP3   OH258653   2.623   5.563   4.893  0.2048  0.5009 -0.0893
12413TIP3    H158654   2.695   5.618   4.923  0.5656  1.1223 -2.0010
12413TIP3    H258655   2.557   5.572   4.962  1.4206  0.9608  1.0567
12414TIP3   OH258656   5.404   0.518  11.072  0.2209 -0.2255  0.3531
12414TIP3    H158657   5.478   0.475  11.030 -0.0754 -0.2864 -0.1147
12414TIP3    H258658   5.334   0.516  11.007  0.2407  1.0844  0.2482
12415TIP3   OH258659   3.825   2.090  16.239  0.3327  0.1031  0.1020
12415TIP3    H158660   3.847   1.998  16.223  0.7428  0.4905 -1.8736
12415TIP3    H258661   3.859   2.136  16.162 -0.3631  1.8416  0.7897
12416TIP3   OH258662   6.526   5.924   0.044  0.4163  0.7788  0.0478
12416TIP3    H158663   6.522   5.829   0.028  0.5075  0.4359  1.8597
12416TIP3    H258664   6.468   5.961  -0.022 -0.5744 -0.6513  0.0648
12417TIP3   OH258665   5.652   3.417   4.429 -0.0508  0.3919  0.6731
12417TIP3    H158666   5.747   3.418   4.416  0.0844  0.8170  1.5642
12417TIP3    H258667   5.642   3.397   4.522 -0.8216  0.6681  0.6539
12418TIP3   OH258668   4.465   2.531  13.980 -0.2023 -0.1111 -0.0927
12418TIP3    H158669   4.559   2.539  13.965 -0.2829 -0.6310 -0.9842
12418TIP3    H258670   4.428   2.517  13.892 -0.9153 -1.6720  0.4061
12419TIP3   OH258671   4.739   3.278  11.402  0.1575  0.2692 -0.1291
12419TIP3    H158672   4.712   3.345  11.340  1.5554  1.5438  0.5458
12419TIP3    H258673   4.774   3.207  11.348  0.0920  0.7648 -0.8381
12420TIP3   OH258674   0.659   0.170  16.207 -0.5062  0.0154  0.8045
12420TIP3    H158675   0.608   0.250  16.195 -0.0444 -0.0718 -2.8538
12420TIP3    H258676   0.616   0.106  16.150  0.0464 -1.9477  2.4663
12421TIP3   OH258677   0.697   5.594   6.156 -0.1342 -0.3113 -0.3186
12421TIP3    H158678   0.757   5.661   6.190 -0.7025  0.3545 -0.6101
12421TIP3    H258679   0.730   5.512   6.193  0.0519  0.2337  0.7626
12422TIP3   OH258680   2.241   1.495   2.948 -0.3150 -0.6273  0.3531
12422TIP3    H158681   2.277   1.407   2.937 -0.7874 -0.9001  0.9293
12422TIP3    H258682   2.153   1.481   2.983 -0.0028  0.0937  1.4890
12423TIP3   OH258683   2.639   4.016  12.818 -0.5576  0.0679  0.3502
12423TIP3    H158684   2.577   4.084  12.790  0.0785  0.1178 -1.0243
12423TIP3    H258685   2.681   4.054  12.895 -0.6656  0.9796 -0.0173
12424TIP3   OH258686   6.461   5.700  16.744 -0.0999 -0.1219 -0.6277
12424TIP3    H158687   6.528   5.754  16.703 -0.8191 -0.5699 -2.4671
12424TIP3    H258688   6.507   5.621  16.770  1.1392  1.5014  2.7646
12425TIP3   OH258689   4.547   2.801  16.766 -0.2410 -0.2399 -0.2531
12425TIP3    H158690   4.612   2.781  16.699  0.3600  0.4104  0.1158
12425TIP3    H258691   4.469   2.828  16.718 -0.2122 -0.9396 -0.6995
12426TIP3   OH258692   5.891   0.218  13.686  0.0701 -0.1048 -0.4717
12426TIP3    H158693   5.903   0.263  13.603  0.9646 -2.4220 -1.7063
12426TIP3    H258694   5.952   0.144  13.682 -3.3291 -3.2759 -0.0184
12427TIP3   OH258695   1.406   6.414  14.480 -0.8588  0.5970  0.1352
12427TIP3    H158696   1.316   6.413  14.448 -0.0178 -0.4976 -2.5186
12427TIP3    H258697   1.444   6.492  14.439 -0.4547  0.7639  0.8170
12428TIP3   OH258698   0.480   3.594   3.322  0.1717  0.1260 -0.7338
12428TIP3    H158699   0.556   3.576   3.377  0.4388 -1.4590 -1.5363
12428TIP3    H258700   0.424   3.518   3.334 -1.5163  1.4647  0.1617
12429TIP3   OH258701   2.337   3.015   3.977 -0.0473 -0.2030 -0.7307
12429TIP3    H158702   2.331   3.063   3.894 -1.3792  1.2886  0.1775
12429TIP3    H258703   2.296   2.930   3.958 -1.1024  0.4272 -1.3940
12430TIP3   OH258704   3.773   4.541   1.054 -0.6252  0.1907 -0.6914
12430TIP3    H158705   3.806   4.605   1.117 -0.4189 -0.5481 -0.0304
12430TIP3    H258706   3.716   4.484   1.105  0.5987 -1.2443 -0.8532
12431TIP3   OH258707   1.445   6.289   2.273  0.1209  0.4837 -0.0155
12431TIP3    H158708   1.367   6.290   2.218  0.0792 -1.5781 -0.0746
12431TIP3    H258709   1.467   6.381   2.286 -0.5643  1.0648 -2.4893
12432TIP3   OH258710   5.877   3.046  16.859  0.4298  0.3963  0.1994
12432TIP3    H158711   5.967   3.050  16.828 -0.0718  0.3258 -1.3916
12432TIP3    H258712   5.870   2.962  16.904  0.9294  0.0005 -0.4542
12433TIP3   OH258713   0.461   0.301   5.425 -0.6998 -0.3617  0.0415
12433TIP3    H158714   0.411   0.248   5.488 -2.2398 -0.0900 -0.9082
12433TIP3    H258715   0.515   0.238   5.378 -3.8645 -1.5634 -2.3789
12434TIP3   OH258716   1.177   4.901  11.113  0.0329  0.2280  0.5115
12434TIP3    H158717   1.260   4.903  11.066 -0.8150  0.6593 -1.0241
12434TIP3    H258718   1.138   4.817  11.090  0.1997 -0.1659  1.5716
12435TIP3   OH258719   2.913   6.387   1.613 -0.0412 -0.0151 -0.3435
12435TIP3    H158720   2.924   6.474   1.576 -0.8782  0.2227 -0.0449
12435TIP3    H258721   2.834   6.393   1.666  0.5827 -0.6107  0.6943
12436TIP3   OH258722   5.338   4.057  16.946  0.4267 -0.0097  0.1620
12436TIP3    H158723   5.283   3.979  16.957  0.6815 -0.0889  0.9352
12436TIP3    H258724   5.302   4.100  16.868  0.1381 -0.7763 -0.1469
12437TIP3   OH258725   0.447   1.006  17.194  0.1123 -0.4361 -0.4078
12437TIP3    H158726   0.440   0.922  17.148 -0.4744 -0.7008  0.1480
12437TIP3    H258727   0.486   0.983  17.279 -0.3369 -0.1906 -0.1336
12438TIP3   OH258728   6.153   0.959  14.162 -0.0221  0.5045 -0.1029
12438TIP3    H158729   6.113   0.902  14.227 -0.4961  1.1226  0.1623
12438TIP3    H258730   6.242   0.925  14.151 -0.4520 -0.5739 -0.3190
12439TIP3   OH258731   2.497   0.072  12.192 -0.5663  0.6625  1.0495
12439TIP3    H158732   2.414   0.083  12.145 -0.7445 -2.6032  0.3926
12439TIP3    H258733   2.484   0.121  12.274 -1.7841  3.0596 -0.4312
12440TIP3   OH258734   4.836   6.553  14.117  0.1227  0.2416 -0.3034
12440TIP3    H158735   4.824   6.544  14.211  0.0923  2.2194 -0.0811
12440TIP3    H258736   4.805   6.470  14.081  0.9011 -0.8803  1.4666
12441TIP3   OH258737   1.930   2.441   4.261 -0.1867  0.0197  0.5052
12441TIP3    H158738   1.891   2.377   4.201  0.6911  0.2075 -0.2894
12441TIP3    H258739   2.023   2.418   4.264  0.2882  1.6492 -0.3550
12442TIP3   OH258740   3.490   3.213   0.696 -0.0933  0.1552  0.0772
12442TIP3    H158741   3.505   3.216   0.602 -0.0732  1.4955  0.1038
12442TIP3    H258742   3.578   3.215   0.734 -0.1329  1.3670  0.1359
12443TIP3   OH258743   5.789   5.430  14.215  0.0658 -0.4165  0.0908
12443TIP3    H158744   5.769   5.339  14.195  0.2010 -0.8333  1.6562
12443TIP3    H258745   5.781   5.435  14.311  0.5616  1.0854  0.0765
12444TIP3   OH258746   0.248   3.637   4.158 -0.1013 -0.2580 -0.1634
12444TIP3    H158747   0.267   3.702   4.226 -1.6880  0.9061 -0.7562
12444TIP3    H258748   0.315   3.652   4.091 -0.0764  0.3328 -0.0090
12445TIP3   OH258749   5.138   0.257   5.706  0.2014 -0.0841  0.4858
12445TIP3    H158750   5.090   0.271   5.788 -0.1111  0.4930  0.2056
12445TIP3    H258751   5.203   0.190   5.728  0.0530 -0.0078  1.1818
12446TIP3   OH258752   5.462   0.822  12.912  0.2656  0.5207  0.1782
12446TIP3    H158753   5.535   0.858  12.963  0.9602 -0.1117 -0.3503
12446TIP3    H258754   5.386   0.872  12.942  0.2518 -1.1470  3.3152
12447TIP3   OH258755   2.795   1.977  15.087 -0.4207 -0.5420  0.1309
12447TIP3    H158756   2.741   1.952  15.012 -1.6578 -0.5241  0.9805
12447TIP3    H258757   2.885   1.962  15.059 -0.7568  0.7853 -1.8473
12448TIP3   OH258758   0.488   0.761  13.092  0.2782  0.5901 -0.3353
12448TIP3    H158759   0.526   0.817  13.159 -0.9209  0.1627  0.7479
12448TIP3    H258760   0.404   0.802  13.070 -0.0936 -0.1476 -0.3537
12449TIP3   OH258761   1.113   2.992  15.061 -0.2108  0.6671  0.3675
12449TIP3    H158762   1.022   3.007  15.038 -0.1348 -2.0599 -2.3655
12449TIP3    H258763   1.162   3.015  14.982  0.7216 -3.6709 -0.5781
12450TIP3   OH258764   0.909   3.341   1.791  0.7380  0.4137 -0.3514
12450TIP3    H158765   0.816   3.352   1.807  0.7868 -0.6337  0.7614
12450TIP3    H258766   0.941   3.289   1.865  2.2557  0.9856 -0.5688
12451TIP3   OH258767   4.972   2.677   2.672 -0.1669 -0.4613  0.0552
12451TIP3    H158768   4.903   2.673   2.738 -1.2047 -1.2058 -1.0172
12451TIP3    H258769   5.037   2.613   2.702  0.9520  1.4507  1.9622
12452TIP3   OH258770   2.034   2.069   2.025 -0.3797 -0.4466  0.4225
12452TIP3    H158771   2.105   2.089   1.964  0.8283 -1.2169  1.5418
12452TIP3    H258772   1.954   2.091   1.976  0.5325 -1.1287 -1.4772
12453TIP3   OH258773   2.763   2.871   3.938  0.0049 -0.2454 -0.4301
12453TIP3    H158774   2.832   2.860   4.003  0.8370 -2.0847 -1.5450
12453TIP3    H258775   2.685   2.833   3.978 -0.2737  1.3627  0.6290
12454TIP3   OH258776   6.061   5.705  14.708  0.3635  0.2214  0.0774
12454TIP3    H158777   6.064   5.682  14.801 -2.3223  1.7243  0.6425
12454TIP3    H258778   6.127   5.774  14.698  0.2430  0.4800  1.0175
12455TIP3   OH258779   0.559   5.190  15.474  0.1527 -0.1674 -0.1872
12455TIP3    H158780   0.593   5.238  15.549 -2.5398  0.0969  0.9532
12455TIP3    H258781   0.635   5.142  15.441  1.4539 -0.3132  2.6963
12456TIP3   OH258782   5.312   2.268   2.910 -0.0448  0.5313  0.1035
12456TIP3    H158783   5.243   2.252   2.975 -0.4826  1.5594 -0.0878
12456TIP3    H258784   5.369   2.333   2.951 -0.3210  1.1848 -0.5233
12457TIP3   OH258785   3.634   0.081  15.837  0.4087  0.0012 -0.4894
12457TIP3    H158786   3.564   0.040  15.887  1.4879 -1.8340 -0.3955
12457TIP3    H258787   3.650   0.164  15.882 -0.0836 -0.6486  0.9351
12458TIP3   OH258788   6.625   2.374   0.147  0.1921  0.4532 -0.8626
12458TIP3    H158789   6.610   2.366   0.053 -3.9799 -0.4242 -0.3156
12458TIP3    H258790   6.602   2.465   0.167 -1.3972 -0.0126 -0.4308
12459TIP3   OH258791   5.350   5.162   4.654 -0.5478 -0.0838 -0.3109
12459TIP3    H158792   5.260   5.193   4.647 -0.4053  0.4310  0.0537
12459TIP3    H258793   5.342   5.067   4.665 -0.9971 -0.1666 -1.2822
12460TIP3   OH258794   5.189   1.001   0.636  0.1168  0.1182  0.8404
12460TIP3    H158795   5.115   1.053   0.667  0.8768  1.8424 -0.1043
12460TIP3    H258796   5.253   1.006   0.706 -0.0851 -0.1427  1.0447
12461TIP3   OH258797   2.126   5.641   1.262 -0.8072  0.4399 -0.5966
12461TIP3    H158798   2.060   5.698   1.300 -1.9169 -1.1537 -0.0155
12461TIP3    H258799   2.166   5.597   1.338  0.0192  0.4529 -1.0201
12462TIP3   OH258800   6.264   3.298   2.523 -0.1406 -0.6476  0.3877
12462TIP3    H158801   6.244   3.256   2.607 -0.0511 -2.4884 -0.4654
12462TIP3    H258802   6.312   3.232   2.474  1.6714  1.1468 -0.3618
12463TIP3   OH258803   2.660   6.398  11.899 -0.6829 -0.2153 -0.0594
12463TIP3    H158804   2.714   6.363  11.970 -0.9359 -1.2117 -0.3353
12463TIP3    H258805   2.721   6.450  11.846 -0.5198  0.6464  0.9450
12464TIP3   OH258806   1.302   0.055  17.160 -0.5572 -0.2268 -0.4978
12464TIP3    H158807   1.343  -0.031  17.156 -0.5553 -0.2925  0.5578
12464TIP3    H258808   1.268   0.070  17.072  0.2603 -0.8936 -0.9408
12465TIP3   OH258809   6.616   3.498   3.109 -0.6324  0.4132 -0.2379
12465TIP3    H158810   6.572   3.415   3.126  0.1405 -0.1862 -1.0590
12465TIP3    H258811   6.576   3.559   3.170 -4.3654  0.5359 -2.4514
12466TIP3   OH258812   4.797   5.513   3.536 -0.4041 -0.5537  0.4990
12466TIP3    H158813   4.733   5.580   3.510  1.7507  0.8570 -1.6600
12466TIP3    H258814   4.745   5.434   3.550 -2.6340  0.5363 -1.0699
12467TIP3   OH258815   2.525   0.922  12.863  0.6392  0.0418  0.1791
12467TIP3    H158816   2.605   0.923  12.916 -0.1290  0.1914  1.3731
12467TIP3    H258817   2.484   0.838  12.883 -0.1166  0.4862  0.5242
12468TIP3   OH258818   4.576   1.693   5.304 -0.1135 -0.3517  0.0759
12468TIP3    H158819   4.632   1.659   5.234 -0.3046 -0.8069  0.1357
12468TIP3    H258820   4.523   1.617   5.331 -1.1016  0.1800 -0.3156
12469TIP3   OH258821   3.108   1.855  15.616 -0.1760 -0.3072  0.1360
12469TIP3    H158822   3.094   1.945  15.585  0.7245  0.2234  1.2147
12469TIP3    H258823   3.022   1.813  15.608 -0.3116  0.2235 -1.6557
12470TIP3   OH258824   5.663   5.838   1.451 -0.5320  0.4225 -0.0313
12470TIP3    H158825   5.726   5.893   1.404  0.6850 -1.1361 -0.2935
12470TIP3    H258826   5.715   5.765   1.485 -2.1251 -0.6797  0.1543
12471TIP3   OH258827   4.144   3.884  17.265 -0.4325 -0.5490 -0.1019
12471TIP3    H158828   4.216   3.938  17.298 -0.2929 -0.9189  0.2089
12471TIP3    H258829   4.065   3.934  17.288 -0.3444 -0.8459  0.9020
12472TIP3   OH258830   2.421   5.284   5.143  0.6541 -0.0268  0.3947
12472TIP3    H158831   2.332   5.260   5.171  0.3438 -0.0007 -0.5160
12472TIP3    H258832   2.479   5.238   5.204  0.0383 -1.4072 -0.0116
12473TIP3   OH258833   1.708   3.334  16.021 -0.1610 -0.1428  0.0819
12473TIP3    H158834   1.722   3.327  16.115 -2.8918 -1.0419  0.5062
12473TIP3    H258835   1.786   3.294  15.982  0.1493 -1.5502  1.9956
12474TIP3   OH258836   1.601   5.840   3.048 -0.4518 -0.4007  0.6167
12474TIP3    H158837   1.671   5.777   3.033  0.6903  1.0331 -0.3873
12474TIP3    H258838   1.627   5.885   3.129  0.5667  1.0556 -0.4705
12475TIP3   OH258839   4.235   3.197  12.757  0.1575 -0.4268  0.0505
12475TIP3    H158840   4.142   3.182  12.739  0.1911 -0.4177 -0.1319
12475TIP3    H258841   4.258   3.271  12.701 -0.1156  0.6064  1.2517
12476TIP3   OH258842   1.346   1.115   5.350 -0.5345  0.0626  0.4659
12476TIP3    H158843   1.264   1.129   5.398 -0.7909 -1.5202  0.5403
12476TIP3    H258844   1.326   1.045   5.288  1.0191 -1.0659  1.1731
12477TIP3   OH258845   2.023   3.776  12.163  0.5160 -0.1756 -0.0826
12477TIP3    H158846   2.050   3.826  12.240  0.7461 -3.2588  2.0041
12477TIP3    H258847   1.937   3.741  12.187  0.6822 -1.3508 -1.1208
12478TIP3   OH258848   5.521   6.649  16.911 -0.0020  0.4574 -0.4501
12478TIP3    H158849   5.489   6.559  16.903  0.6497  0.3298 -2.1110
12478TIP3    H258850   5.456   6.693  16.965 -1.0417 -0.6987 -0.7108
12479TIP3   OH258851   0.811   1.160   5.288  0.6450  0.0555 -0.4807
12479TIP3    H158852   0.810   1.079   5.235  0.7745 -0.6240  0.5284
12479TIP3    H258853   0.873   1.142   5.358  0.8944  1.1549 -0.4106
12480TIP3   OH258854   2.101   2.295   1.101 -0.8094  0.3012 -0.2431
12480TIP3    H158855   2.034   2.284   1.169 -2.6427  0.5206 -1.9387
12480TIP3    H258856   2.097   2.388   1.078 -0.0356  0.2758 -0.5058
12481TIP3   OH258857   1.209   2.381  14.874 -0.0760 -0.0956  0.7031
12481TIP3    H158858   1.155   2.365  14.952 -1.5557  0.8603 -0.0865
12481TIP3    H258859   1.218   2.294  14.834 -0.6223 -0.3557  1.1167
12482TIP3   OH258860   1.946   0.498  14.881 -0.0745 -0.0248 -0.2037
12482TIP3    H158861   2.019   0.485  14.820  0.1849 -1.5299  0.3900
12482TIP3    H258862   1.869   0.470  14.832 -0.2834  1.4759 -0.7977
12483TIP3   OH258863   1.806   1.538  11.921 -0.2988  0.0918  0.3044
12483TIP3    H158864   1.778   1.470  11.982  1.4179 -1.5112 -0.5641
12483TIP3    H258865   1.899   1.550  11.940 -0.1262  0.7638 -0.8769
12484TIP3   OH258866   5.460   3.652   4.418  0.2729  0.0067  0.3594
12484TIP3    H158867   5.500   3.707   4.485  0.5043 -0.9967  1.0664
12484TIP3    H258868   5.414   3.583   4.467 -1.7367  0.6976 -0.4392
12485TIP3   OH258869   4.230   4.823   4.887  0.1876 -0.0904  0.1700
12485TIP3    H158870   4.287   4.766   4.834 -0.3998 -1.9188  1.4135
12485TIP3    H258871   4.162   4.765   4.919 -0.1441  1.2154  1.9566
12486TIP3   OH258872   4.907   3.442  15.918 -0.4911  0.5801  0.2334
12486TIP3    H158873   4.952   3.515  15.959 -0.4854 -0.0322  1.3666
12486TIP3    H258874   4.945   3.435  15.831 -0.9612  2.3323 -0.1497
12487TIP3   OH258875   3.777   1.833   5.914 -0.5055 -0.7362  0.2325
12487TIP3    H158876   3.690   1.857   5.884 -0.0660 -0.1542 -0.6203
12487TIP3    H258877   3.831   1.832   5.835  0.9030  1.8224  1.0068
12488TIP3   OH258878   3.786   0.319  12.885 -0.0452 -0.6528 -0.4747
12488TIP3    H158879   3.851   0.297  12.818 -0.6722 -3.0163 -0.4032
12488TIP3    H258880   3.717   0.254  12.873 -0.7322 -0.3940  1.7214
12489TIP3   OH258881   4.381   0.297   2.423 -0.3730 -0.2768 -1.2821
12489TIP3    H158882   4.475   0.314   2.423 -0.4237  0.3228  1.2892
12489TIP3    H258883   4.374   0.204   2.398  1.0482 -0.8328  0.2039
12490TIP3   OH258884   5.667   4.536  15.186 -0.0169 -0.6048 -0.2769
12490TIP3    H158885   5.626   4.569  15.266  1.0103  0.3189 -0.1132
12490TIP3    H258886   5.760   4.555  15.197  0.2946 -1.4949 -1.2070
12491TIP3   OH258887   5.370   2.841   0.900  0.1676 -0.5988 -0.1387
12491TIP3    H158888   5.432   2.913   0.890 -1.8592  1.7381  2.5736
12491TIP3    H258889   5.296   2.864   0.845 -0.4988 -0.5726  0.7507
12492TIP3   OH258890   3.739   5.578  16.874 -0.4284  0.6640 -0.1982
12492TIP3    H158891   3.778   5.509  16.927 -1.4192  0.9557  0.9438
12492TIP3    H258892   3.704   5.532  16.797 -0.6154 -0.0431  0.2995
12493TIP3   OH258893   3.051   1.163   4.235 -0.5125 -0.1253  0.1759
12493TIP3    H158894   3.066   1.256   4.216  1.9578 -0.4547  0.2118
12493TIP3    H258895   3.083   1.118   4.157 -2.2020 -0.9669 -0.0715
12494TIP3   OH258896   0.150   0.261   2.174 -0.2349 -0.0238 -0.4974
12494TIP3    H158897   0.128   0.347   2.140  1.3233 -0.2766 -2.2775
12494TIP3    H258898   0.095   0.201   2.124 -1.2144 -0.1274  0.6412
12495TIP3   OH258899   1.179   2.372  16.746  0.3609 -0.2130  0.0445
12495TIP3    H158900   1.248   2.326  16.794 -0.7182 -0.3111  1.5975
12495TIP3    H258901   1.166   2.453  16.795 -0.8438 -0.3465 -0.0207
12496TIP3   OH258902   5.364   6.160   2.644  0.1121 -0.6602  0.1624
12496TIP3    H158903   5.274   6.184   2.622 -0.9430 -2.7023  1.8690
12496TIP3    H258904   5.414   6.179   2.565 -2.0077 -0.5449 -1.2293
12497TIP3   OH258905   3.806   2.150  15.965  0.8839 -0.8545  0.2164
12497TIP3    H158906   3.717   2.184  15.970  0.8631 -0.7855 -0.5304
12497TIP3    H258907   3.807   2.096  15.886  1.3349 -1.3734  0.5635
12498TIP3   OH258908   0.116   1.012  17.293  0.1476  0.1004  0.1332
12498TIP3    H158909   0.134   1.042  17.203  0.9264 -0.0917  0.2182
12498TIP3    H258910   0.068   0.930  17.282 -0.0791  0.2603 -0.1010
12499TIP3   OH258911   3.872   4.873   2.721 -0.2929  0.8072  0.3788
12499TIP3    H158912   3.926   4.918   2.786  2.6001 -1.2262 -0.4103
12499TIP3    H258913   3.891   4.919   2.639  0.2050  0.1315  0.1099
12500TIP3   OH258914   1.323   3.943   4.213  0.2359 -0.4343 -0.3216
12500TIP3    H158915   1.354   3.967   4.125  1.0959  0.7735  0.2780
12500TIP3    H258916   1.393   3.889   4.249  1.9621  2.4902  1.1247
12501TIP3   OH258917   5.746   1.805  13.577  0.0987 -0.3910 -0.0322
12501TIP3    H158918   5.785   1.878  13.528 -0.3890 -1.6956 -2.5464
12501TIP3    H258919   5.662   1.839  13.608  0.1809  0.3316 -0.5698
12502TIP3   OH258920   4.797   6.528  14.415  0.2357 -0.6556 -0.3216
12502TIP3    H158921   4.707   6.530  14.447 -0.2979 -3.0592 -1.4570
12502TIP3    H258922   4.851   6.542  14.493 -1.0587 -3.0413  1.1049
12503TIP3   OH258923   4.686   4.938   6.096 -0.4989 -0.1096 -0.1705
12503TIP3    H158924   4.628   4.918   6.170 -0.3014  0.2456  0.0793
12503TIP3    H258925   4.639   4.902   6.020  0.0328 -1.9090  0.2945
12504TIP3   OH258926   2.674   2.410   6.232 -0.1904 -0.0786 -0.0621
12504TIP3    H158927   2.638   2.467   6.163 -0.7340 -0.6824 -0.2952
12504TIP3    H258928   2.653   2.322   6.202  0.1547 -0.3769  0.5673
12505TIP3   OH258929   3.885   4.726   2.043 -0.1289  0.0209  0.0679
12505TIP3    H158930   3.816   4.792   2.047 -0.3708 -0.2243 -0.0109
12505TIP3    H258931   3.844   4.646   2.077 -0.7582 -0.8563 -2.5349
12506TIP3   OH258932   6.004   0.748  12.923 -0.2950 -0.2726  0.1552
12506TIP3    H158933   5.955   0.674  12.957  1.6610 -1.6877  0.1112
12506TIP3    H258934   5.978   0.754  12.831 -1.9227  0.4057  0.6265
12507TIP3   OH258935   4.813   6.337  11.896 -0.0803 -0.3864 -0.1380
12507TIP3    H158936   4.898   6.364  11.860  0.5049 -0.2142  1.2823
12507TIP3    H258937   4.824   6.244  11.917 -0.3124 -0.4125 -0.1274
12508TIP3   OH258938   0.160   4.764   1.001  0.1597  0.4487 -0.0589
12508TIP3    H158939   0.231   4.826   0.986  0.7555 -0.1949  0.0491
12508TIP3    H258940   0.110   4.764   0.919  0.8188  0.2398 -0.4761
12509TIP3   OH258941   0.998   4.413   4.997 -0.0776  0.4913 -0.9908
12509TIP3    H158942   1.063   4.481   5.015 -1.2000  1.2985  0.1867
12509TIP3    H258943   0.959   4.440   4.913 -1.2257  1.9474 -0.0519
12510TIP3   OH258944   3.167   2.765   0.543  0.1289  0.0172 -0.5723
12510TIP3    H158945   3.240   2.705   0.554  0.1057  0.1282  0.2881
12510TIP3    H258946   3.091   2.717   0.575  0.2566  0.7945  1.0145
12511TIP3   OH258947   5.549   0.191  13.104  0.2978 -0.1529 -0.0816
12511TIP3    H158948   5.544   0.102  13.139 -0.3133 -1.0736 -2.3410
12511TIP3    H258949   5.535   0.247  13.180 -0.0192 -1.9861  1.2910
12512TIP3   OH258950   6.073   4.155  16.898  0.5170 -0.0012 -0.2177
12512TIP3    H158951   6.080   4.134  16.805  0.2647 -1.2879  0.0332
12512TIP3    H258952   6.060   4.071  16.941  2.5891  0.3184  1.1952
12513TIP3   OH258953   0.170   1.864   2.982  0.3953  0.0608  0.5770
12513TIP3    H158954   0.170   1.769   2.993 -2.1137 -0.0608  0.0237
12513TIP3    H258955   0.116   1.897   3.053  1.1593  1.1035  0.7041
12514TIP3   OH258956   6.353   1.313  16.158 -0.0228  0.3051 -0.8064
12514TIP3    H158957   6.356   1.407  16.138 -2.4235  0.3993 -1.0382
12514TIP3    H258958   6.340   1.309  16.253  0.7453  0.1706 -0.7028
12515TIP3   OH258959   5.346   6.712   2.966 -0.3381 -0.5133  0.0957
12515TIP3    H158960   5.347   6.766   2.886 -0.1830  2.5786  1.9992
12515TIP3    H258961   5.268   6.741   3.013  1.3902  0.3708  2.6220
12516TIP3   OH258962   5.237   4.122  15.988  0.0338  0.0047 -0.9037
12516TIP3    H158963   5.319   4.074  15.973  0.0610 -0.3047  0.1763
12516TIP3    H258964   5.236   4.189  15.919  1.7122  0.6958 -0.3051
12517TIP3   OH258965   4.799   0.945   4.618  0.5479 -0.2105 -0.0423
12517TIP3    H158966   4.865   0.881   4.644  1.2996  0.3888 -0.4186
12517TIP3    H258967   4.718   0.914   4.657  0.7959 -1.6565 -0.6359
12518TIP3   OH258968   5.775   1.438  13.085  0.2212 -0.2108  0.1210
12518TIP3    H158969   5.857   1.458  13.040 -0.3380 -0.1361 -0.8929
12518TIP3    H258970   5.746   1.522  13.120  0.1261 -0.0790 -0.2806
12519TIP3   OH258971   1.619   0.503  17.143  0.9411 -0.2654  0.6274
12519TIP3    H158972   1.665   0.550  17.213  0.1142 -0.6149  1.4355
12519TIP3    H258973   1.618   0.412  17.172  0.7798 -0.4482  0.0541
12520TIP3   OH258974   3.088   6.527  11.293  0.2370 -0.1875 -0.0911
12520TIP3    H158975   3.023   6.538  11.224  0.5622 -2.0587 -0.7529
12520TIP3    H258976   3.170   6.560  11.255 -0.0755  1.1575  0.3538
12521TIP3   OH258977   5.556   3.932   3.506  0.5635 -0.3246  0.0057
12521TIP3    H158978   5.533   4.024   3.491  0.8289 -0.0897  0.9548
12521TIP3    H258979   5.520   3.912   3.593 -0.5735 -1.4934 -0.7063
12522TIP3   OH258980   3.498   1.666   2.441  0.1169  0.1298  0.3408
12522TIP3    H158981   3.467   1.641   2.354  1.3750 -0.0651 -0.0798
12522TIP3    H258982   3.592   1.645   2.439 -0.0146 -0.7540  2.0615
12523TIP3   OH258983   4.548   0.488  13.872  0.0204 -0.1732 -0.0596
12523TIP3    H158984   4.616   0.456  13.812  1.1914 -0.3611  1.3089
12523TIP3    H258985   4.466   0.457  13.833  0.7210 -0.2433 -1.5824
12524TIP3   OH258986   5.114   3.779   5.319 -0.2533 -0.5771  0.2218
12524TIP3    H158987   5.165   3.818   5.390 -0.1106  0.8039 -0.6106
12524TIP3    H258988   5.176   3.720   5.275  0.8865  1.5561 -1.1692
12525TIP3   OH258989   4.124   1.276   2.987 -0.4283  0.0829 -0.2491
12525TIP3    H158990   4.187   1.205   2.994 -0.8277 -0.1855  0.6495
12525TIP3    H258991   4.167   1.351   3.027 -0.7563 -0.1628  0.5895
12526TIP3   OH258992   5.723   1.118  14.978 -0.2763  0.2752  0.3397
12526TIP3    H158993   5.813   1.091  14.997 -0.2867  1.2066  1.8357
12526TIP3    H258994   5.726   1.213  14.975 -1.0188  0.2765 -0.7014
12527TIP3   OH258995   5.226   3.683   0.166 -0.1546  0.4554  0.5674
12527TIP3    H158996   5.216   3.763   0.217  1.3223 -0.3654  2.2366
12527TIP3    H258997   5.319   3.680   0.143  0.0541 -1.2896  1.4641
12528TIP3   OH258998   0.665   4.994   0.033  0.4468  0.4178 -0.6188
12528TIP3    H158999   0.754   5.028   0.032  0.7097 -0.2541 -0.8881
12528TIP3    H259000   0.656   4.952   0.119  0.1468  1.1002 -0.3136
12529TIP3   OH259001   1.080   4.512  15.365 -0.5483 -0.7724  0.0888
12529TIP3    H159002   1.104   4.527  15.274 -3.0844 -0.2583 -0.5896
12529TIP3    H259003   1.035   4.427  15.365 -1.4481 -0.3178  0.6277
12530TIP3   OH259004   1.979   4.547   4.447  0.0207 -0.8138  0.0884
12530TIP3    H159005   2.057   4.593   4.419 -0.8408  0.6092 -0.0877
12530TIP3    H259006   2.009   4.488   4.516  0.9373  1.1967  1.4900
12531TIP3   OH259007   1.307   6.506   2.634  0.3014 -0.0337 -0.4727
12531TIP3    H159008   1.244   6.452   2.586 -0.0051  0.5864 -0.7824
12531TIP3    H259009   1.277   6.504   2.725 -1.4080  1.9193 -0.9246
12532TIP3   OH259010   5.837   4.241  17.035  0.5758 -0.4036 -0.2240
12532TIP3    H159011   5.844   4.206  17.124  0.3688 -0.9246 -0.4087
12532TIP3    H259012   5.927   4.251  17.005  0.6417 -0.4830 -0.0525
12533TIP3   OH259013   1.103   3.221  13.001  0.5510 -0.3660  0.5235
12533TIP3    H159014   1.072   3.276  13.073 -0.6957 -0.6073  0.1979
12533TIP3    H259015   1.194   3.247  12.988  0.7140 -0.1323  2.0058
12534TIP3   OH259016   1.577   0.069   0.655  0.0836 -0.1701 -0.4889
12534TIP3    H159017   1.651   0.014   0.678 -0.0468 -1.2203 -2.3539
12534TIP3    H259018   1.501   0.022   0.688  0.1652  0.9159  1.4408
12535TIP3   OH259019   0.091   0.020  16.667 -0.6328 -0.4108 -0.3665
12535TIP3    H159020   0.147   0.012  16.744 -1.7303 -1.8401  0.3358
12535TIP3    H259021   0.152   0.026  16.594  0.5285 -2.9764  0.2605
12536TIP3   OH259022   1.680   5.042  16.365 -0.1326  0.5166 -0.5228
12536TIP3    H159023   1.760   5.052  16.417 -1.5098  0.8582  1.6751
12536TIP3    H259024   1.653   4.951  16.380  0.2975  0.1049 -2.0365
12537TIP3   OH259025   2.014   0.636  12.973 -0.1071 -0.3851  0.5377
12537TIP3    H159026   1.995   0.554  13.019  2.9313 -1.8274 -0.4866
12537TIP3    H259027   2.073   0.683  13.031 -1.4080  0.8829  0.8790
12538TIP3   OH259028   1.657   1.524   3.878 -0.3214  0.0908  0.0465
12538TIP3    H159029   1.726   1.476   3.925 -0.3543 -0.1974 -0.1949
12538TIP3    H259030   1.670   1.615   3.903 -0.0958 -0.0127  0.3109
12539TIP3   OH259031   3.056   6.085  14.662 -0.0050  0.4392 -0.0142
12539TIP3    H159032   3.031   6.169  14.702 -3.3868 -0.8032  0.7953
12539TIP3    H259033   3.089   6.109  14.575 -0.4922  2.6380  0.3501
12540TIP3   OH259034   6.095   1.638  10.567 -0.2809 -0.0431  0.3738
12540TIP3    H159035   6.113   1.732  10.567 -1.1705  0.2801 -3.2989
12540TIP3    H259036   6.143   1.604  10.492 -0.4307 -2.4722  1.2915
12541TIP3   OH259037   4.249   4.307   0.444 -0.3368 -0.0273  0.2317
12541TIP3    H159038   4.262   4.388   0.395  0.2847 -0.1795  0.1368
12541TIP3    H259039   4.191   4.331   0.516 -1.2815  0.1954 -0.5800
12542TIP3   OH259040   6.416   3.443   4.195  0.2454  0.0306  0.2357
12542TIP3    H159041   6.356   3.484   4.132 -1.3045 -1.7962  0.4697
12542TIP3    H259042   6.372   3.450   4.279  0.3410 -1.3176  0.4184
12543TIP3   OH259043   5.898   5.624   0.493  0.9783 -0.2831 -0.1651
12543TIP3    H159044   5.843   5.608   0.569  0.3832  1.3518 -0.2150
12543TIP3    H259045   5.842   5.607   0.418  1.4195 -1.4127 -0.2591
12544TIP3   OH259046   6.170   2.081   3.669  0.5587  0.2925  0.5783
12544TIP3    H159047   6.166   2.167   3.710  1.2393  0.5732  0.0699
12544TIP3    H259048   6.228   2.092   3.594 -0.4886 -0.2441 -0.3608
12545TIP3   OH259049   5.389   6.749  17.184 -0.2626 -0.3292  0.3270
12545TIP3    H159050   5.397   6.802  17.263  0.9836  0.7047 -0.4587
12545TIP3    H259051   5.406   6.809  17.112 -2.4970 -0.9730 -0.8552
12546TIP3   OH259052   6.155   1.731  15.223 -0.2183 -0.0818 -0.3846
12546TIP3    H159053   6.061   1.725  15.205  0.0859 -2.1431 -1.6124
12546TIP3    H259054   6.173   1.825  15.225 -1.7597  0.4254 -3.4334
12547TIP3   OH259055   1.887   6.489   2.571  0.0830  0.1469  0.5117
12547TIP3    H159056   1.899   6.535   2.654 -0.4507  0.6540  0.3074
12547TIP3    H259057   1.805   6.523   2.535  0.5892  0.3585 -0.4974
12548TIP3   OH259058   0.081   3.795   6.637  0.1519 -0.3447  0.0640
12548TIP3    H159059   0.094   3.879   6.593 -1.1152 -0.1315  0.0443
12548TIP3    H259060   0.169   3.766   6.661  1.1441 -1.1280 -3.8235
12549TIP3   OH259061   1.912   2.169   5.935  0.2760  0.3579  0.4851
12549TIP3    H159062   1.934   2.262   5.943  0.4393  0.2685  1.1866
12549TIP3    H259063   1.888   2.143   6.024 -0.1092 -0.1898  0.2261
12550TIP3   OH259064   3.661   1.894  12.636  0.0427 -0.2275  0.0604
12550TIP3    H159065   3.741   1.851  12.607  2.2388  2.4352  1.6585
12550TIP3    H259066   3.660   1.882  12.731 -1.5707 -0.3316  0.0592
12551TIP3   OH259067   3.528   5.169   6.831  0.2002 -0.2472  0.0363
12551TIP3    H159068   3.500   5.078   6.825 -0.7130  0.0982 -1.5461
12551TIP3    H259069   3.619   5.169   6.800  0.2914 -0.6397  0.2938
12552TIP3   OH259070   6.603   5.285  16.676  0.4633 -0.3018  0.2190
12552TIP3    H159071   6.552   5.247  16.748 -0.2327  0.1676 -0.0131
12552TIP3    H259072   6.663   5.347  16.719  1.8924 -1.9003  0.6426
12553TIP3   OH259073   0.182   3.765  14.768 -0.1374  0.1013 -0.2027
12553TIP3    H159074   0.215   3.678  14.790  0.5153  0.2126 -0.6999
12553TIP3    H259075   0.245   3.825  14.809 -0.8684  0.3572  0.5806
12554TIP3   OH259076   0.439   2.244   1.004 -0.3152  0.5152 -0.2915
12554TIP3    H159077   0.486   2.285   1.077  0.2306 -0.5067 -0.0436
12554TIP3    H259078   0.433   2.151   1.028  1.0921 -0.1284 -2.1370
12555TIP3   OH259079   2.046   2.866   0.000 -0.3717  0.2916 -0.6593
12555TIP3    H159080   2.064   2.938   0.061 -0.9869 -0.4797  0.4728
12555TIP3    H259081   2.128   2.854  -0.047  0.0253  1.1290 -0.2162
12556TIP3   OH259082   5.608   6.422  14.895 -0.0251  0.3006 -0.1152
12556TIP3    H159083   5.646   6.488  14.837  0.4845  0.6814  0.6345
12556TIP3    H259084   5.631   6.338  14.854 -0.1426  0.5680 -0.7431
12557TIP3   OH259085   4.032   5.203  14.816  0.2760 -0.5907  0.3645
12557TIP3    H159086   4.073   5.258  14.749  0.7147 -0.7317  0.5168
12557TIP3    H259087   4.079   5.120  14.812 -0.8516 -1.2112 -0.3443
12558TIP3   OH259088   1.367   0.650  11.041  0.7404  0.8658 -0.5680
12558TIP3    H159089   1.439   0.711  11.057  0.9621  0.2941  0.6897
12558TIP3    H259090   1.377   0.627  10.948  1.2128  1.9994 -0.8220
12559TIP3   OH259091   3.833   3.991  14.283  0.1874 -0.1641  0.8582
12559TIP3    H159092   3.788   3.928  14.340 -0.8562 -0.0942  0.1478
12559TIP3    H259093   3.776   3.999  14.207  0.6010  1.1926  0.6614
12560TIP3   OH259094   6.755   0.909   4.439  0.0345 -0.4419 -0.8659
12560TIP3    H159095   6.795   0.990   4.471 -0.2918 -0.4135 -0.5366
12560TIP3    H259096   6.793   0.840   4.493 -0.1940 -0.4377 -0.6984
12561TIP3   OH259097   2.314   1.425  15.195 -0.2940 -0.1360 -0.3362
12561TIP3    H159098   2.376   1.422  15.268 -0.5435 -2.1806 -0.1662
12561TIP3    H259099   2.363   1.468  15.124  0.3927  0.6635  0.5988
12562TIP3   OH259100   1.303   2.823   5.236  0.6038  0.1068 -0.1928
12562TIP3    H159101   1.326   2.914   5.254  1.0822 -0.0572  0.0322
12562TIP3    H259102   1.222   2.809   5.286  0.9465  0.1835  0.3897
12563TIP3   OH259103   0.211   2.238   0.047 -0.4687 -0.4003 -0.2717
12563TIP3    H159104   0.265   2.169   0.009 -0.7562 -1.0406  0.4499
12563TIP3    H259105   0.121   2.209   0.032 -0.6019  0.0599 -0.3918
12564TIP3   OH259106   4.241   3.706  11.392  0.3273  0.3577 -0.0919
12564TIP3    H159107   4.202   3.632  11.438  1.2830  0.3438  0.7440
12564TIP3    H259108   4.170   3.744  11.341 -0.3064 -0.7938 -0.0846
12565TIP3   OH259109   2.169   0.676  15.589  0.3318 -0.0881 -0.0869
12565TIP3    H159110   2.193   0.619  15.516 -1.5068  1.8221 -2.3899
12565TIP3    H259111   2.236   0.744  15.589 -0.6423  0.9542 -1.3825
12566TIP3   OH259112   3.473   3.620  14.467  0.2656  0.2028  0.5727
12566TIP3    H159113   3.389   3.654  14.499 -0.1036 -1.1426  1.1044
12566TIP3    H259114   3.462   3.525  14.469  1.2693  0.0323 -0.8253
12567TIP3   OH259115   1.570   0.651  13.127  0.2526 -0.0731  0.4164
12567TIP3    H159116   1.524   0.726  13.165 -1.7448 -1.6404  1.3104
12567TIP3    H259117   1.655   0.685  13.101 -0.3886  2.3627  1.2505
12568TIP3   OH259118   6.035   0.822   0.162  0.3106  0.1595  0.2284
12568TIP3    H159119   5.961   0.765   0.185  0.3364  0.3380  0.7618
12568TIP3    H259120   6.026   0.835   0.067 -0.0671 -0.2062  0.2095
12569TIP3   OH259121   0.152   1.477  12.502 -0.1858  0.4773  0.9996
12569TIP3    H159122   0.108   1.469  12.418 -3.1073  0.7684  2.3520
12569TIP3    H259123   0.243   1.497  12.481 -0.2776 -1.7395 -2.0433
12570TIP3   OH259124   3.355   0.207   2.826 -0.1024  0.2246 -0.5066
12570TIP3    H159125   3.372   0.213   2.732  1.0520 -0.1943 -0.3334
12570TIP3    H259126   3.439   0.225   2.867 -0.7023  0.9246  0.4800
12571TIP3   OH259127   0.557   0.894   5.268 -0.3929  0.2456 -0.3668
12571TIP3    H159128   0.550   0.815   5.213  0.1585  0.5476 -0.8813
12571TIP3    H259129   0.610   0.866   5.343  0.3817  0.2906 -0.8828
12572TIP3   OH259130   5.328   1.963   1.882 -0.2435  0.1386 -0.1726
12572TIP3    H159131   5.353   1.992   1.794  1.3160 -0.1023  0.1592
12572TIP3    H259132   5.270   2.032   1.914 -1.0966  0.0621 -1.5080
12573TIP3   OH259133   4.986   2.217  10.414 -0.0230  0.8406  0.0420
12573TIP3    H159134   4.945   2.283  10.358 -1.3292 -1.6079 -2.1341
12573TIP3    H259135   4.917   2.193  10.476  0.7960  2.1713  1.5400
12574TIP3   OH259136   6.331   2.952   3.798 -0.2486  0.4974  0.1838
12574TIP3    H159137   6.317   2.931   3.890 -2.3549  0.6210 -0.0601
12574TIP3    H259138   6.252   2.999   3.771 -0.0497 -0.2199 -1.8821
12575TIP3   OH259139   2.306   4.624   3.071  0.1453  0.2919  0.1650
12575TIP3    H159140   2.366   4.606   3.144  1.6823 -1.6668 -1.4567
12575TIP3    H259141   2.221   4.594   3.102  0.8738 -1.0171  0.9785
12576TIP3   OH259142   2.338   6.046   3.896  0.5656  0.1046  0.5647
12576TIP3    H159143   2.423   6.002   3.904  0.6338 -0.2424 -1.4844
12576TIP3    H259144   2.353   6.116   3.832 -1.0172 -0.9849 -1.1157
12577TIP3   OH259145   1.139   0.994   4.902  0.3469 -0.4212 -0.9935
12577TIP3    H159146   1.198   1.026   4.834 -1.0348  1.3090 -1.4932
12577TIP3    H259147   1.067   1.058   4.902 -0.5399 -1.3345  0.9213
12578TIP3   OH259148   4.584   1.669  17.236  0.0929 -0.3107  0.0474
12578TIP3    H159149   4.508   1.691  17.181 -0.2198 -0.3052  0.4771
12578TIP3    H259150   4.639   1.747  17.233  0.4545 -0.5884 -0.8780
12579TIP3   OH259151   2.770   2.918  15.385  0.2137 -0.6271  0.2800
12579TIP3    H159152   2.782   2.960  15.470  1.6444 -0.0561 -0.1692
12579TIP3    H259153   2.849   2.866  15.373 -0.2937 -1.2538 -0.3958
12580TIP3   OH259154   0.485   6.284   5.607  0.2209 -0.1107  0.7256
12580TIP3    H159155   0.449   6.271   5.695 -0.3763 -0.1323  0.4841
12580TIP3    H259156   0.423   6.344   5.565  1.8737  2.0277  1.1744
12581TIP3   OH259157   5.082   6.583  13.611  0.1739 -0.3456  0.2244
12581TIP3    H159158   5.100   6.589  13.517 -0.6852 -1.0454  0.0029
12581TIP3    H259159   5.111   6.667  13.646 -0.1682  0.2181 -0.7813
12582TIP3   OH259160   3.518   0.343   1.441  0.3356  0.1659 -0.2352
12582TIP3    H159161   3.498   0.424   1.393 -0.0322  0.0376 -0.3015
12582TIP3    H259162   3.584   0.299   1.387 -1.9356 -1.2699 -2.0798
12583TIP3   OH259163   1.022   2.260  16.563 -0.5564  0.4523  0.2162
12583TIP3    H159164   1.066   2.290  16.643 -3.3596 -0.5758  2.3290
12583TIP3    H259165   0.954   2.326  16.547 -0.2671  0.4455 -1.1332
12584TIP3   OH259166   1.528   0.812   3.073 -0.0727 -0.1155  0.1725
12584TIP3    H159167   1.535   0.721   3.103 -1.3441  0.2807  1.8504
12584TIP3    H259168   1.611   0.852   3.100  0.5425 -0.7828 -0.6817
12585TIP3   OH259169   6.509   2.246  14.506 -0.9331 -0.5053 -0.7031
12585TIP3    H159170   6.435   2.250  14.567 -0.9858  0.2095 -0.8039
12585TIP3    H259171   6.534   2.338  14.494 -0.5523 -0.6877 -1.3044
12586TIP3   OH259172   0.297   5.119  11.048  0.0519 -0.3922 -0.0846
12586TIP3    H159173   0.289   5.123  10.953 -0.4870  1.0156 -0.0169
12586TIP3    H259174   0.217   5.075  11.078  0.3025 -0.9887 -0.2861
12587TIP3   OH259175   5.123   6.628  13.351 -0.2377  0.8343 -0.4367
12587TIP3    H159176   5.131   6.715  13.312  0.5877  0.7776 -0.4150
12587TIP3    H259177   5.095   6.571  13.278 -2.3718  1.3687 -0.1124
12588TIP3   OH259178   1.905   4.818  11.281 -0.3861 -0.0060  0.0075
12588TIP3    H159179   1.903   4.812  11.377  0.7367  0.1778  0.0541
12588TIP3    H259180   1.867   4.736  11.251  0.7133 -0.7597  0.6256
12589TIP3   OH259181   0.220   3.520  16.626 -0.1200  0.0033  0.4648
12589TIP3    H159182   0.301   3.474  16.648  0.4097  0.8421  0.2940
12589TIP3    H259183   0.246   3.585  16.561 -0.8515  0.5590  0.7230
12590TIP3   OH259184   1.932   2.010  12.409  0.2676  0.1633 -0.0234
12590TIP3    H159185   1.986   1.987  12.334  0.4446  0.0272  0.1444
12590TIP3    H259186   1.961   2.099  12.433  1.1220 -0.2923  0.6830
12591TIP3   OH259187   6.418   1.364  11.926  0.0164  0.4008  0.0795
12591TIP3    H159188   6.373   1.363  12.010  1.5365 -1.2948  0.9446
12591TIP3    H259189   6.458   1.277  11.919  2.0581  1.3541 -1.1875
12592TIP3   OH259190   2.904   2.288   3.224 -0.2218 -0.6548 -0.4103
12592TIP3    H159191   2.862   2.239   3.153  1.4462 -1.7522 -0.6922
12592TIP3    H259192   2.955   2.222   3.272 -1.5740 -0.0179  2.0676
12593TIP3   OH259193   0.105   0.710   6.137  0.2090 -0.0131  0.3280
12593TIP3    H159194   0.024   0.727   6.185  0.6813 -0.6699  1.4048
12593TIP3    H259195   0.135   0.625   6.169  0.6057 -0.4287 -1.0757
12594TIP3   OH259196   1.490   6.082   0.564  0.0394  0.2334  0.4331
12594TIP3    H159197   1.406   6.108   0.527  0.2560  0.9192  0.4180
12594TIP3    H259198   1.550   6.080   0.490  0.3771  1.1995  0.6664
12595TIP3   OH259199   2.841   5.138   0.437 -0.5226 -0.0975 -0.2412
12595TIP3    H159200   2.814   5.089   0.514  0.3103  1.1155  0.8657
12595TIP3    H259201   2.759   5.159   0.392 -1.1831  0.6108  1.2311
12596TIP3   OH259202   1.115   5.006   2.944  0.6891  0.3726 -0.3254
12596TIP3    H159203   1.133   5.089   2.900 -1.7407  1.0617 -0.1765
12596TIP3    H259204   1.168   5.008   3.023 -0.2892  2.4060  0.3378
12597TIP3   OH259205   1.717   6.236  12.855  0.3637 -0.4705  0.9450
12597TIP3    H159206   1.664   6.164  12.821  1.1211 -0.4970 -0.2435
12597TIP3    H259207   1.730   6.216  12.947 -0.5728 -1.1459  0.9385
12598TIP3   OH259208   5.631   1.824   3.444  0.3070  0.2986  0.1253
12598TIP3    H159209   5.689   1.892   3.480  0.2196  0.7684 -0.5915
12598TIP3    H259210   5.598   1.862   3.363  0.3448 -0.6500 -0.3504
12599TIP3   OH259211   5.079   2.784   5.264  0.1651  0.5145  0.4923
12599TIP3    H159212   5.026   2.803   5.342 -1.2685  0.7053 -0.4822
12599TIP3    H259213   5.059   2.692   5.244  2.1426 -0.1854  1.5139
12600TIP3   OH259214   5.476   5.039  14.844  0.9820  0.0555 -0.1605
12600TIP3    H159215   5.384   5.053  14.819  1.1006  1.2668  0.0178
12600TIP3    H259216   5.488   4.944  14.840 -0.4245 -0.1641  0.3033
12601TIP3   OH259217   4.107   1.255   3.509 -0.3689 -0.2055 -0.1738
12601TIP3    H159218   4.124   1.350   3.506 -1.7024  0.1335  1.5260
12601TIP3    H259219   4.157   1.224   3.584 -0.2013 -0.8153 -0.5306
12602TIP3   OH259220   5.992   6.534  14.951 -0.2275  0.2688 -0.1251
12602TIP3    H159221   6.047   6.478  15.006 -2.3131  0.1294  1.9773
12602TIP3    H259222   5.971   6.479  14.875 -0.6166 -1.1056  0.9300
12603TIP3   OH259223   6.450   3.045  16.305 -0.8366  0.3771 -0.1186
12603TIP3    H159224   6.511   3.048  16.231 -0.4238  0.4741  0.2172
12603TIP3    H259225   6.501   3.080  16.378 -0.4819 -1.7661  0.7386
12604TIP3   OH259226   1.359   0.875   3.507  0.5100 -0.3961 -0.1770
12604TIP3    H159227   1.401   0.842   3.587 -0.7825 -0.9931  0.2678
12604TIP3    H259228   1.278   0.915   3.538  0.2568 -0.1563 -1.1434
12605TIP3   OH259229   4.009   2.481   1.533  0.0062  0.7433  0.2620
12605TIP3    H159230   4.025   2.392   1.501  1.8601  0.4252  1.8450
12605TIP3    H259231   4.077   2.534   1.490  1.3833  0.6252  2.1318
12606TIP3   OH259232   1.154   2.737   0.735 -0.7127  0.2571  0.5307
12606TIP3    H159233   1.125   2.713   0.823  0.5829 -0.8573  0.6820
12606TIP3    H259234   1.079   2.782   0.697 -1.2753  0.8287  2.2266
12607TIP3   OH259235   1.754   5.550   1.644  0.4275  0.3365 -0.3935
12607TIP3    H159236   1.676   5.605   1.646 -1.0980 -1.6800 -0.0916
12607TIP3    H259237   1.724   5.467   1.607  2.2047 -0.8210  0.5571
12608TIP3   OH259238   1.801   1.767   2.085  0.2664  0.0218  0.4737
12608TIP3    H159239   1.732   1.834   2.083 -1.4503 -1.6170  1.1459
12608TIP3    H259240   1.776   1.704   2.017 -0.0208 -1.5614  1.9428
12609TIP3   OH259241   4.572   3.529   3.370  0.5479  0.3155 -0.5197
12609TIP3    H159242   4.485   3.506   3.401  0.4122  1.6889  0.1701
12609TIP3    H259243   4.559   3.605   3.314  1.2726  0.3435 -0.6606
12610TIP3   OH259244   6.530   1.751  13.471  0.2722 -0.2735  0.2034
12610TIP3    H159245   6.612   1.708  13.445 -0.4857 -1.4766 -0.2809
12610TIP3    H259246   6.544   1.843  13.451  0.7434 -0.7481 -1.9456
12611TIP3   OH259247   3.226   0.246   1.027 -0.1672 -0.1369 -0.0718
12611TIP3    H159248   3.279   0.190   1.085  0.3002  0.8925  0.5452
12611TIP3    H259249   3.222   0.199   0.944 -0.6199 -1.5314  0.7090
12612TIP3   OH259250   1.058   0.041   5.368 -0.2805  0.0372 -0.0309
12612TIP3    H159251   0.996   0.012   5.301 -0.7250  0.3195  0.2602
12612TIP3    H259252   1.059  -0.030   5.432 -1.1112  0.4985  0.5072
12613TIP3   OH259253   4.772   4.846   2.667 -0.7974  0.2289  0.4620
12613TIP3    H159254   4.809   4.868   2.753  5.1736  1.8378 -1.9598
12613TIP3    H259255   4.745   4.931   2.631 -2.5632 -0.3374  0.3713
12614TIP3   OH259256   1.307   5.896   0.318  0.0684 -0.5742 -0.6047
12614TIP3    H159257   1.321   5.874   0.410 -0.1139 -3.1474 -1.1114
12614TIP3    H259258   1.294   5.991   0.318  1.0569 -0.3517  1.8731
12615TIP3   OH259259   4.067   3.975  12.988  0.3105  0.3563 -0.0972
12615TIP3    H159260   4.133   3.989  12.920  1.8164 -0.5982  1.1005
12615TIP3    H259261   4.101   4.020  13.065 -0.6066  0.1255  0.4631
12616TIP3   OH259262   2.441   0.671  12.562 -0.3106 -0.2599 -0.6316
12616TIP3    H159263   2.368   0.645  12.618  1.0137  0.7258  1.7314
12616TIP3    H259264   2.499   0.595  12.562 -1.0909 -0.8841 -2.1484
12617TIP3   OH259265   0.978   4.987  10.898  0.0488 -0.8896 -0.1212
12617TIP3    H159266   0.923   4.917  10.933 -1.0839 -0.9504 -1.8957
12617TIP3    H259267   1.055   4.941  10.863 -0.0986 -1.1098 -0.1570
12618TIP3   OH259268   2.354   6.345   4.788 -0.3220 -0.3442 -0.4165
12618TIP3    H159269   2.267   6.385   4.778 -0.0956 -0.0419 -1.3124
12618TIP3    H259270   2.392   6.350   4.700 -0.1043 -2.1354 -0.4657
12619TIP3   OH259271   6.361   3.506  16.361  0.4474  0.0962 -0.6438
12619TIP3    H159272   6.330   3.454  16.435 -0.6843 -0.8573 -1.7624
12619TIP3    H259273   6.284   3.520  16.307  0.9386  2.1116 -0.8982
12620TIP3   OH259274   2.358   4.951   6.397 -0.0538 -0.0726 -0.1109
12620TIP3    H159275   2.438   4.924   6.352 -0.7055 -2.3638 -0.0340
12620TIP3    H259276   2.307   4.870   6.406 -0.9622  0.6940  2.7360
12621TIP3   OH259277   4.965   1.685   3.099 -0.0493  0.0508  0.1526
12621TIP3    H159278   4.967   1.590   3.112 -0.2424  0.2458  1.7982
12621TIP3    H259279   4.992   1.722   3.183 -0.6553  1.4612 -0.2332
12622TIP3   OH259280   1.727   2.992  14.888 -0.7750 -0.3968  0.0849
12622TIP3    H159281   1.673   3.046  14.831  1.2204  1.2063 -0.4149
12622TIP3    H259282   1.811   2.985  14.842 -0.4564 -2.6276  0.8949
12623TIP3   OH259283   1.107   4.976   2.028  0.3861 -0.0201  0.4717
12623TIP3    H159284   1.092   5.067   2.005 -0.2495 -0.3563 -0.5171
12623TIP3    H259285   1.201   4.962   2.011  0.5850  0.5617  1.0774
12624TIP3   OH259286   0.395   0.750  17.161  0.0021  0.0470 -0.1501
12624TIP3    H159287   0.368   0.726  17.250 -1.8132 -2.1590 -1.1880
12624TIP3    H259288   0.333   0.704  17.104  3.8522 -2.6158 -2.7170
12625TIP3   OH259289   0.288   0.323   3.192 -0.8963  0.0286 -0.5163
12625TIP3    H159290   0.349   0.393   3.214  0.6463 -1.3158 -0.3688
12625TIP3    H259291   0.276   0.331   3.097  0.4907 -0.4219 -0.7532
12626TIP3   OH259292   0.920   1.418   5.129  0.6117  0.1752  0.2219
12626TIP3    H159293   0.871   1.378   5.057  0.2721 -0.5678  0.8431
12626TIP3    H259294   0.915   1.353   5.200  1.5027  0.5976  0.6927
12627TIP3   OH259295   4.139   1.027  12.947  0.0444 -1.1065 -0.3828
12627TIP3    H159296   4.164   0.952  12.893 -0.3289  0.8739 -3.5436
12627TIP3    H259297   4.046   1.042  12.926 -0.1208 -0.2535  0.8457
12628TIP3   OH259298   0.531   0.334  15.109  0.3284  0.2170 -0.0060
12628TIP3    H159299   0.613   0.304  15.146  0.3749 -0.0095 -0.2846
12628TIP3    H259300   0.478   0.359  15.184 -0.1220 -1.6101  0.3322
12629TIP3   OH259301   5.674   0.025  15.261 -0.1583  0.3026 -0.6062
12629TIP3    H159302   5.585   0.004  15.232  0.0443 -0.3243 -0.7886
12629TIP3    H259303   5.725   0.032  15.180  0.0195  0.3695 -0.4904
12630TIP3   OH259304   5.717   4.103   4.373 -0.8952 -0.0640 -0.1286
12630TIP3    H159305   5.689   4.192   4.352  1.0099  0.8947  1.0708
12630TIP3    H259306   5.707   4.096   4.468 -2.6742 -1.8013 -0.3849
12631TIP3   OH259307   2.318   4.186   1.697  0.1541 -0.0498 -0.7761
12631TIP3    H159308   2.379   4.174   1.770  0.1212 -2.6331 -1.0793
12631TIP3    H259309   2.231   4.174   1.735  0.1215 -1.1099 -1.1543
12632TIP3   OH259310   1.086   3.512  16.916  0.0935  0.5459  0.3596
12632TIP3    H159311   1.016   3.457  16.949  2.1295 -0.4265  3.4695
12632TIP3    H259312   1.075   3.596  16.961  0.3193  0.7557  0.0379
12633TIP3   OH259313   4.017   0.030  14.692  0.0236 -1.0444 -0.1973
12633TIP3    H159314   3.959  -0.027  14.742  1.1211 -2.1267 -0.1104
12633TIP3    H259315   4.089   0.050  14.751  1.0064 -1.8088 -1.0949
12634TIP3   OH259316   3.960   1.243  14.190 -0.0220  0.7667 -0.5030
12634TIP3    H159317   4.034   1.226  14.132  0.6487 -1.2419  0.8448
12634TIP3    H259318   3.902   1.168  14.178 -0.0337  0.4796  1.1347
12635TIP3   OH259319   4.317   5.137  14.514  0.2852  0.3145 -0.5500
12635TIP3    H159320   4.276   5.195  14.578  0.3203  0.7639 -0.9290
12635TIP3    H259321   4.245   5.081  14.483  0.0411  0.8069 -0.8902
12636TIP3   OH259322   1.105   4.339  14.667  0.3606  0.6061  0.2024
12636TIP3    H159323   1.168   4.351  14.596  0.6445  0.6597  0.4590
12636TIP3    H259324   1.115   4.247  14.693 -1.1281  0.0194 -1.1197
12637TIP3   OH259325   0.461   5.419   0.329 -0.2493 -0.8233  0.4845
12637TIP3    H159326   0.377   5.421   0.375 -0.1225 -0.2861  0.6976
12637TIP3    H259327   0.513   5.486   0.372 -0.5999  0.6705 -1.3338
12638TIP3   OH259328   6.423   6.498  14.080  0.1531 -0.6056 -0.2195
12638TIP3    H159329   6.500   6.549  14.107 -0.0254 -0.9395  0.9851
12638TIP3    H259330   6.407   6.439  14.153 -0.7936 -1.0756 -0.7913
12639TIP3   OH259331   1.937   0.726  13.302 -0.5727 -0.3306  0.0514
12639TIP3    H159332   1.870   0.757  13.363 -0.5154 -0.2667  0.0819
12639TIP3    H259333   2.016   0.774  13.326 -1.1921  1.8180 -1.8207
12640TIP3   OH259334   1.054   0.950   1.781  0.0792  0.8883 -0.0368
12640TIP3    H159335   1.016   1.012   1.718 -0.1749  1.6935  0.8783
12640TIP3    H259336   1.115   1.004   1.833  0.3256  0.2247  0.3706
12641TIP3   OH259337   4.818   5.855   3.482  0.1713 -0.1724 -0.1052
12641TIP3    H159338   4.734   5.810   3.484 -0.2445  0.5607  2.3730
12641TIP3    H259339   4.866   5.819   3.556  1.9129 -0.2716 -1.2212
12642TIP3   OH259340   2.584   2.575   3.761  0.4350 -0.1817 -0.2746
12642TIP3    H159341   2.590   2.615   3.848 -1.2619 -2.1540  0.8450
12642TIP3    H259342   2.567   2.649   3.702  1.3974  1.1795  1.0640
12643TIP3   OH259343   3.615   5.669   1.562 -0.3540 -0.6478  0.0509
12643TIP3    H159344   3.574   5.616   1.631 -1.5478 -1.7987 -1.4785
12643TIP3    H259345   3.684   5.718   1.608 -2.1045 -0.1349  2.3682
12644TIP3   OH259346   1.330   3.823  11.813 -0.1372  0.0905 -0.2020
12644TIP3    H159347   1.408   3.812  11.759  0.1984 -1.9791  0.6015
12644TIP3    H259348   1.260   3.846  11.752  0.4151 -1.3327 -1.4130
12645TIP3   OH259349   6.661   2.510   4.981  0.4676  0.0811  0.3232
12645TIP3    H159350   6.574   2.508   5.021  0.6174 -2.4841  0.6590
12645TIP3    H259351   6.716   2.557   5.045 -0.2771  0.1055  0.9529
12646TIP3   OH259352   5.465   3.976   5.114  0.1065 -0.1208 -0.0892
12646TIP3    H159353   5.412   3.942   5.041  1.4463 -0.1941 -1.0554
12646TIP3    H259354   5.487   3.899   5.165 -0.1970 -0.1726 -0.0337
12647TIP3   OH259355   0.133   4.724   5.469 -0.3146 -0.0875 -0.0722
12647TIP3    H159356   0.131   4.655   5.535 -0.4369 -0.3617 -0.3562
12647TIP3    H259357   0.223   4.725   5.438 -0.2759 -0.0132  0.0431
12648TIP3   OH259358   2.000   1.598  10.817  0.7621 -0.1112  0.3405
12648TIP3    H159359   2.059   1.673  10.811 -0.1852  0.5769 -0.8056
12648TIP3    H259360   1.951   1.613  10.898  0.9475  0.2474  0.3898
12649TIP3   OH259361   1.854   6.711   0.032  0.3427  0.1998 -0.9619
12649TIP3    H159362   1.889   6.689   0.119 -1.6817 -3.6351 -0.9054
12649TIP3    H259363   1.900   6.652  -0.028 -2.4023 -1.5303 -1.5249
12650TIP3   OH259364   4.481   0.079   1.094 -0.2449 -0.2252  0.4543
12650TIP3    H159365   4.417   0.009   1.103 -1.3219  0.6841  0.0949
12650TIP3    H259366   4.559   0.046   1.138 -1.5590 -0.6122  2.6384
12651TIP3   OH259367   2.028   2.876  16.222  0.4674 -0.7009 -0.0581
12651TIP3    H159368   2.082   2.953  16.205  0.2812 -0.4523  0.4546
12651TIP3    H259369   2.024   2.831  16.138  0.2558  0.0528 -0.4682
12652TIP3   OH259370   6.102   4.384  15.787  0.3500 -0.2095 -0.0711
12652TIP3    H159371   6.050   4.334  15.724 -1.7698  0.3233  1.1686
12652TIP3    H259372   6.108   4.472  15.749  0.0804 -0.1961 -0.0864
12653TIP3   OH259373   1.788   4.694   2.526  0.6378 -0.7830 -0.2454
12653TIP3    H159374   1.775   4.734   2.440  1.0266 -2.0496 -0.9131
12653TIP3    H259375   1.818   4.606   2.507  1.9144 -0.6980  1.2014
12654TIP3   OH259376   2.027   3.366  14.744 -0.0953 -0.0582 -0.0280
12654TIP3    H159377   2.082   3.288  14.742  0.2230  0.1674 -0.6915
12654TIP3    H259378   1.987   3.366  14.831  2.1408  0.5950  1.0713
12655TIP3   OH259379   1.362   0.454  14.150  0.2138 -0.0324 -0.0269
12655TIP3    H159380   1.311   0.528  14.116  1.1361 -0.0150 -1.4413
12655TIP3    H259381   1.386   0.404  14.072 -0.5912 -1.9775  0.9216
12656TIP3   OH259382   2.059   3.958  14.069  0.2165 -0.2755  0.1830
12656TIP3    H159383   2.097   3.886  14.018  1.1967 -0.5052  1.1885
12656TIP3    H259384   1.984   3.918  14.114 -1.6364  0.3013 -2.2036
12657TIP3   OH259385   1.979   5.082   1.349 -0.2101  0.4083  0.3215
12657TIP3    H159386   2.004   5.029   1.273 -1.0341 -0.4968  0.6706
12657TIP3    H259387   2.030   5.163   1.338  0.4658 -0.1144 -0.6407
12658TIP3   OH259388   4.394   5.887  13.832  0.0347 -0.1025  0.2425
12658TIP3    H159389   4.418   5.894  13.740  1.0157  0.1440  0.4989
12658TIP3    H259390   4.318   5.829  13.833 -1.6651  1.9567 -0.9532
12659TIP3   OH259391   2.480   1.406  14.518 -0.4355 -0.1051 -0.4998
12659TIP3    H159392   2.409   1.424  14.580 -1.1013 -1.1084 -0.9338
12659TIP3    H259393   2.470   1.471  14.450  0.9332  1.6772  0.9050
12660TIP3   OH259394   0.711   2.846   4.964 -0.0113 -0.1773 -0.2823
12660TIP3    H159395   0.638   2.908   4.952 -1.1288 -1.3142  0.3878
12660TIP3    H259396   0.729   2.850   5.058  0.0458 -0.7108 -0.2709
12661TIP3   OH259397   5.585   6.594  14.488  0.3270  0.2113 -0.3243
12661TIP3    H159398   5.509   6.556  14.443  0.1414  1.6467 -1.3066
12661TIP3    H259399   5.599   6.677  14.444  2.3828  0.0617 -0.0213
12662TIP3   OH259400   0.048   4.492   4.234  0.0397  0.2023 -0.2931
12662TIP3    H159401   0.058   4.446   4.317 -0.4245  1.0352  0.2414
12662TIP3    H259402  -0.046   4.510   4.228  0.2520  1.4481 -0.2729
12663TIP3   OH259403   5.553   3.803   0.362 -0.1825 -0.1867  0.0852
12663TIP3    H159404   5.458   3.814   0.349 -0.4258 -1.4167  0.6612
12663TIP3    H259405   5.579   3.880   0.412 -0.8048  0.3488 -0.3854
12664TIP3   OH259406   3.899   0.630   1.898  0.3053  0.1058 -0.3314
12664TIP3    H159407   3.991   0.622   1.872  0.2513 -1.3085 -0.1898
12664TIP3    H259408   3.854   0.568   1.841 -0.3794 -0.1283  0.4637
12665TIP3   OH259409   5.867   0.651  13.287  0.2432 -0.6879 -0.4306
12665TIP3    H159410   5.905   0.672  13.201  0.7009 -0.9333 -0.2931
12665TIP3    H259411   5.943   0.633  13.342 -0.0899 -1.6064 -0.2546
12666TIP3   OH259412   6.249   6.527   3.064  0.6650  0.5567  0.0826
12666TIP3    H159413   6.164   6.554   3.029  0.6345 -0.0898 -0.3593
12666TIP3    H259414   6.234   6.517   3.158  0.2524  0.4733  0.0099
12667TIP3   OH259415   5.399   3.780  10.720  0.2994 -0.3668  0.2070
12667TIP3    H159416   5.376   3.776  10.627  0.3748 -2.4001  0.2503
12667TIP3    H259417   5.344   3.715  10.762  1.4077 -0.6057  1.3454
12668TIP3   OH259418   1.712   1.138   5.786 -0.0072 -0.2164 -0.1405
12668TIP3    H159419   1.785   1.189   5.751  0.8746  1.1400  3.3038
12668TIP3    H259420   1.663   1.200   5.839 -2.0090 -1.8074 -0.0228
12669TIP3   OH259421   2.955   6.702   4.626 -0.0203  0.3496 -0.2949
12669TIP3    H159422   2.988   6.790   4.611  0.6352 -0.0075 -1.0203
12669TIP3    H259423   3.029   6.655   4.665 -0.4483  0.1780  0.3337
12670TIP3   OH259424   0.054   2.448   6.397  0.2477 -0.2886 -0.3353
12670TIP3    H159425   0.127   2.496   6.359 -1.7488  1.2637 -2.4372
12670TIP3    H259426   0.001   2.421   6.323 -0.7448 -2.4702  1.0489
12671TIP3   OH259427   3.521   3.125   3.713 -0.8117  0.0920  0.2228
12671TIP3    H159428   3.553   3.216   3.710  0.2843 -0.3038 -1.3067
12671TIP3    H259429   3.477   3.118   3.798  0.3913  1.6183  1.0322
12672TIP3   OH259430   5.165   6.189   6.615  0.6271  0.0766  0.1019
12672TIP3    H159431   5.203   6.202   6.702 -0.3346  1.9674  0.2786
12672TIP3    H259432   5.225   6.128   6.572  2.5350  1.0783  1.1992
12673TIP3   OH259433   4.309   0.848  12.852  0.1781  0.0145 -0.0895
12673TIP3    H159434   4.377   0.895  12.901  0.3468  0.3246 -0.6090
12673TIP3    H259435   4.329   0.866  12.760 -1.2249  1.0047 -0.2318
12674TIP3   OH259436   6.271   3.232  16.134 -0.4940 -0.8527 -0.1269
12674TIP3    H159437   6.325   3.203  16.208 -0.8602 -2.0219 -0.3118
12674TIP3    H259438   6.328   3.293  16.086 -0.5114  0.5469  1.5147
12675TIP3   OH259439   2.173   5.346   6.187 -0.3598  0.3846 -0.4589
12675TIP3    H159440   2.087   5.322   6.221  0.7454 -1.3567  1.3449
12675TIP3    H259441   2.189   5.434   6.222 -0.2872 -0.3996  1.6198
12676TIP3   OH259442   5.865   5.131  14.236  0.6119  0.7581 -0.3650
12676TIP3    H159443   5.872   5.124  14.141 -1.2273 -1.4888 -0.4212
12676TIP3    H259444   5.954   5.120  14.268  0.8882 -1.9775 -1.7547
12677TIP3   OH259445   6.441   1.254   2.962  0.2792  0.0136  0.1602
12677TIP3    H159446   6.468   1.305   2.887  3.1099 -1.5402 -0.0012
12677TIP3    H259447   6.511   1.265   3.026  0.6038 -2.8491  0.4462
12678TIP3   OH259448   3.418   3.066   1.148 -0.9238  0.2808  0.1017
12678TIP3    H159449   3.505   3.104   1.155 -0.7501 -0.2359  0.8688
12678TIP3    H259450   3.385   3.097   1.064  0.9350 -1.4316 -1.3629
12679TIP3   OH259451   1.905   4.582   0.693  0.0341 -0.4149 -0.0352
12679TIP3    H159452   1.975   4.535   0.740 -0.5394 -1.0253  0.2262
12679TIP3    H259453   1.921   4.674   0.713 -0.9982 -0.6964  2.5713
12680TIP3   OH259454   1.032   3.615   5.840 -0.2357  0.3684 -0.2281
12680TIP3    H159455   1.020   3.694   5.787  0.1038  0.2745 -0.4475
12680TIP3    H259456   1.026   3.646   5.930  0.0248  0.6687 -0.3129
12681TIP3   OH259457   3.694   3.759   3.742  1.0779  0.0015 -0.5181
12681TIP3    H159458   3.660   3.844   3.772  1.7378  0.5713 -1.3233
12681TIP3    H259459   3.768   3.782   3.686  3.1907 -1.2168  1.5972
12682TIP3   OH259460   4.282   2.921  11.334 -0.3698 -0.4111  0.2477
12682TIP3    H159461   4.303   2.899  11.243 -0.8588 -1.3989  0.3473
12682TIP3    H259462   4.357   2.889  11.384  0.0237  0.3790  0.1758
12683TIP3   OH259463   2.208   2.037   0.748  0.5996  0.3543  0.3812
12683TIP3    H159464   2.209   2.132   0.755 -1.4742  0.3601  1.4743
12683TIP3    H259465   2.292   2.014   0.709  0.2269  2.7720 -2.1348
12684TIP3   OH259466   0.202   2.914   4.211  0.0234  0.5131  0.5690
12684TIP3    H159467   0.142   2.976   4.167 -0.6412 -0.2644  0.3573
12684TIP3    H259468   0.144   2.860   4.265  0.3895 -0.9945 -0.5103
12685TIP3   OH259469   4.012   1.691  13.455  0.0747  0.2133 -0.0362
12685TIP3    H159470   4.057   1.657  13.532  1.4483 -0.2254 -0.9963
12685TIP3    H259471   3.987   1.780  13.479  3.8114  1.5149 -0.2858
12686TIP3   OH259472   5.686   3.843  12.195  0.0909 -0.1638 -0.2790
12686TIP3    H159473   5.663   3.842  12.102 -0.9804  0.4468 -0.0294
12686TIP3    H259474   5.693   3.751  12.219 -0.2596 -0.3300 -0.8111
12687TIP3   OH259475   5.055   5.169  17.034 -0.6687 -0.1406  0.7280
12687TIP3    H159476   5.052   5.259  17.002 -0.6219 -0.5162 -0.3760
12687TIP3    H259477   4.964   5.139  17.029 -0.6385 -0.2483  0.8184
12688TIP3   OH259478   0.737   2.590  12.353 -0.0822  0.3207  0.1259
12688TIP3    H159479   0.750   2.510  12.302  1.4007  1.3710 -1.2545
12688TIP3    H259480   0.695   2.561  12.434  2.0990 -2.1295  0.5046
12689TIP3   OH259481   0.888   1.891  16.451  0.1103 -0.6347 -0.3462
12689TIP3    H159482   0.792   1.881  16.453  0.1959 -1.9648 -1.4498
12689TIP3    H259483   0.901   1.982  16.424 -0.7998  0.1642  1.6725
12690TIP3   OH259484   0.478   3.030   4.173  0.2413 -0.2244  0.1109
12690TIP3    H159485   0.396   2.998   4.211 -0.0301 -1.0445 -1.1068
12690TIP3    H259486   0.522   3.075   4.245 -1.4336  0.5426  0.7026
12691TIP3   OH259487   6.714   5.827  13.533 -0.3894  0.4760  0.0426
12691TIP3    H159488   6.732   5.744  13.575  0.4846  1.0837  0.9160
12691TIP3    H259489   6.685   5.804  13.445  1.0220 -0.7120 -0.1382
12692TIP3   OH259490   0.881   0.968  12.595  0.3498 -0.3622 -0.3619
12692TIP3    H159491   0.925   0.925  12.668 -0.9562  0.6338  1.0752
12692TIP3    H259492   0.807   1.014  12.635 -0.8927 -0.4371 -2.4349
12693TIP3   OH259493   1.603   2.606   0.061  0.2103  0.0434 -0.4404
12693TIP3    H159494   1.685   2.567   0.090 -0.3813  0.4616  1.9561
12693TIP3    H259495   1.549   2.531   0.035  1.7590 -0.1818 -3.5950
12694TIP3   OH259496   4.299   3.488   3.444 -0.2687 -0.0768 -0.1014
12694TIP3    H159497   4.230   3.532   3.494  1.1083  2.3235 -0.1993
12694TIP3    H259498   4.284   3.395   3.461 -1.4334  0.5170  2.6751
12695TIP3   OH259499   5.016   1.874   0.604  0.4233  0.3526 -0.0750
12695TIP3    H159500   5.025   1.933   0.529  0.1028  1.7751  0.9629
12695TIP3    H259501   4.995   1.789   0.565  2.1254  0.6009 -1.6771
12696TIP3   OH259502   4.681   6.654   1.253 -0.0880  0.5613  0.2865
12696TIP3    H159503   4.696   6.565   1.223  3.5747  0.8963  0.6811
12696TIP3    H259504   4.589   6.655   1.281 -1.4907 -1.8665 -3.4511
12697TIP3   OH259505   4.480   6.181   3.279  0.0269 -0.0841 -0.0728
12697TIP3    H159506   4.425   6.227   3.343  1.9780  0.5621  1.2107
12697TIP3    H259507   4.443   6.092   3.276 -2.1285  0.7640 -0.5775
12698TIP3   OH259508   3.714   1.268   5.430  0.4885 -0.0262  0.0595
12698TIP3    H159509   3.804   1.302   5.432  0.1457  0.9027  0.0264
12698TIP3    H259510   3.660   1.345   5.415 -0.4179 -0.3918  1.2898
12699TIP3   OH259511   3.700   2.812  11.843  0.2230 -1.0521 -0.5460
12699TIP3    H159512   3.739   2.763  11.915  1.8072  0.0173 -0.6191
12699TIP3    H259513   3.639   2.750  11.802 -1.6322 -1.3266  2.3709
12700TIP3   OH259514   2.705   2.413  12.859 -0.0608 -0.1500 -0.3649
12700TIP3    H159515   2.789   2.454  12.841 -1.0678  1.8398 -0.7750
12700TIP3    H259516   2.693   2.351  12.787  0.0657  1.1615 -1.5477
12701TIP3   OH259517   0.323   4.848  14.781 -1.0413 -0.2272 -0.2606
12701TIP3    H159518   0.416   4.858  14.762 -0.7241 -0.5445  1.0192
12701TIP3    H259519   0.316   4.762  14.822 -1.5794  0.5673  1.4058
12702TIP3   OH259520   4.027   1.258   4.559  0.0590  0.1707  0.1160
12702TIP3    H159521   3.952   1.200   4.574  0.9902 -1.4873 -1.2937
12702TIP3    H259522   4.103   1.206   4.585  0.8191  1.4199  0.4562
12703TIP3   OH259523   2.061   3.426   1.685  0.1059 -0.6456 -0.2696
12703TIP3    H159524   2.061   3.358   1.753 -2.5319 -1.1524 -0.6649
12703TIP3    H259525   2.102   3.501   1.727 -1.4901 -0.9174  1.9860
12704TIP3   OH259526   2.478   2.633  12.373 -0.0899 -0.3110 -0.0498
12704TIP3    H159527   2.507   2.595  12.290  0.0159 -1.3461  0.4464
12704TIP3    H259528   2.382   2.630  12.369 -0.1170  0.7608 -0.6235
12705TIP3   OH259529   2.495   5.422   2.759  0.6392 -0.0109 -0.1323
12705TIP3    H159530   2.547   5.354   2.715  0.4889  0.7033 -1.4620
12705TIP3    H259531   2.472   5.483   2.689 -0.3621  0.7051  0.8007
12706TIP3   OH259532   4.669   2.590   5.657 -0.7488  0.0944 -0.4137
12706TIP3    H159533   4.616   2.514   5.634 -1.7444  0.8427 -0.6450
12706TIP3    H259534   4.759   2.559   5.650 -1.1093 -1.9438  2.4024
12707TIP3   OH259535   3.334   3.895  10.609 -0.1809 -0.0990  0.0793
12707TIP3    H159536   3.416   3.919  10.653 -1.1013 -0.6442  2.2204
12707TIP3    H259537   3.343   3.802  10.590 -1.6481 -1.2360  3.8809
12708TIP3   OH259538   6.387   0.481  12.612 -0.0993  0.5832 -0.9106
12708TIP3    H159539   6.342   0.550  12.660  0.1216  0.0631  0.0570
12708TIP3    H259540   6.440   0.435  12.677  0.2435 -0.1143 -1.6482
12709TIP3   OH259541   4.467   0.649   1.239 -0.2390  0.1106 -0.1449
12709TIP3    H159542   4.508   0.654   1.152  0.4494  0.1815  0.1814
12709TIP3    H259543   4.408   0.574   1.232  2.5988 -2.3654  0.4488
12710TIP3   OH259544   4.235   5.364  16.682 -0.3434 -0.3114  0.2895
12710TIP3    H159545   4.166   5.426  16.706  0.4099  0.2671  1.0305
12710TIP3    H259546   4.217   5.286  16.735 -1.4641 -0.8790 -0.8580
12711TIP3   OH259547   4.853   4.431  15.056 -0.2240  0.3386 -0.1993
12711TIP3    H159548   4.898   4.353  15.089 -1.8330 -1.1542 -1.3374
12711TIP3    H259549   4.828   4.408  14.966  0.4031  2.7000 -1.0677
12712TIP3   OH259550   5.448   4.370   6.876  0.5741 -0.3643 -0.0147
12712TIP3    H159551   5.470   4.461   6.896 -0.3910  0.6230 -2.8676
12712TIP3    H259552   5.532   4.326   6.865  1.1476  1.0816 -1.9101
12713TIP3   OH259553   1.118   3.656  14.090 -0.5725 -0.5311 -0.8342
12713TIP3    H159554   1.210   3.680  14.098 -1.1499  1.3923  1.1326
12713TIP3    H259555   1.079   3.724  14.035 -1.0394 -0.6866 -0.7088
12714TIP3   OH259556   0.671   2.449  13.625  0.9156 -0.5229  0.1680
12714TIP3    H159557   0.679   2.529  13.573  0.3158 -1.0028 -0.6970
12714TIP3    H259558   0.760   2.413  13.627  1.0675 -0.1587  0.0355
12715TIP3   OH259559   0.382   1.457   5.102 -1.0160 -0.5617 -0.1506
12715TIP3    H159560   0.444   1.509   5.154  0.0876  0.6356 -2.5012
12715TIP3    H259561   0.314   1.433   5.164  0.3217  0.5626  1.8910
12716TIP3   OH259562   0.870   5.974  11.117 -0.2648 -0.2718 -0.3373
12716TIP3    H159563   0.838   5.901  11.064  0.0442 -1.8257  1.4883
12716TIP3    H259564   0.953   5.943  11.153 -0.6443  0.5280  1.3460
12717TIP3   OH259565   3.534   4.502  10.697 -0.0957 -0.2837  0.6160
12717TIP3    H159566   3.541   4.406  10.695 -0.6341 -0.3403  1.2062
12717TIP3    H259567   3.560   4.529  10.609 -0.5675 -1.0114  0.2404
12718TIP3   OH259568   1.533   6.404   6.019 -0.6174 -0.5049 -0.0767
12718TIP3    H159569   1.452   6.455   6.021 -1.7188 -2.1659  2.2594
12718TIP3    H259570   1.507   6.321   5.979 -0.2713 -1.3108  1.3284
12719TIP3   OH259571   1.100   0.473   3.307  0.4369 -0.0405  0.0252
12719TIP3    H159572   1.133   0.563   3.306 -0.7703  0.4110 -0.5447
12719TIP3    H259573   1.013   0.479   3.267 -0.2714 -1.2134  1.3237
12720TIP3   OH259574   2.700   5.238  12.353 -0.0592 -0.2544  0.2774
12720TIP3    H159575   2.635   5.170  12.369  0.5038 -0.4672  1.8373
12720TIP3    H259576   2.758   5.201  12.286 -1.3449 -0.1628 -0.9445
12721TIP3   OH259577   1.182   5.276  14.683 -0.0301 -0.2223 -0.5654
12721TIP3    H159578   1.178   5.371  14.674 -1.1752 -0.0481  1.2378
12721TIP3    H259579   1.244   5.262  14.756  0.1042 -0.8637 -0.7960
12722TIP3   OH259580   1.838   5.349   1.204  0.0341  0.6042  0.1888
12722TIP3    H159581   1.774   5.298   1.252  0.8641  0.6128  1.3440
12722TIP3    H259582   1.800   5.436   1.198  1.1396  1.4894  3.5959
12723TIP3   OH259583   3.990   2.783  17.236 -0.3357  0.0416 -0.0472
12723TIP3    H159584   3.918   2.846  17.227 -0.3284 -0.0255 -0.6367
12723TIP3    H259585   3.960   2.722  17.303 -0.8240  0.0289 -0.2704
12724TIP3   OH259586   2.201   2.151  12.917 -0.3364  0.3155  0.8294
12724TIP3    H159587   2.213   2.216  12.848 -2.3960  0.0038  0.1006
12724TIP3    H259588   2.107   2.153  12.936  0.1541  0.4338  3.7046
12725TIP3   OH259589   6.361   6.026   1.131  0.1706  0.0462 -0.5434
12725TIP3    H159590   6.442   5.982   1.105 -1.1254 -2.0224 -1.3666
12725TIP3    H259591   6.292   5.968   1.100 -1.6272  0.9034  1.6110
12726TIP3   OH259592   1.654   1.913   5.073 -0.2018 -0.0459  0.3498
12726TIP3    H159593   1.649   1.951   5.161 -1.1813  1.2547 -0.2387
12726TIP3    H259594   1.568   1.874   5.059  0.3866 -1.4320  0.4534
12727TIP3   OH259595   2.319   4.830  15.289 -0.8522  0.5767 -0.1808
12727TIP3    H159596   2.339   4.758  15.348  0.2683  0.8916 -0.1448
12727TIP3    H259597   2.399   4.883  15.288 -0.6589  0.3608 -2.2948
12728TIP3   OH259598   1.530   5.371   1.512 -0.9027 -0.2236 -0.1447
12728TIP3    H159599   1.600   5.308   1.494 -1.1118 -0.0565 -1.6828
12728TIP3    H259600   1.454   5.336   1.465 -1.0609  1.0901 -0.9198
12729TIP3   OH259601   4.356   5.692   3.254 -0.0688  0.0559 -0.3271
12729TIP3    H159602   4.261   5.695   3.251 -0.1782 -0.3531  1.8095
12729TIP3    H259603   4.381   5.650   3.171 -1.7550 -0.3668 -0.6563
12730TIP3   OH259604   4.689   4.965   1.423  0.2254  0.2502 -0.0430
12730TIP3    H159605   4.784   4.975   1.430  0.6069 -2.6541  0.1285
12730TIP3    H259606   4.663   4.926   1.507 -1.3598  2.1743  0.4251
12731TIP3   OH259607   5.599   1.672   3.176 -0.0580 -0.1227  0.3043
12731TIP3    H159608   5.659   1.632   3.239  1.7467  0.8781 -0.6875
12731TIP3    H259609   5.619   1.628   3.093  0.1933  1.0590 -0.2858
12732TIP3   OH259610   3.904   1.081   4.746  0.2819 -0.2745  0.1937
12732TIP3    H159611   3.850   1.152   4.712  1.0059 -0.1715 -0.8069
12732TIP3    H259612   3.946   1.117   4.824 -0.0685  0.0862  0.2150
12733TIP3   OH259613   0.828   2.253  11.971  0.1835 -1.0517 -0.0550
12733TIP3    H159614   0.904   2.208  11.934  0.8530 -1.2447  1.5050
12733TIP3    H259615   0.846   2.346  11.956  0.5764 -1.1142  0.0159
12734TIP3   OH259616   6.636   0.753  15.543  0.3485  0.8502 -0.7460
12734TIP3    H159617   6.586   0.798  15.475 -0.8638 -0.7214 -0.9559
12734TIP3    H259618   6.614   0.660  15.532  1.0641  0.4186  1.0325
12735TIP3   OH259619   2.760   1.052  14.548 -0.3287  0.2336 -0.4467
12735TIP3    H159620   2.758   1.144  14.521  0.3436 -0.0220 -1.4474
12735TIP3    H259621   2.696   1.009  14.491  1.4081 -0.3864 -2.0736
12736TIP3   OH259622   0.716   5.555  17.352 -0.0469 -0.0785 -0.1022
12736TIP3    H159623   0.665   5.580  17.275  1.6531  2.1120 -0.6143
12736TIP3    H259624   0.748   5.638  17.388  2.0112 -1.2523  0.9707
12737TIP3   OH259625   5.694   0.286  14.923  0.2001 -0.2925  0.0994
12737TIP3    H159626   5.673   0.199  14.956  1.0259 -0.2515  0.7681
12737TIP3    H259627   5.786   0.299  14.946  0.1717  0.6304 -0.2645
12738TIP3   OH259628   4.043   0.593  11.131  0.0664 -0.3009  0.1450
12738TIP3    H159629   4.104   0.579  11.204 -1.0054 -0.7805  0.9980
12738TIP3    H259630   4.098   0.618  11.058  1.1974  0.1397  1.1098
12739TIP3   OH259631   0.548   6.569   4.067  1.0276 -0.3741  0.0456
12739TIP3    H159632   0.617   6.594   4.128  0.3880  0.0567  0.6135
12739TIP3    H259633   0.533   6.476   4.085  1.1579 -0.3602  0.2301
12740TIP3   OH259634   3.604   4.231  10.563  0.6479 -0.7859 -0.1277
12740TIP3    H159635   3.691   4.236  10.524  0.5196 -0.2293 -0.3406
12740TIP3    H259636   3.605   4.148  10.611  1.0700 -1.1075 -0.6713
12741TIP3   OH259637   3.812   1.632  15.782 -0.0143 -0.4660 -0.1253
12741TIP3    H159638   3.719   1.645  15.766  0.3044  0.6816 -1.2022
12741TIP3    H259639   3.838   1.707  15.836  0.1764 -1.1334  0.7522
12742TIP3   OH259640   6.088   4.710   4.660  0.0602 -0.0583 -0.0152
12742TIP3    H159641   6.039   4.791   4.674 -1.8748 -1.0575 -0.6251
12742TIP3    H259642   6.041   4.666   4.589  0.5943 -2.0538  0.8119
12743TIP3   OH259643   5.580   3.371  12.139  0.0745  0.0178  0.1238
12743TIP3    H159644   5.597   3.348  12.048  0.3759  0.0183  0.1800
12743TIP3    H259645   5.512   3.438  12.135  0.2338  0.1656 -0.1086
12744TIP3   OH259646   2.382   5.974   5.159  0.1894  0.2850 -0.3611
12744TIP3    H159647   2.353   5.958   5.249  0.7236 -1.2605 -0.4150
12744TIP3    H259648   2.377   6.069   5.148 -1.0349  0.3969  0.8914
12745TIP3   OH259649   0.244   2.961   1.935  0.0463  0.0535  0.0833
12745TIP3    H159650   0.317   2.927   1.986 -0.8829 -0.3507  1.1883
12745TIP3    H259651   0.220   2.889   1.877 -0.9832 -0.7161  1.4029
12746TIP3   OH259652   2.504   2.434  11.403  0.6557 -0.2783  0.8758
12746TIP3    H159653   2.409   2.437  11.396  0.5156 -3.2920  0.2424
12746TIP3    H259654   2.524   2.345  11.431  3.3721 -0.3565 -0.8594
12747TIP3   OH259655   1.451   1.794  11.702  0.5382  0.6640 -0.5739
12747TIP3    H159656   1.396   1.741  11.644  2.1900 -0.6831 -1.0013
12747TIP3    H259657   1.426   1.884  11.682 -4.5384  0.2618  2.3274
12748TIP3   OH259658   6.273   6.743  14.267 -0.1791 -0.0865  0.1024
12748TIP3    H159659   6.211   6.801  14.222 -1.1346 -1.5320 -0.5475
12748TIP3    H259660   6.359   6.775  14.241 -0.6329  1.7147  0.6831
12749TIP3   OH259661   2.165   2.855  11.675 -0.8396 -0.0920  0.0192
12749TIP3    H159662   2.124   2.935  11.643  1.2052  0.3871 -1.6151
12749TIP3    H259663   2.186   2.874  11.767 -1.8770  0.5689  0.1391
12750TIP3   OH259664   5.269   6.249   1.337 -0.4755  0.1052 -0.1589
12750TIP3    H159665   5.187   6.286   1.372 -0.3679 -0.8121  1.1271
12750TIP3    H259666   5.333   6.261   1.407  0.5794  1.0103 -1.2338
12751TIP3   OH259667   4.897   2.920   3.316  0.6267 -0.3760  0.3257
12751TIP3    H159668   4.889   2.866   3.394 -1.0900  0.7018  0.9516
12751TIP3    H259669   4.971   2.978   3.335  0.0667  0.0429  1.2746
12752TIP3   OH259670   0.734   0.057  11.967  0.2384 -0.2392  0.3678
12752TIP3    H159671   0.818   0.100  11.985  0.0893  0.2515 -0.0646
12752TIP3    H259672   0.736  -0.024  12.018  0.4333  0.3971  1.3879
12753TIP3   OH259673   3.705   3.711   3.130  0.5946  0.0975  0.1855
12753TIP3    H159674   3.633   3.674   3.181  2.1549 -0.6280  1.9918
12753TIP3    H259675   3.763   3.637   3.113 -0.2764  0.0760 -3.6223
12754TIP3   OH259676   0.351   1.428  10.990  0.2185 -0.1327  0.7176
12754TIP3    H159677   0.371   1.359  11.053  0.3023  1.1133  2.0937
12754TIP3    H259678   0.339   1.507  11.043 -0.7657  0.7431 -0.7286
12755TIP3   OH259679   5.921   5.458  11.856 -0.0348  0.1345 -0.1295
12755TIP3    H159680   5.831   5.448  11.888 -1.3258 -0.0953 -3.3989
12755TIP3    H259681   5.954   5.368  11.851 -0.6407 -0.0375 -1.3977
12756TIP3   OH259682   2.029   1.203  16.877 -0.0544 -0.3224  0.5538
12756TIP3    H159683   2.084   1.218  16.953  1.0175  0.4453 -0.3433
12756TIP3    H259684   1.942   1.230  16.905  0.3282 -0.0024  1.4823
12757TIP3   OH259685   2.810   4.222  12.133  0.3571  0.3658 -0.0800
12757TIP3    H159686   2.724   4.224  12.174  0.7427 -2.4022  1.1289
12757TIP3    H259687   2.793   4.196  12.043 -0.0790 -0.9418  0.3553
12758TIP3   OH259688   1.254   4.930   3.366  0.5096 -0.2037 -0.1481
12758TIP3    H159689   1.348   4.931   3.354  0.6681 -1.3507  0.7690
12758TIP3    H259690   1.240   4.975   3.450  0.4028 -1.2348  0.4146
12759TIP3   OH259691   1.123   5.773   3.736  0.1882  0.6353 -0.6138
12759TIP3    H159692   1.061   5.795   3.805  1.1090 -0.0393  0.4558
12759TIP3    H259693   1.145   5.858   3.697  0.6073  1.1929  0.7649
12760TIP3   OH259694   5.967   6.360  13.364  0.3477  0.2966 -0.6427
12760TIP3    H159695   6.010   6.414  13.298 -0.0836  1.1581 -0.2409
12760TIP3    H259696   5.944   6.422  13.434 -0.8852 -0.2675 -0.5338
12761TIP3   OH259697   5.606   3.853   1.219  0.2089  0.2020 -0.2149
12761TIP3    H159698   5.681   3.798   1.200 -0.7017 -0.5763 -1.7737
12761TIP3    H259699   5.642   3.940   1.232  1.3981 -0.2010 -0.7365
12762TIP3   OH259700   1.514   6.713  15.360 -0.2958 -0.0565  0.4721
12762TIP3    H159701   1.539   6.626  15.330 -1.8163  0.1306 -1.6090
12762TIP3    H259702   1.557   6.723  15.444  1.5829 -2.0052 -0.1683
12763TIP3   OH259703   6.398   2.607   3.497  0.1798  0.0664 -0.1100
12763TIP3    H159704   6.311   2.580   3.525  0.7974 -1.6838  0.2837
12763TIP3    H259705   6.442   2.634   3.578  0.4688 -0.5027 -0.0713
12764TIP3   OH259706   4.137   1.059  15.062  0.8714 -0.1501  0.0942
12764TIP3    H159707   4.180   1.144  15.055  0.1027  0.3185  0.9322
12764TIP3    H259708   4.044   1.079  15.066  0.7575 -0.8305  2.5915
12765TIP3   OH259709   5.299   4.613   1.196 -0.4117 -0.2593  0.4344
12765TIP3    H159710   5.369   4.679   1.198 -0.2949 -0.3607 -0.2378
12765TIP3    H259711   5.241   4.641   1.125  0.9672 -2.2247 -1.5859
12766TIP3   OH259712   5.414   1.316   5.462 -0.1234 -0.1223  0.0842
12766TIP3    H159713   5.445   1.256   5.394 -0.8067 -0.7116  0.2840
12766TIP3    H259714   5.401   1.399   5.416 -0.1063 -0.3812 -0.4013
12767TIP3   OH259715   1.497   2.494  11.167 -0.2481  0.2413  0.0909
12767TIP3    H159716   1.506   2.533  11.080  3.4011 -0.5518 -0.0167
12767TIP3    H259717   1.505   2.400  11.152 -1.2698 -0.0330  1.1450
12768TIP3   OH259718   6.140   6.168   2.519  0.1136  0.7344 -0.2954
12768TIP3    H159719   6.070   6.201   2.463 -0.4318 -0.1506 -0.1622
12768TIP3    H259720   6.219   6.179   2.467 -0.3751 -0.0165 -1.2383
12769TIP3   OH259721   4.864   2.318   5.964 -0.4671  0.3421 -0.1635
12769TIP3    H159722   4.798   2.259   5.929  0.4741  0.2024 -1.7856
12769TIP3    H259723   4.852   2.314   6.059 -0.6472 -2.1926 -0.2444
12770TIP3   OH259724   1.829   4.363   6.053 -0.6448  0.5549  0.4525
12770TIP3    H159725   1.803   4.314   6.131  1.0412  0.7567  1.1974
12770TIP3    H259726   1.871   4.298   5.996  0.9126  0.9314  1.1112
12771TIP3   OH259727   0.488   2.734   2.632 -0.0795 -0.0900  0.1727
12771TIP3    H159728   0.485   2.718   2.726  3.2112  0.0829  0.4006
12771TIP3    H259729   0.559   2.797   2.620 -0.4394 -0.0600 -2.4464
12772TIP3   OH259730   3.196   0.683   0.133 -0.0723  0.3563  0.1801
12772TIP3    H159731   3.191   0.648   0.222  1.0301 -2.1124 -0.6296
12772TIP3    H259732   3.289   0.702   0.120  0.1514 -1.3210 -1.0665
12773TIP3   OH259733   6.267   6.699  12.450 -0.5917 -0.1760 -0.4242
12773TIP3    H159734   6.186   6.697  12.399 -0.9683  1.1478  0.0864
12773TIP3    H259735   6.239   6.696  12.541  0.0372 -1.5489 -0.2505
12774TIP3   OH259736   0.090   3.182  14.484  0.4870 -0.6978  0.1237
12774TIP3    H159737  -0.002   3.180  14.509 -0.1270  1.7855 -1.5640
12774TIP3    H259738   0.093   3.241  14.409  3.5255 -0.3315  0.4143
12775TIP3   OH259739   5.815   5.566  13.476  0.4527 -0.1237  0.0144
12775TIP3    H159740   5.731   5.580  13.430  0.2885 -2.4860 -0.5425
12775TIP3    H259741   5.824   5.642  13.533 -1.2003  1.0687 -1.2110
12776TIP3   OH259742   2.013   4.041   3.212 -0.3984  0.9841 -0.2528
12776TIP3    H159743   2.037   4.128   3.180  2.0476  0.0895 -1.0849
12776TIP3    H259744   2.065   4.030   3.292 -0.4183  0.1788 -0.3441
12777TIP3   OH259745   0.936   6.725   2.894 -0.3348 -0.0190 -0.3241
12777TIP3    H159746   0.964   6.663   2.826  4.5861  0.8563  0.5793
12777TIP3    H259747   0.931   6.809   2.848  0.6071  0.1632 -0.1079
12778TIP3   OH259748   4.318   5.013  11.511  0.1426 -0.3918  0.3410
12778TIP3    H159749   4.239   5.059  11.483 -0.1666 -1.7322 -1.1546
12778TIP3    H259750   4.390   5.069  11.482 -0.2300 -0.6726 -1.2088
12779TIP3   OH259751   6.251   4.288   0.419  0.0640  0.3556 -0.2205
12779TIP3    H159752   6.176   4.278   0.361 -2.3594  2.3952  2.2473
12779TIP3    H259753   6.318   4.329   0.365 -2.0832  2.2710 -1.6205
12780TIP3   OH259754   4.700   6.432   1.676 -0.1897 -0.3651  0.0318
12780TIP3    H159755   4.764   6.486   1.630 -1.7335  0.0242 -1.7851
12780TIP3    H259756   4.695   6.469   1.764  1.6234 -0.0627  0.0445
12781TIP3   OH259757   1.625   0.627   3.446 -0.3186 -0.1864 -0.3900
12781TIP3    H159758   1.664   0.616   3.532 -0.8825 -0.2225 -0.1343
12781TIP3    H259759   1.655   0.713   3.416 -1.6801  0.7046  0.6843
12782TIP3   OH259760   5.968   1.891  14.136  0.2263  0.0879 -0.9874
12782TIP3    H159761   6.004   1.848  14.059  2.2396 -1.3945  0.6545
12782TIP3    H259762   6.033   1.956  14.162 -0.2787  0.3681 -0.3723
12783TIP3   OH259763   5.211   5.993  15.015 -0.3537  0.0242  0.1681
12783TIP3    H159764   5.249   5.909  15.041 -0.6484 -0.6574 -1.4267
12783TIP3    H259765   5.132   6.001  15.068 -0.0703 -0.4888  0.6756
12784TIP3   OH259766   0.077   3.672   6.043 -0.8918 -0.3256  0.5212
12784TIP3    H159767  -0.015   3.662   6.019 -0.8273  2.3474 -1.3284
12784TIP3    H259768   0.075   3.695   6.136 -2.1617  0.1105  0.4040
12785TIP3   OH259769   6.027   0.364   4.870 -0.0366  0.6148 -0.0547
12785TIP3    H159770   6.041   0.270   4.859 -1.3368  0.3793  0.1647
12785TIP3    H259771   6.065   0.404   4.792  1.0101 -0.0332  0.1004
12786TIP3   OH259772   0.329   3.800   3.484 -0.4828 -0.4649 -0.2376
12786TIP3    H159773   0.408   3.788   3.432  0.0355 -0.0935  0.4562
12786TIP3    H259774   0.314   3.895   3.483 -0.8413 -0.5206 -0.2494
12787TIP3   OH259775   5.800   2.137  15.964  0.1249  0.0358 -0.0490
12787TIP3    H159776   5.798   2.081  16.041 -0.0144  0.4792  0.2749
12787TIP3    H259777   5.739   2.208  15.984 -2.1949 -1.3534 -1.7688
12788TIP3   OH259778   1.626   1.856   3.198 -0.7326  0.9154  0.2958
12788TIP3    H159779   1.610   1.782   3.256 -0.3687  0.9100  0.3945
12788TIP3    H259780   1.617   1.933   3.255 -0.5988  0.9210  0.3095
12789TIP3   OH259781   5.823   5.347   3.995  0.0508 -0.1078 -0.4424
12789TIP3    H159782   5.736   5.383   3.974 -0.9992 -2.1329  0.2637
12789TIP3    H259783   5.805   5.260   4.030  2.4657 -1.1311 -1.5780
12790TIP3   OH259784   6.562   2.165   0.655 -0.4383 -0.1982  0.0176
12790TIP3    H159785   6.567   2.090   0.714  0.1753  0.7866  1.2478
12790TIP3    H259786   6.476   2.156   0.614  0.0553 -2.1611 -0.6978
12791TIP3   OH259787   3.920   5.072  12.329  0.4648 -0.0255  0.3171
12791TIP3    H159788   3.982   5.087  12.257 -0.8485  0.2057 -0.8040
12791TIP3    H259789   3.948   4.988  12.367  0.1298 -1.0760 -1.6187
12792TIP3   OH259790   1.723   4.229  15.093 -0.5589  0.2566  0.3255
12792TIP3    H159791   1.737   4.257  15.184  0.2342 -0.0433  0.3035
12792TIP3    H259792   1.677   4.145  15.100  1.6466 -1.0130  0.5474
12793TIP3   OH259793   6.697   5.418  14.894 -0.4716 -0.4500  0.6295
12793TIP3    H159794   6.737   5.397  14.810 -0.8493  2.5091 -0.3971
12793TIP3    H259795   6.770   5.451  14.947 -0.9223  2.4773 -0.3675
12794TIP3   OH259796   2.025   2.424  13.094 -0.6593 -0.1672 -0.2314
12794TIP3    H159797   1.990   2.349  13.045  0.6095 -0.7739 -0.2557
12794TIP3    H259798   2.041   2.491  13.028 -0.5312 -0.3656 -0.4007
12795TIP3   OH259799   0.089   6.328  17.351 -0.0107  0.3730  0.4532
12795TIP3    H159800   0.148   6.321  17.426 -0.6842 -0.5141  0.9170
12795TIP3    H259801   0.056   6.239  17.339 -0.2123  0.5858 -0.6605
12796TIP3   OH259802   0.294   5.915  13.576 -0.5594 -0.2139 -0.3825
12796TIP3    H159803   0.356   5.848  13.548  0.4095  0.4145  0.1901
12796TIP3    H259804   0.247   5.877  13.649 -0.2995 -0.4183 -0.3215
12797TIP3   OH259805   1.243   2.273  17.294  0.1089  0.7373  0.1338
12797TIP3    H159806   1.149   2.266  17.310  0.2590  0.7044  1.0154
12797TIP3    H259807   1.283   2.206  17.349  0.5474 -0.3422 -1.4485
12798TIP3   OH259808   4.877   0.548  12.137  0.3256  0.4568  0.5901
12798TIP3    H159809   4.813   0.570  12.205  1.5914  1.4640  1.5052
12798TIP3    H259810   4.951   0.607  12.153  0.4986  1.0588 -1.9536
12799TIP3   OH259811   0.698   4.639   5.653  0.7487  0.1827  0.1823
12799TIP3    H159812   0.722   4.714   5.707 -0.1770  0.7201 -0.1248
12799TIP3    H259813   0.780   4.612   5.611  1.4113 -0.0161  1.5416
12800TIP3   OH259814   5.434   2.455  13.450 -0.6474  0.1204  0.7135
12800TIP3    H159815   5.361   2.400  13.478 -0.1206  0.4516  2.9307
12800TIP3    H259816   5.423   2.537  13.500  0.9355  0.3528  0.7371
12801TIP3   OH259817   5.032   3.430  13.249 -0.1024 -0.1667  0.4693
12801TIP3    H159818   5.038   3.439  13.344  1.7749 -2.5331  0.6791
12801TIP3    H259819   4.994   3.343  13.236  0.6307 -0.2944 -0.9346
12802TIP3   OH259820   0.688   4.870  16.978 -0.4317 -0.1254 -0.0010
12802TIP3    H159821   0.725   4.840  17.061  1.0389  1.5101 -0.0114
12802TIP3    H259822   0.595   4.849  16.983  0.0391 -2.1214  1.0880
12803TIP3   OH259823   1.529   6.372  14.971  0.0177 -0.2727  0.0787
12803TIP3    H159824   1.566   6.364  14.883 -0.2247  0.5979 -0.1111
12803TIP3    H259825   1.437   6.395  14.957  0.0977  0.3673  0.5563
12804TIP3   OH259826   1.179   1.899   0.610  0.2212 -0.3820  0.6356
12804TIP3    H159827   1.156   1.908   0.703 -2.3188  0.3968 -0.0200
12804TIP3    H259828   1.262   1.947   0.602 -1.2418  2.6089  1.8636
12805TIP3   OH259829   0.857   0.197   2.764  0.3277  0.0246 -0.2302
12805TIP3    H159830   0.815   0.260   2.705 -0.1142 -0.8278 -0.8452
12805TIP3    H259831   0.816   0.214   2.850  0.0715  0.4422 -0.4294
12806TIP3   OH259832   1.944   0.498   4.583  0.0141 -0.0901  0.2012
12806TIP3    H159833   1.938   0.405   4.563 -3.6966  0.3185 -1.3502
12806TIP3    H259834   1.989   0.537   4.508 -1.0432 -0.3002 -0.5486
12807TIP3   OH259835   0.342   6.012  14.164  0.1220  0.5064  0.4999
12807TIP3    H159836   0.424   6.010  14.115  0.0624 -2.0820  0.4204
12807TIP3    H259837   0.273   6.007  14.098 -0.0376  0.2035  0.6876
12808TIP3   OH259838   6.105   0.210   4.139 -0.6938  0.2886 -0.2555
12808TIP3    H159839   6.031   0.269   4.122 -1.0161 -0.0518 -0.0553
12808TIP3    H259840   6.098   0.143   4.071 -1.1541 -0.2874  0.3390
12809TIP3   OH259841   0.079   2.816  14.933  0.7374 -0.1338 -0.8259
12809TIP3    H159842   0.011   2.750  14.921  1.3088 -0.7564 -0.7215
12809TIP3    H259843   0.145   2.772  14.986  1.7006  0.1033 -1.7885
12810TIP3   OH259844   4.488   0.305  12.843 -0.4516  0.1968  0.6188
12810TIP3    H159845   4.456   0.215  12.833  1.0612 -0.2509 -0.6942
12810TIP3    H259846   4.452   0.351  12.767  1.3891 -0.1567 -0.5189
12811TIP3   OH259847   2.383   1.959  13.821  0.6540  0.0850  0.2586
12811TIP3    H159848   2.410   2.001  13.739  1.5958  0.7521  0.8950
12811TIP3    H259849   2.430   2.006  13.889  0.4214 -0.9112  1.1393
12812TIP3   OH259850   1.931   5.749   4.561  0.6521  0.1775  0.2211
12812TIP3    H159851   1.891   5.819   4.510  0.7433  0.3119  0.3319
12812TIP3    H259852   1.885   5.753   4.646 -0.0073 -0.5145 -0.0892
12813TIP3   OH259853   5.732   6.146   5.468  0.0924 -0.2367  0.4228
12813TIP3    H159854   5.774   6.064   5.443 -1.5856 -1.1365  0.4369
12813TIP3    H259855   5.679   6.124   5.544  1.0409  1.3084  1.6006
12814TIP3   OH259856   6.385   4.453  13.264  0.1231  0.0793  0.5557
12814TIP3    H159857   6.432   4.475  13.184  1.5661 -0.3321  1.2393
12814TIP3    H259858   6.375   4.358  13.261  0.8131 -0.0247  1.1655
12815TIP3   OH259859   3.824   6.348  16.160 -0.2226 -0.2401 -0.2701
12815TIP3    H159860   3.731   6.331  16.148 -0.6935  1.6643  0.4117
12815TIP3    H259861   3.851   6.391  16.079  0.9842 -3.8428 -2.0262
12816TIP3   OH259862   1.548   6.563  10.564  0.5967 -0.0757 -0.2465
12816TIP3    H159863   1.636   6.571  10.528  0.7596  0.4975  0.2456
12816TIP3    H259864   1.523   6.653  10.585 -0.7660 -0.0238 -1.8698
12817TIP3   OH259865   0.301   6.412   5.173 -0.4426  0.2935  0.5144
12817TIP3    H159866   0.255   6.335   5.207  2.3003 -2.2747 -1.1193
12817TIP3    H259867   0.368   6.430   5.239  1.8854 -1.7764 -1.1153
12818TIP3   OH259868   6.385   0.324  14.708  0.2912  0.6136  0.1419
12818TIP3    H159869   6.480   0.334  14.705  0.3804 -0.1966  0.0837
12818TIP3    H259870   6.364   0.276  14.628  0.1922 -1.8639  1.5551
12819TIP3   OH259871   3.460   3.199   2.153  0.3584 -0.0653 -0.2594
12819TIP3    H159872   3.555   3.184   2.149  0.1477 -1.5575 -0.3183
12819TIP3    H259873   3.445   3.276   2.099  1.9066  2.2150  2.2998
12820TIP3   OH259874   5.439   1.757   5.453  0.2384 -0.0112  0.1220
12820TIP3    H159875   5.392   1.739   5.372  1.0984  1.3328 -0.7271
12820TIP3    H259876   5.527   1.721   5.439  0.1907 -0.3791  0.7326
12821TIP3   OH259877   3.491   5.109  11.166 -0.5157 -0.4066  0.1490
12821TIP3    H159878   3.527   5.101  11.078  0.3871 -0.4623  0.5080
12821TIP3    H259879   3.485   5.019  11.198  1.7975 -0.2799  1.1409
12822TIP3   OH259880   1.135   2.572  16.964  0.2360 -0.1035  0.4988
12822TIP3    H159881   1.065   2.586  17.028  1.7117  0.7187  1.9831
12822TIP3    H259882   1.173   2.488  16.988 -1.1205 -1.2884 -1.2309
12823TIP3   OH259883   5.741   4.699  12.121 -0.0952 -0.0231 -0.2290
12823TIP3    H159884   5.832   4.669  12.124 -0.0495  0.1975  1.7036
12823TIP3    H259885   5.746   4.794  12.133 -0.6264 -0.2077  1.9031
12824TIP3   OH259886   0.097   1.152  15.353  0.0670 -0.3027 -0.1217
12824TIP3    H159887   0.004   1.174  15.364  0.1665 -0.4761  1.2616
12824TIP3    H259888   0.098   1.057  15.350  0.2122 -0.3037 -0.0182
12825TIP3   OH259889   1.768   0.760   4.692  0.3757  0.1012 -0.2287
12825TIP3    H159890   1.782   0.772   4.598  0.1096 -1.0067 -0.4247
12825TIP3    H259891   1.813   0.678   4.713  0.6413  0.4657  0.6583
12826TIP3   OH259892   3.464   4.360   3.725 -0.1277 -0.1377 -0.5458
12826TIP3    H159893   3.439   4.267   3.725  2.1786 -0.8165  0.1601
12826TIP3    H259894   3.415   4.397   3.798 -0.1396 -1.0797 -0.0562
12827TIP3   OH259895   0.457   0.583   1.325  0.0206  0.1913  0.7291
12827TIP3    H159896   0.518   0.524   1.371 -1.7892 -0.6692  2.1336
12827TIP3    H259897   0.461   0.665   1.374  1.2801  0.7398 -0.2228
12828TIP3   OH259898   3.299   6.067  13.321 -0.0686  0.1071 -0.0001
12828TIP3    H159899   3.330   6.156  13.300  2.2315 -0.4256  0.7865
12828TIP3    H259900   3.249   6.041  13.244  1.0530  1.2998 -1.2057
12829TIP3   OH259901   0.475   4.439   2.317  0.9974 -0.0523  0.3003
12829TIP3    H159902   0.538   4.486   2.263 -0.3630 -0.1374 -1.4128
12829TIP3    H259903   0.447   4.365   2.264 -0.1433 -0.3424  1.2511
12830TIP3   OH259904   6.603   0.544   4.808 -0.2390 -0.8960  0.1713
12830TIP3    H159905   6.579   0.512   4.895  0.5481 -3.5306 -0.4929
12830TIP3    H259906   6.699   0.545   4.809 -0.1503 -2.8314 -1.2013
12831TIP3   OH259907   2.104   2.647   5.443  0.0416 -0.2218 -0.0889
12831TIP3    H159908   2.023   2.659   5.492 -0.2277 -0.2924 -0.5157
12831TIP3    H259909   2.139   2.736   5.433  1.0220 -0.3425  1.7637
12832TIP3   OH259910   6.695   3.053   3.046  0.0411  0.1556  0.8173
12832TIP3    H159911   6.721   3.069   2.955  0.8498 -1.0716  0.8193
12832TIP3    H259912   6.627   2.986   3.041 -0.9930  1.1577  1.0346
12833TIP3   OH259913   2.923   4.233  15.024  0.3970 -0.1587  0.1907
12833TIP3    H159914   2.941   4.299  15.091 -1.3238 -0.0940  0.6507
12833TIP3    H259915   2.985   4.253  14.954  0.3149  1.6068  0.5610
12834TIP3   OH259916   5.525   1.566  10.616  0.6242  0.7477 -0.1985
12834TIP3    H159917   5.432   1.586  10.605  0.7599  0.6027 -1.7965
12834TIP3    H259918   5.529   1.470  10.618  0.6874  0.7596  0.4781
12835TIP3   OH259919   1.837   0.294  16.153 -0.2487 -0.7102  0.3154
12835TIP3    H159920   1.871   0.240  16.081 -1.1821 -1.6994  0.5951
12835TIP3    H259921   1.867   0.383  16.132  0.1023 -1.0957 -0.9158
12836TIP3   OH259922   5.358   3.276   3.574 -0.6053 -0.1906  0.1218
12836TIP3    H159923   5.300   3.204   3.551 -2.5869  0.9150  1.3675
12836TIP3    H259924   5.344   3.289   3.668  1.0305  0.6808  0.2751
12837TIP3   OH259925   1.274   3.013   1.214 -0.4159  0.2917  0.5903
12837TIP3    H159926   1.292   2.920   1.223  1.6354  0.4641 -1.1825
12837TIP3    H259927   1.233   3.022   1.128 -2.0243  0.9040  1.3671
12838TIP3   OH259928   1.835   5.200   5.972  0.1207  0.4808 -0.5028
12838TIP3    H159929   1.757   5.183   6.025  1.4523 -1.5578  0.9576
12838TIP3    H259930   1.860   5.290   5.994 -0.7586  0.5026  0.4599
12839TIP3   OH259931   2.670   3.488   5.648 -0.5755 -0.2600  0.5346
12839TIP3    H159932   2.765   3.489   5.658 -0.8014  0.3138  4.1346
12839TIP3    H259933   2.650   3.573   5.608  0.4267 -0.8647 -1.3728
12840TIP3   OH259934   0.439   5.914  13.031 -0.1834 -0.2731 -0.0859
12840TIP3    H159935   0.351   5.905  12.995  0.0062 -0.8984 -0.4149
12840TIP3    H259936   0.458   6.007  13.027 -0.6654 -0.1859 -0.4056
12841TIP3   OH259937   4.438   4.612   4.809 -0.2560 -0.2685  0.5435
12841TIP3    H159938   4.393   4.532   4.838 -1.0846 -0.0024  0.0095
12841TIP3    H259939   4.429   4.611   4.714 -0.1745  0.4118  0.5302
12842TIP3   OH259940   5.069   6.482   4.536  0.0484 -0.5944 -0.1791
12842TIP3    H159941   5.095   6.562   4.489  0.9511 -0.3978  0.6277
12842TIP3    H259942   5.073   6.413   4.469 -0.9999  0.0656 -0.9453
12843TIP3   OH259943   3.905   6.277  11.534 -0.4827  0.3151 -0.1420
12843TIP3    H159944   3.891   6.229  11.452  0.6917 -0.4003  0.0631
12843TIP3    H259945   3.949   6.357  11.508 -0.4534  0.2649 -0.2463
12844TIP3   OH259946   2.568   0.845   3.746  0.5563 -0.3173  0.1923
12844TIP3    H159947   2.606   0.930   3.723  1.5653 -0.3118  1.7563
12844TIP3    H259948   2.590   0.789   3.671  1.8627  0.2362  0.1228
12845TIP3   OH259949   0.618   3.605  14.963 -0.3369 -0.0757  0.0858
12845TIP3    H159950   0.659   3.655  14.892  1.0387 -3.8042 -1.9996
12845TIP3    H259951   0.609   3.517  14.928 -1.0968 -1.7682  4.0525
12846TIP3   OH259952   2.589   4.010  12.130  0.3547  0.8114  0.7086
12846TIP3    H159953   2.502   4.024  12.169  0.1301 -0.2628  0.6268
12846TIP3    H259954   2.594   4.073  12.058 -1.8410 -1.4113 -1.6186
12847TIP3   OH259955   0.980   5.595   5.996 -0.0524 -0.2756  0.5039
12847TIP3    H159956   0.921   5.670   6.002 -0.1234 -0.3307  0.5033
12847TIP3    H259957   0.945   5.543   5.924  0.3554 -0.0011  0.1074
12848TIP3   OH259958   6.252   1.504   2.795 -0.0093  0.0562  0.1621
12848TIP3    H159959   6.185   1.568   2.816 -0.6691  0.0927 -1.9056
12848TIP3    H259960   6.204   1.423   2.780  0.6979 -0.6348  1.4408
12849TIP3   OH259961   0.076   0.178  16.256 -0.4333  0.1059  0.6205
12849TIP3    H159962   0.125   0.121  16.315 -0.6485 -0.8919 -0.1578
12849TIP3    H259963   0.100   0.150  16.168 -0.8517  0.9481  0.2240
12850TIP3   OH259964   0.414   4.947  12.379 -0.3290 -0.1468 -0.2832
12850TIP3    H159965   0.498   4.949  12.334  0.7405 -2.1408  1.3946
12850TIP3    H259966   0.349   4.949  12.310  0.9995  2.7608 -1.5934
12851TIP3   OH259967   2.330   1.058  13.815 -0.1579 -0.3620 -0.0806
12851TIP3    H159968   2.322   1.139  13.865  0.6959 -0.4431  0.2020
12851TIP3    H259969   2.340   0.990  13.882 -0.9288 -0.7171 -0.3118
12852TIP3   OH259970   1.493   5.497  15.937  0.0405  0.4009  0.0059
12852TIP3    H159971   1.530   5.577  15.975  0.4407  0.3097 -0.1829
12852TIP3    H259972   1.418   5.528  15.885 -0.1983  0.5794  0.4518
12853TIP3   OH259973   6.110   1.583   2.473  0.3204  0.3503 -0.4621
12853TIP3    H159974   6.018   1.557   2.487  0.3934  0.2884 -0.0722
12853TIP3    H259975   6.148   1.508   2.427  0.1146  0.4809 -0.8487
12854TIP3   OH259976   6.641   2.793   4.348 -0.4016 -0.0886 -0.1470
12854TIP3    H159977   6.632   2.708   4.305  2.3686 -0.5417 -0.0412
12854TIP3    H259978   6.704   2.777   4.418  0.7165  2.1832 -0.5524
12855TIP3   OH259979   4.354   5.412   6.901 -0.7678 -0.2307  0.5026
12855TIP3    H159980   4.305   5.340   6.940 -2.0991  0.7170  0.6696
12855TIP3    H259981   4.435   5.373   6.870 -0.9901 -1.5816  1.5502
12856TIP3   OH259982   5.822   0.504   3.669 -0.0328  0.1263 -0.1782
12856TIP3    H159983   5.789   0.469   3.752 -1.1106  0.1375 -0.5853
12856TIP3    H259984   5.746   0.545   3.629 -0.4967 -2.8240 -2.7336
12857TIP3   OH259985   1.248   2.628  11.733  0.4282 -0.2544  0.9826
12857TIP3    H159986   1.166   2.582  11.750  0.9470 -0.9137  1.7739
12857TIP3    H259987   1.283   2.649  11.820  2.1508 -1.8906  0.7483
12858TIP3   OH259988   6.595   4.752  14.384  0.0501  0.4657 -0.3946
12858TIP3    H159989   6.646   4.827  14.413  1.3836  0.1134 -1.6770
12858TIP3    H259990   6.651   4.676  14.401 -1.3736 -0.3101  1.1154
12859TIP3   OH259991   5.255   5.278  15.020  0.1232 -0.1261 -0.6490
12859TIP3    H159992   5.350   5.285  15.019  0.0564  1.2039 -0.2178
12859TIP3    H259993   5.235   5.214  15.088  0.6659  1.0009  0.6063
12860TIP3   OH259994   6.705   5.148   1.656  0.5136  0.6320 -0.6671
12860TIP3    H159995   6.714   5.219   1.720  1.6166  0.1273 -0.2218
12860TIP3    H259996   6.775   5.164   1.593  0.2611  0.3919 -1.0094
12861TIP3   OH259997   5.328   0.284  15.251  0.4228  0.0312  0.1113
12861TIP3    H159998   5.292   0.210  15.202 -1.4011  0.7431  0.3096
12861TIP3    H259999   5.354   0.347  15.184  1.6650 -0.6125 -0.0450
12862TIP3   OH260000   0.427   4.149  13.219  0.0420 -0.0538  0.1109
12862TIP3    H160001   0.468   4.151  13.132 -1.2780 -1.3275 -0.6038
12862TIP3    H260002   0.345   4.198  13.208  0.4311  0.8173  0.9855
12863TIP3   OH260003   0.701   4.309  12.131  0.4994 -0.2317  0.0671
12863TIP3    H160004   0.664   4.380  12.078  0.5416 -0.3721 -0.1498
12863TIP3    H260005   0.627   4.276  12.181  0.3170 -0.5499 -0.4112
12864TIP3   OH260006   3.553   5.343   6.265  0.2283  0.1164 -0.5978
12864TIP3    H160007   3.511   5.352   6.351  1.0656  1.2725 -0.2879
12864TIP3    H260008   3.481   5.355   6.203 -0.4833 -1.2255 -0.0889
12865TIP3   OH260009   3.995   3.987   2.932 -0.5182  0.1089  0.5251
12865TIP3    H160010   4.003   4.028   3.018  0.9325 -0.2615  0.5971
12865TIP3    H260011   3.964   3.898   2.950  0.7072 -0.2912  0.7842
12866TIP3   OH260012   2.164   5.504  14.379 -0.2229 -0.3633  0.1279
12866TIP3    H160013   2.090   5.562  14.362  0.6817  0.9668  0.5301
12866TIP3    H260014   2.181   5.461  14.295 -2.6364 -2.2011  0.4892
12867TIP3   OH260015   3.315   6.340  16.492  0.8793  0.4126 -0.2919
12867TIP3    H160016   3.241   6.317  16.548  0.7932 -0.0339 -0.5776
12867TIP3    H260017   3.380   6.271  16.509  2.0462  1.8505  1.4087
12868TIP3   OH260018   4.364   2.080  14.000  0.2503  0.2764 -0.2316
12868TIP3    H160019   4.275   2.113  13.985  0.9324  1.2386 -2.7230
12868TIP3    H260020   4.408   2.151  14.046  0.2591  0.6910 -0.8582
12869TIP3   OH260021   4.583   6.296  12.527 -0.2276  0.3828 -0.3899
12869TIP3    H160022   4.649   6.227  12.538 -0.5954  0.1664  0.4774
12869TIP3    H260023   4.524   6.262  12.460  0.0718  0.2328 -0.5823
12870TIP3   OH260024   6.640   4.063  11.006  0.5474 -0.1957 -0.1857
12870TIP3    H160025   6.618   4.008  10.931  1.1360  0.8940 -1.2097
12870TIP3    H260026   6.732   4.086  10.992  0.1194  1.6742 -0.2543
12871TIP3   OH260027   1.389   2.582   6.281 -0.0836  0.0971  0.9157
12871TIP3    H160028   1.479   2.582   6.250 -0.7936 -0.4192 -1.3388
12871TIP3    H260029   1.370   2.673   6.301 -0.0187  0.7690 -1.7657
12872TIP3   OH260030   0.727   5.335  13.881  0.0225 -0.2623  1.1758
12872TIP3    H160031   0.762   5.276  13.814 -2.1243 -0.9694  0.6179
12872TIP3    H260032   0.765   5.304  13.963  1.9287  0.0163  0.4537
12873TIP3   OH260033   1.972   2.934   3.960  0.2272  0.0622  0.4594
12873TIP3    H160034   1.975   2.959   4.052  0.8822  0.7520  0.2574
12873TIP3    H260035   1.949   2.841   3.961  0.4328  0.0171  1.3242
12874TIP3   OH260036   2.807   5.437   0.811  0.2633 -0.3137  0.3224
12874TIP3    H160037   2.742   5.380   0.852 -0.4806  1.2680  1.4410
12874TIP3    H260038   2.775   5.448   0.722 -1.4891  1.0207  1.0410
12875TIP3   OH260039   5.091   3.337   1.378  0.6377  0.1541 -0.1257
12875TIP3    H160040   5.139   3.257   1.399 -0.9323 -0.9611 -0.6347
12875TIP3    H260041   5.081   3.335   1.283  1.6346  1.6138 -0.2969
12876TIP3   OH260042   2.056   2.597   2.049 -0.2261 -0.4209 -0.4410
12876TIP3    H160043   2.071   2.527   2.112 -1.7501  0.4133  0.9057
12876TIP3    H260044   1.995   2.559   1.986 -3.1501  0.3589  1.7141
12877TIP3   OH260045   2.354   0.541  16.878  0.0796 -0.5442 -0.4129
12877TIP3    H160046   2.366   0.487  16.957 -1.7512 -0.0515  0.2740
12877TIP3    H260047   2.307   0.618  16.909 -2.2272 -1.1036 -2.1840
12878TIP3   OH260048   5.765   1.172  12.686 -0.4086  0.0649  0.2642
12878TIP3    H160049   5.688   1.126  12.651 -0.2040  0.5132 -0.8204
12878TIP3    H260050   5.736   1.207  12.771 -1.0821 -0.6237  0.3259
12879TIP3   OH260051   6.749   6.109  12.911  0.2771 -0.3174 -0.1715
12879TIP3    H160052   6.723   6.200  12.928  1.3478 -0.4398  2.5658
12879TIP3    H260053   6.766   6.107  12.817  0.6316  2.4307 -0.2600
12880TIP3   OH260054   1.366   5.825  15.342  0.3553  0.7652 -0.6193
12880TIP3    H160055   1.413   5.889  15.289  0.3959  0.2819 -1.1765
12880TIP3    H260056   1.407   5.741  15.320  1.5944  0.7490  1.5193
12881TIP3   OH260057   1.832   3.500   6.161 -0.2171  0.4688  0.4163
12881TIP3    H160058   1.838   3.595   6.169  0.2864  0.5911 -1.1591
12881TIP3    H260059   1.805   3.485   6.071 -1.5807 -0.8581  1.0054
12882TIP3   OH260060   0.464   3.604  11.975 -0.2412  0.2916  0.6467
12882TIP3    H160061   0.382   3.590  11.929  0.1390 -0.2729  0.1288
12882TIP3    H260062   0.462   3.542  12.048 -0.3967  0.4762  0.7997
12883TIP3   OH260063   0.186   4.690  11.923 -0.6521  0.2599 -0.2162
12883TIP3    H160064   0.103   4.682  11.970 -0.6124 -0.9936 -0.3266
12883TIP3    H260065   0.192   4.611  11.871 -0.1498  1.1005 -1.4882
12884TIP3   OH260066   6.573   2.927   5.790  0.1459 -0.1281 -0.6360
12884TIP3    H160067   6.487   2.962   5.767 -0.1243 -0.9387 -0.8986
12884TIP3    H260068   6.635   2.992   5.756 -0.3549  0.3621 -0.6255
12885TIP3   OH260069   3.717   6.608  11.487 -0.4043 -0.0077  0.1192
12885TIP3    H160070   3.706   6.637  11.396  2.2386 -0.8050 -0.5629
12885TIP3    H260071   3.682   6.519  11.489  1.8071 -0.9833 -0.8970
12886TIP3   OH260072   5.623   4.531  16.715  0.2668  0.0179 -0.1013
12886TIP3    H160073   5.562   4.489  16.655  0.7926 -1.3998  0.3145
12886TIP3    H260074   5.689   4.571  16.659 -0.5582  0.8427 -0.5215
12887TIP3   OH260075   3.078   2.028   5.472  0.0769 -0.0833  0.6662
12887TIP3    H160076   3.029   2.056   5.549  1.7098  1.5813  1.1775
12887TIP3    H260077   3.016   2.040   5.399 -0.2270  2.3443  1.2238
12888TIP3   OH260078   3.469   5.311   4.277 -0.3389 -0.0959  0.0708
12888TIP3    H160079   3.499   5.385   4.330 -0.7682 -0.5624  0.9813
12888TIP3    H260080   3.539   5.246   4.284 -0.1352  0.0626 -0.4187
12889TIP3   OH260081   5.107   5.671  14.283 -0.3071 -0.2915  0.2176
12889TIP3    H160082   5.070   5.640  14.365 -0.1981  1.0325  0.8021
12889TIP3    H260083   5.038   5.725  14.244 -0.0214 -0.1379 -0.0868
12890TIP3   OH260084   0.264   1.292   4.084 -0.3381  0.0614  0.3966
12890TIP3    H160085   0.342   1.264   4.038 -0.7327 -1.6446  0.7138
12890TIP3    H260086   0.192   1.278   4.022 -0.8297 -1.9211  1.3359
12891TIP3   OH260087   2.463   3.134  14.047 -0.2163  0.9945  0.1246
12891TIP3    H160088   2.393   3.130  14.112 -0.3622 -1.5105 -0.0668
12891TIP3    H260089   2.543   3.135  14.099 -0.3132 -1.4807  0.4830
12892TIP3   OH260090   0.321   5.111  15.015  0.0029 -0.2683  0.3437
12892TIP3    H160091   0.362   5.087  14.932  0.7978 -0.2883  0.7330
12892TIP3    H260092   0.271   5.190  14.995  1.4824  0.6809  0.1772
12893TIP3   OH260093   5.059   0.996  15.330 -0.4218  0.3230  0.5755
12893TIP3    H160094   5.144   0.958  15.313 -0.0077  1.2467  0.4973
12893TIP3    H260095   5.020   0.940  15.397  1.0000  0.9279  1.9626
12894TIP3   OH260096   6.261   2.517  11.953 -0.4793 -0.0347 -0.1588
12894TIP3    H160097   6.191   2.575  11.984 -0.3514  0.7295 -1.2223
12894TIP3    H260098   6.342   2.560  11.978 -0.3535 -1.0087  1.2281
12895TIP3   OH260099   4.058   0.276  12.737  0.3034  0.6477 -0.1694
12895TIP3    H160100   4.066   0.314  12.824 -3.0704 -0.4860  0.7850
12895TIP3    H260101   4.055   0.181  12.753  0.1294  0.3985 -1.5741
12896TIP3   OH260102   3.009   5.049  14.540 -0.2856 -0.8145 -0.6916
12896TIP3    H160103   2.968   5.035  14.454 -1.2839  0.9769 -0.5566
12896TIP3    H260104   3.090   5.095  14.519  2.1974 -4.8860 -1.0110
12897TIP3   OH260105   0.003   5.177   3.388  0.2597 -0.4684  0.0873
12897TIP3    H160106   0.076   5.193   3.448 -0.1185  0.4238  0.3160
12897TIP3    H260107  -0.069   5.149   3.444 -0.0204  0.1185  0.0244
12898TIP3   OH260108   5.757   6.232  14.087  0.1547 -0.5512  0.4248
12898TIP3    H160109   5.805   6.277  14.157 -1.3283  1.1429  0.4351
12898TIP3    H260110   5.807   6.254  14.008 -1.1010  2.2033  0.2697
12899TIP3   OH260111   3.944   0.871  12.762  0.0550 -0.0872  0.3092
12899TIP3    H160112   3.907   0.916  12.838 -0.1598 -1.4545  1.0491
12899TIP3    H260113   3.869   0.858  12.704 -0.1245 -0.5252  0.6301
12900TIP3   OH260114   2.082   0.917  13.451 -0.4223  0.5478  0.4589
12900TIP3    H160115   2.013   0.983  13.444 -0.1464  1.0172  1.7672
12900TIP3    H260116   2.164   0.967  13.455 -0.1170  0.0708  0.3194
12901TIP3   OH260117   4.820   4.009   5.383  0.2545 -0.2591 -0.1682
12901TIP3    H160118   4.856   3.926   5.352  3.2109  0.7586  0.1508
12901TIP3    H260119   4.816   4.000   5.478  0.9451  0.0430 -0.1000
12902TIP3   OH260120   5.261   2.091   0.211  0.1342 -0.3124 -0.4666
12902TIP3    H160121   5.288   2.175   0.174  0.1267  0.1349  0.5054
12902TIP3    H260122   5.232   2.112   0.300  0.4699 -1.3947 -0.0791
12903TIP3   OH260123   1.185   1.267  11.611 -0.6882  0.2504 -0.3642
12903TIP3    H160124   1.156   1.212  11.538 -0.2759  1.0075 -1.1123
12903TIP3    H260125   1.216   1.205  11.677 -1.7938 -0.4776 -0.5043
12904TIP3   OH260126   1.713   5.951  13.784 -0.1274 -0.6028 -0.5899
12904TIP3    H160127   1.756   6.035  13.802 -0.3942 -0.6342  0.2382
12904TIP3    H260128   1.643   5.946  13.849 -1.6166 -0.3919 -2.1189
12905TIP3   OH260129   2.718   6.455   0.672  0.0365  0.3522 -0.3969
12905TIP3    H160130   2.626   6.466   0.647 -0.2866  2.3266  1.3630
12905TIP3    H260131   2.719   6.373   0.722 -0.8375  0.5140 -0.0957
12906TIP3   OH260132   6.595   3.226  11.452  0.0899  0.2108 -0.0143
12906TIP3    H160133   6.558   3.262  11.533 -2.1557 -1.3479 -0.2512
12906TIP3    H260134   6.679   3.188  11.478 -0.8857 -0.8536  1.7704
12907TIP3   OH260135   2.817   1.380   5.548 -0.1972  0.0790 -0.3981
12907TIP3    H160136   2.810   1.375   5.452 -0.1957  1.0072 -0.4572
12907TIP3    H260137   2.910   1.396   5.564 -0.2882  0.4927 -0.2744
12908TIP3   OH260138   4.626   0.151   4.241  0.2225 -0.4169  0.2417
12908TIP3    H160139   4.654   0.124   4.154  1.3661  0.5758  0.2652
12908TIP3    H260140   4.598   0.070   4.284  0.1749 -0.9978 -0.8434
12909TIP3   OH260141   4.511   4.256  15.875 -0.0336  0.3469 -0.1059
12909TIP3    H160142   4.552   4.182  15.919  0.0269 -0.3749 -1.3366
12909TIP3    H260143   4.568   4.331  15.896 -0.1799  0.0967  1.2609
12910TIP3   OH260144   3.204   2.468  14.325  0.7781  0.2722  0.4594
12910TIP3    H160145   3.190   2.542  14.384  0.8610  0.2454  0.5128
12910TIP3    H260146   3.292   2.480  14.291  0.1432  1.1674 -0.9236
12911TIP3   OH260147   0.610   5.115  14.849 -0.4555 -0.4422  0.5984
12911TIP3    H160148   0.613   5.205  14.884  0.1980  0.5589 -1.8300
12911TIP3    H260149   0.607   5.060  14.927 -1.7864  1.6911  2.1788
12912TIP3   OH260150   0.792   2.512  16.898  0.1999  0.4866  0.1351
12912TIP3    H160151   0.836   2.546  16.976 -0.3813  0.8183  0.3274
12912TIP3    H260152   0.812   2.576  16.829 -0.5302  0.9996  0.3899
12913TIP3   OH260153   0.095   4.616  17.316 -0.7490  0.4360  0.3408
12913TIP3    H160154   0.054   4.700  17.293  0.8960  1.2076  0.0923
12913TIP3    H260155   0.082   4.608  17.410 -1.7864  0.4726  0.2116
12914TIP3   OH260156   6.684   1.388  10.965  0.1644  1.1304 -0.1824
12914TIP3    H160157   6.726   1.430  11.040 -0.7762  1.1665  0.3303
12914TIP3    H260158   6.598   1.363  10.996  1.1912 -2.7086  0.0684
12915TIP3   OH260159   1.883   5.902   4.799 -0.1207 -0.1283  0.8155
12915TIP3    H160160   1.934   5.970   4.756 -0.0589  0.5134  1.8616
12915TIP3    H260161   1.931   5.884   4.880  0.4749 -2.2276  0.0671
12916TIP3   OH260162   3.769   5.919   3.843 -0.5063 -0.3451  0.1945
12916TIP3    H160163   3.749   5.991   3.902 -0.2548 -1.5183  1.7576
12916TIP3    H260164   3.865   5.919   3.837 -0.4745 -0.9543  0.7144
12917TIP3   OH260165   0.298   6.353   1.221  0.0551 -0.1669  0.1166
12917TIP3    H160166   0.268   6.262   1.223 -0.9321  0.0538  4.2005
12917TIP3    H260167   0.394   6.347   1.226  0.0390 -0.9407 -0.3208
12918TIP3   OH260168   6.595   3.824   1.183  0.2443  0.3357 -0.2298
12918TIP3    H160169   6.581   3.801   1.091 -1.6166  1.7999 -0.3822
12918TIP3    H260170   6.553   3.753   1.232 -1.1356  0.8804 -0.5867
12919TIP3   OH260171   4.785   1.746  15.018  0.2659 -0.0455  0.1481
12919TIP3    H160172   4.751   1.711  15.100 -0.5773  0.0676 -0.1408
12919TIP3    H260173   4.827   1.671  14.975 -2.0568 -0.9287 -0.7497
12920TIP3   OH260174   1.587   1.378  14.310  0.2711  0.6298 -0.0793
12920TIP3    H160175   1.585   1.435  14.387 -1.3886  1.1919 -0.5152
12920TIP3    H260176   1.542   1.427  14.242  0.0693 -0.6184 -0.8842
12921TIP3   OH260177   6.262   4.948  13.898 -0.0914 -0.2621  0.1187
12921TIP3    H160178   6.196   4.936  13.829 -0.7072  0.4843  0.5465
12921TIP3    H260179   6.276   5.043  13.900  0.5958 -0.3690  0.4078
12922TIP3   OH260180   3.149   2.013   2.972  0.3436 -0.0541  0.1843
12922TIP3    H160181   3.174   2.035   3.061  2.1093 -0.6425 -0.1247
12922TIP3    H260182   3.065   1.968   2.981  1.2884 -1.6247  1.7683
12923TIP3   OH260183   5.335   3.571  16.368 -0.2324 -0.3634  0.3986
12923TIP3    H160184   5.429   3.557  16.352 -0.2240 -1.7763  1.4729
12923TIP3    H260185   5.328   3.664  16.392  0.8484 -0.1814  0.0609
12924TIP3   OH260186   5.282   1.176   1.093 -0.2401  0.4605  0.4254
12924TIP3    H160187   5.216   1.159   1.159 -0.5125  1.3667  0.4032
12924TIP3    H260188   5.311   1.266   1.110  0.6602  0.2370  0.1576
12925TIP3   OH260189   3.625   1.294  11.864  0.1745 -0.4470 -0.6678
12925TIP3    H160190   3.561   1.223  11.868 -1.8499  1.3395  0.7400
12925TIP3    H260191   3.635   1.312  11.770 -1.1331 -1.0157 -0.9359
12926TIP3   OH260192   3.567   6.594  16.098  0.3120 -0.0623 -0.1448
12926TIP3    H160193   3.594   6.657  16.164 -0.2606  0.0268  0.0097
12926TIP3    H260194   3.503   6.538  16.143  0.5231 -0.5083 -0.3898
12927TIP3   OH260195   3.106   4.697  12.643  0.4215  0.3986 -0.3775
12927TIP3    H160196   3.186   4.746  12.658  0.6209  0.0352 -0.2291
12927TIP3    H260197   3.133   4.605  12.645  0.1384  0.2850 -1.1126
12928TIP3   OH260198   4.986   0.668   4.105  0.3929  0.5855 -0.3440
12928TIP3    H160199   4.999   0.737   4.170 -0.2245  0.0466  0.3719
12928TIP3    H260200   4.924   0.705   4.043 -1.0475  0.2104  0.8078
12929TIP3   OH260201   3.923   5.790  13.570  0.5686 -0.6758  0.9349
12929TIP3    H160202   3.871   5.835  13.504  0.9579 -0.5027  0.7437
12929TIP3    H260203   3.867   5.789  13.648  0.8400  0.8538  1.1935
12930TIP3   OH260204   5.041   1.367   5.340 -0.2574  0.0371  0.1508
12930TIP3    H160205   5.068   1.317   5.417  0.4404 -0.2761 -0.2925
12930TIP3    H260206   5.036   1.303   5.269 -0.5704  0.3809 -0.1465
12931TIP3   OH260207   2.845   6.612  11.456 -0.1684 -0.4120  0.1372
12931TIP3    H160208   2.775   6.560  11.417 -1.3692  0.8116  0.5616
12931TIP3    H260209   2.920   6.599  11.398 -1.2831 -0.3297 -1.3811
12932TIP3   OH260210   3.857   4.877  13.444 -0.0652  0.5906 -0.3525
12932TIP3    H160211   3.764   4.871  13.422 -0.3649  3.8248 -0.4666
12932TIP3    H260212   3.903   4.856  13.363 -0.7777  1.2207 -0.9269
12933TIP3   OH260213   3.553   0.317  13.252  0.0579 -0.4862  0.2697
12933TIP3    H160214   3.610   0.381  13.295  0.6001 -1.9699  1.8951
12933TIP3    H260215   3.497   0.369  13.196  0.9619  1.3415  0.9709
12934TIP3   OH260216   1.317   5.246   0.417 -0.4160 -0.0022 -1.0409
12934TIP3    H160217   1.394   5.251   0.359  0.9574  0.3847  0.7249
12934TIP3    H260218   1.304   5.335   0.448 -0.1127 -0.4492  0.4605
12935TIP3   OH260219   5.915   6.571  12.926  0.2057 -0.4413  0.2292
12935TIP3    H160220   5.856   6.646  12.931 -1.6101 -1.7387 -0.5213
12935TIP3    H260221   5.888   6.524  12.847  1.3833 -1.8105  0.5869
12936TIP3   OH260222   0.200   6.024   2.562 -0.5371 -0.1350  0.1141
12936TIP3    H160223   0.107   6.003   2.570 -0.5213 -0.3796 -0.2868
12936TIP3    H260224   0.209   6.110   2.602 -1.2358  0.5932 -1.2184
12937TIP3   OH260225   2.170   3.140  14.907  0.1923 -0.0465  0.1576
12937TIP3    H160226   2.096   3.088  14.938  0.0768  0.5242  0.8790
12937TIP3    H260227   2.239   3.076  14.891 -0.2213 -0.5093  0.1909
12938TIP3   OH260228   5.276   3.248  14.677 -0.3144  0.5323  0.2937
12938TIP3    H160229   5.367   3.259  14.648 -0.7747  0.4621 -1.2887
12938TIP3    H260230   5.258   3.155  14.663 -0.4569  0.4201  1.1822
12939TIP3   OH260231   6.614   4.992   0.572 -0.2776 -0.1057  0.3492
12939TIP3    H160232   6.572   4.923   0.623 -1.1644  0.0508 -0.1462
12939TIP3    H260233   6.591   5.073   0.619  3.0324 -0.2346  2.5450
12940TIP3   OH260234   3.236   5.745   1.477  0.0114  0.2553  0.2984
12940TIP3    H160235   3.219   5.680   1.409  1.0978  0.9147 -0.6211
12940TIP3    H260236   3.171   5.814   1.462  0.8884  0.8861 -0.7388
12941TIP3   OH260237   3.845   0.236   1.817  0.5233 -0.4197 -0.4210
12941TIP3    H160238   3.805   0.285   1.889  0.0304 -1.7108  0.2101
12941TIP3    H260239   3.845   0.298   1.744 -1.0951  0.1930  0.0386
12942TIP3   OH260240   1.989   4.019  11.724  0.0594 -0.3294  0.0322
12942TIP3    H160241   1.918   4.083  11.730 -0.9630 -1.1397 -2.1409
12942TIP3    H260242   2.049   4.055  11.658  1.5888  0.2218  1.6573
12943TIP3   OH260243   2.450   2.420  15.191  0.7629 -0.3272  0.4716
12943TIP3    H160244   2.512   2.394  15.123 -0.1239 -1.4893  0.0796
12943TIP3    H260245   2.363   2.403  15.153  0.2384 -1.6449  2.0967
12944TIP3   OH260246   6.158   0.276  11.232  0.0500 -0.8969 -0.5406
12944TIP3    H160247   6.178   0.312  11.145 -0.2449  0.4714 -0.0696
12944TIP3    H260248   6.240   0.236  11.261  0.0825 -1.5913 -1.5416
12945TIP3   OH260249   3.134   3.329  12.228 -1.0031  0.0479 -0.2720
12945TIP3    H160250   3.047   3.366  12.241 -1.4659 -1.1167  0.0642
12945TIP3    H260251   3.140   3.315  12.133 -0.8529  0.8795 -0.3935
12946TIP3   OH260252   0.621   5.484  13.388 -0.0007 -0.3588  0.4197
12946TIP3    H160253   0.573   5.488  13.306 -0.9385 -0.2908  0.9641
12946TIP3    H260254   0.713   5.488  13.362 -0.3047  1.3634 -0.5261
12947TIP3   OH260255   2.096   1.820   2.976 -0.3655  0.0390  0.6062
12947TIP3    H160256   2.181   1.817   2.932 -1.1743  0.9836 -1.1162
12947TIP3    H260257   2.032   1.809   2.906 -1.6967  0.8870  1.6344
12948TIP3   OH260258   2.545   5.912  17.294 -0.1436 -0.0550  0.6912
12948TIP3    H160259   2.541   5.817  17.309  0.4417 -0.6443 -2.1806
12948TIP3    H260260   2.622   5.941  17.342  1.4940 -1.6743 -0.8005
12949TIP3   OH260261   4.990   2.667  16.941 -0.0400  0.1138  0.1046
12949TIP3    H160262   5.009   2.747  16.991  0.7052 -0.7615  1.2642
12949TIP3    H260263   4.961   2.699  16.856  0.6371  1.6324  0.4029
12950TIP3   OH260264   5.923   0.831  14.728  0.0541  0.5503 -0.1754
12950TIP3    H160265   5.870   0.762  14.689  0.7292 -0.4223  0.5946
12950TIP3    H260266   5.996   0.785  14.770  0.2891  1.7008  0.7204
12951TIP3   OH260267   5.869   1.179  13.525 -0.3730 -0.7183 -0.1763
12951TIP3    H160268   5.913   1.111  13.473  0.8694  1.1258 -1.6706
12951TIP3    H260269   5.931   1.200  13.595 -0.7799 -1.1350  0.3170
12952TIP3   OH260270   2.970   1.054  15.275 -0.8869 -0.3261 -0.0886
12952TIP3    H160271   2.885   1.023  15.244 -1.0745 -1.2178  1.1980
12952TIP3    H260272   2.994   1.124  15.215 -1.7879 -1.1209 -1.4227
12953TIP3   OH260273   3.146   3.369  15.358 -0.1891 -0.0747  0.2862
12953TIP3    H160274   3.128   3.323  15.440  0.9361  1.8401  1.6958
12953TIP3    H260275   3.228   3.331  15.327 -1.2028 -1.6220 -0.6503
12954TIP3   OH260276   2.442   3.761  16.972 -0.2006  0.7201  0.8611
12954TIP3    H160277   2.511   3.705  16.936 -0.6425 -1.7151  3.4649
12954TIP3    H260278   2.384   3.779  16.898  1.4474  0.0822 -0.6539
12955TIP3   OH260279   5.658   0.140   2.736  0.4888  0.5587 -0.1297
12955TIP3    H160280   5.633   0.226   2.702 -3.1219 -0.3785 -0.2802
12955TIP3    H260281   5.622   0.078   2.673 -1.1483 -1.0911  2.2561
12956TIP3   OH260282   1.634   6.650  16.487  0.2783 -0.0253 -0.3698
12956TIP3    H160283   1.654   6.716  16.553  0.2297 -1.0639  0.7031
12956TIP3    H260284   1.604   6.701  16.411  2.4426  1.3146 -0.4165
12957TIP3   OH260285   4.284   4.467   3.609 -0.7204 -0.2253  0.1811
12957TIP3    H160286   4.347   4.422   3.666 -0.7273  0.6989  0.9393
12957TIP3    H260287   4.334   4.485   3.529 -0.4995 -0.9081  0.1561
12958TIP3   OH260288   5.605   6.352  15.437  0.0643  0.7850  0.3140
12958TIP3    H160289   5.574   6.277  15.487  2.5888 -0.3663  0.2826
12958TIP3    H260290   5.581   6.333  15.347  1.5840 -0.5367  0.1576
12959TIP3   OH260291   5.128   4.627   3.108 -0.0565 -0.3768  0.3400
12959TIP3    H160292   5.222   4.635   3.126 -0.1173  0.2517  0.4071
12959TIP3    H260293   5.123   4.589   3.020  0.2590 -0.4275  0.3438
12960TIP3   OH260294   4.582   1.390   0.994  0.0710  0.5485  0.5062
12960TIP3    H160295   4.557   1.441   1.071  0.2934  0.4126  0.6706
12960TIP3    H260296   4.674   1.413   0.978  0.4784 -0.5097  1.1632
12961TIP3   OH260297   5.373   3.450  13.565 -0.0202  0.3631 -0.2371
12961TIP3    H160298   5.379   3.384  13.634 -0.9930  0.5261  0.0194
12961TIP3    H260299   5.285   3.440  13.530  0.5277  0.1255 -1.6375
12962TIP3   OH260300   3.941   5.375  11.134 -0.1432  0.3392  0.5788
12962TIP3    H160301   4.007   5.328  11.185 -0.3969 -0.5429  0.1189
12962TIP3    H260302   3.975   5.374  11.044 -0.2351  0.8920  0.5327
12963TIP3   OH260303   5.721   4.884  11.654  0.1347  0.6601  0.2822
12963TIP3    H160304   5.781   4.810  11.668  0.5812  0.6389 -1.3907
12963TIP3    H260305   5.714   4.926  11.739 -0.6938 -1.6928  1.4705
12964TIP3   OH260306   4.772   5.948  16.946  0.3905  0.3247 -0.0526
12964TIP3    H160307   4.842   5.963  17.010 -0.4533  0.8292  0.7787
12964TIP3    H260308   4.817   5.913  16.869  1.4621 -0.0630  0.7224
12965TIP3   OH260309   3.854   2.048  16.527 -0.8580 -0.2412 -0.0049
12965TIP3    H160310   3.862   2.103  16.449 -1.8573  2.1237  1.4280
12965TIP3    H260311   3.937   2.002  16.534 -0.6786 -0.3676 -2.3123
12966TIP3   OH260312   5.149   4.827   2.001 -0.2463  0.0487  1.4836
12966TIP3    H160313   5.129   4.844   2.094  0.7244 -1.1158  1.9332
12966TIP3    H260314   5.217   4.760   2.003  2.8148  2.8222  0.0405
12967TIP3   OH260315   4.603   5.546  16.979 -0.1350 -0.3254  0.2317
12967TIP3    H160316   4.582   5.611  17.046 -0.7674  1.0883 -1.2728
12967TIP3    H260317   4.565   5.581  16.899  1.1686 -1.6255 -1.0159
12968TIP3   OH260318   2.985   0.602   4.792  0.5890 -0.2801  0.3281
12968TIP3    H160319   2.920   0.606   4.722  0.4548 -0.6552  0.4279
12968TIP3    H260320   3.049   0.669   4.769  0.6728 -0.5607 -0.2837
12969TIP3   OH260321   1.801   5.450  14.063  0.0070  0.4285 -0.2717
12969TIP3    H160322   1.712   5.462  14.030 -0.6852 -2.8782  0.1121
12969TIP3    H260323   1.791   5.445  14.158  0.7308  0.6474 -0.1755
12970TIP3   OH260324   3.836   2.767  11.250  0.5532  0.3650 -0.1917
12970TIP3    H160325   3.931   2.757  11.257  0.8822  2.1907 -1.3662
12970TIP3    H260326   3.807   2.692  11.198  1.8132  1.3305 -2.4151
12971TIP3   OH260327   1.230   6.681  12.577  0.6723  0.5873  0.0267
12971TIP3    H160328   1.149   6.632  12.594  0.8345  0.9277  1.9970
12971TIP3    H260329   1.201   6.758  12.529 -0.2049  0.7329  0.7573
12972TIP3   OH260330   4.546   2.623  16.334 -0.0777 -0.2347 -0.2881
12972TIP3    H160331   4.475   2.601  16.394  0.6773  1.4222  1.3385
12972TIP3    H260332   4.520   2.705  16.294 -1.2090 -1.9939 -3.4461
12973TIP3   OH260333   5.960   4.332   6.631  0.5651  0.1266  0.0744
12973TIP3    H160334   5.896   4.298   6.569  0.5219  1.5675 -0.7174
12973TIP3    H260335   5.991   4.413   6.592  2.2476 -0.0828  0.8555
12974TIP3   OH260336   6.296   4.142   5.067 -0.5381  0.6063 -0.3660
12974TIP3    H160337   6.299   4.173   5.157 -0.6049  1.1523 -0.5430
12974TIP3    H260338   6.372   4.182   5.025 -0.3276  0.0946 -0.4715
12975TIP3   OH260339   0.257   0.575   1.154 -0.0772  0.0470 -0.7001
12975TIP3    H160340   0.208   0.654   1.176 -0.9841 -0.5545 -0.4991
12975TIP3    H260341   0.321   0.566   1.225 -0.3861  0.2552 -0.3891
12976TIP3   OH260342   3.559   4.123   5.014 -0.1529 -0.3116  0.1428
12976TIP3    H160343   3.646   4.163   5.015  0.6246 -1.8201  2.0581
12976TIP3    H260344   3.529   4.131   4.924  1.6881  0.8435 -0.4217
12977TIP3   OH260345   6.735   4.851  17.217  0.5178  0.0568 -0.4956
12977TIP3    H160346   6.807   4.913  17.207  0.8408  0.1250  1.7744
12977TIP3    H260347   6.676   4.871  17.144  1.6508  1.5570 -1.0548
12978TIP3   OH260348   5.674   0.570   1.543 -0.0050  0.0646  0.4381
12978TIP3    H160349   5.700   0.490   1.590  0.4724 -0.3749 -0.5311
12978TIP3    H260350   5.713   0.641   1.594  4.4250 -0.5730 -1.5249
12979TIP3   OH260351   3.346   4.028  13.113 -0.1390 -0.5503 -0.2757
12979TIP3    H160352   3.419   4.086  13.132 -0.8448 -0.3951  2.3164
12979TIP3    H260353   3.279   4.085  13.075  0.0105 -0.1031  0.1228
12980TIP3   OH260354   6.654   4.238  16.291  0.3355 -0.4909  0.2698
12980TIP3    H160355   6.749   4.230  16.282  0.2202 -0.9554 -0.6565
12980TIP3    H260356   6.635   4.206  16.379  0.9967 -0.7892  0.3091
12981TIP3   OH260357   0.070   3.817  12.761  0.6152  0.4232  0.0400
12981TIP3    H160358   0.128   3.851  12.692  0.1817  0.2472 -0.4197
12981TIP3    H260359   0.056   3.892  12.819  2.8387 -0.0121  1.2480
12982TIP3   OH260360   5.925   4.630  13.482  0.1178  0.0888  0.1287
12982TIP3    H160361   6.000   4.575  13.502  0.3132 -0.2082 -1.3336
12982TIP3    H260362   5.858   4.569  13.451 -0.2824  0.4888  0.1992
12983TIP3   OH260363   5.877   6.291   2.406 -0.9851 -0.2168  0.3730
12983TIP3    H160364   5.858   6.371   2.357  1.9898  0.0238 -0.5611
12983TIP3    H260365   5.880   6.318   2.497 -1.9802  0.2929  0.2680
12984TIP3   OH260366   6.681   0.761   2.329  0.2982 -0.7775  0.6262
12984TIP3    H160367   6.694   0.783   2.237  1.6949  0.2714  1.0427
12984TIP3    H260368   6.764   0.783   2.371 -1.5217  2.9050  2.8624
12985TIP3   OH260369   0.792   6.265  15.540 -0.3040  0.2564 -0.3173
12985TIP3    H160370   0.822   6.339  15.487 -0.7417  1.3477  0.9074
12985TIP3    H260371   0.872   6.215  15.559 -0.1162 -0.1005 -1.8506
12986TIP3   OH260372   5.912   6.653  16.256 -0.6536 -0.2524 -0.1501
12986TIP3    H160373   5.998   6.611  16.263  0.1551  1.3983  0.5301
12986TIP3    H260374   5.931   6.741  16.222 -1.9732  0.3927  0.6688
12987TIP3   OH260375   2.328   4.228   5.755  0.0908 -0.1084  0.1988
12987TIP3    H160376   2.368   4.173   5.688 -2.1124 -1.0821 -0.3857
12987TIP3    H260377   2.335   4.176   5.835  0.0810 -0.2242  0.1243
12988TIP3   OH260378   5.489   2.214   1.880 -0.2757  0.4722  0.8203
12988TIP3    H160379   5.480   2.128   1.921 -0.1776  0.0162 -0.0978
12988TIP3    H260380   5.485   2.196   1.786 -3.2245  1.7589  0.5942
12989TIP3   OH260381   0.068   2.560   1.875  0.3199 -0.7242  0.1386
12989TIP3    H160382   0.124   2.626   1.836 -0.1655  1.1993  2.4394
12989TIP3    H260383  -0.010   2.557   1.819  0.8398 -0.1727 -0.6220
12990TIP3   OH260384   2.912   4.736   1.577  0.0948 -0.4152  0.0174
12990TIP3    H160385   2.942   4.795   1.508 -1.6408  1.1500  0.5326
12990TIP3    H260386   2.929   4.784   1.658 -0.4118 -1.0602  0.5129
12991TIP3   OH260387   3.176   2.129  14.284 -0.2721  0.4289 -0.1305
12991TIP3    H160388   3.177   2.214  14.240 -0.3590 -0.0262 -1.0347
12991TIP3    H260389   3.122   2.073  14.228  2.6748 -1.2475 -1.5471
12992TIP3   OH260390   3.403   5.260  13.092  0.2197  0.1254 -0.1939
12992TIP3    H160391   3.468   5.313  13.047  2.3535 -1.5621  0.7516
12992TIP3    H260392   3.438   5.171  13.090 -2.0367 -0.8594  0.4319
12993TIP3   OH260393   1.902   1.100   3.914 -0.3123  0.3845  0.3424
12993TIP3    H160394   1.997   1.100   3.906 -0.2552 -0.2359  0.8965
12993TIP3    H260395   1.877   1.008   3.904 -0.8130  0.4892  0.5753
12994TIP3   OH260396   4.668   5.163   3.949  0.5067 -0.4612 -0.2040
12994TIP3    H160397   4.747   5.204   3.982  0.6942 -0.2779 -0.8737
12994TIP3    H260398   4.635   5.223   3.882 -1.5462  0.7037  1.7064
12995TIP3   OH260399   1.940   4.636  17.269  0.2789 -0.1500 -0.0095
12995TIP3    H160400   1.949   4.582  17.348 -0.5729  0.8656  0.8119
12995TIP3    H260401   1.919   4.723  17.302  0.4467  0.4198 -1.3546
12996TIP3   OH260402   5.751   3.557   3.106  0.7671  0.3101  0.4673
12996TIP3    H160403   5.718   3.564   3.196  2.4737  0.1885  1.1470
12996TIP3    H260404   5.716   3.634   3.062 -0.5663  0.0704  1.0758
12997TIP3   OH260405   4.853   4.083   2.060  0.3771  0.2525  0.1847
12997TIP3    H160406   4.781   4.067   1.999 -0.1690 -0.7598  1.0524
12997TIP3    H260407   4.913   4.010   2.047  1.2128  1.0305 -0.4491
12998TIP3   OH260408   4.111   4.986  13.367 -0.4953 -0.7590  0.7977
12998TIP3    H160409   4.071   5.040  13.299  1.9170 -1.3203 -1.1992
12998TIP3    H260410   4.079   5.024  13.449 -1.2343  1.7878 -0.5566
12999TIP3   OH260411   2.817   0.045  16.909 -0.3210 -0.3395 -0.2488
12999TIP3    H160412   2.809  -0.049  16.925 -0.5379 -0.6522 -1.9830
12999TIP3    H260413   2.780   0.057  16.821  0.2469  1.2720 -0.2955
13000TIP3   OH260414   2.200   4.501   1.491  0.3678 -0.3082 -0.1922
13000TIP3    H160415   2.184   4.407   1.499 -1.4570  0.0380  0.5903
13000TIP3    H260416   2.113   4.540   1.488  1.0589  1.5109  1.4188
13001TIP3   OH260417   3.527   1.537  15.929  0.3074 -0.1304 -0.6360
13001TIP3    H160418   3.474   1.502  16.001  0.9185 -1.6785 -0.8952
13001TIP3    H260419   3.536   1.464  15.868  1.6145  0.4888 -1.2340
13002TIP3   OH260420   3.281   5.104   5.078  0.0953  0.3668  0.4511
13002TIP3    H160421   3.224   5.148   5.141  1.3929  1.1933  1.0849
13002TIP3    H260422   3.368   5.139   5.095  0.4581  0.8495 -2.0033
13003TIP3   OH260423   0.076   0.544   3.259 -0.3247  0.4230 -0.3634
13003TIP3    H160424   0.024   0.547   3.339 -0.2218 -0.7883 -0.2318
13003TIP3    H260425   0.153   0.493   3.282 -1.2054 -1.6728 -1.6982
13004TIP3   OH260426   4.808   0.296  13.857 -0.1561 -0.0934  0.2961
13004TIP3    H160427   4.853   0.249  13.787  0.0480 -0.5216  0.7043
13004TIP3    H260428   4.819   0.388  13.835  0.4079 -0.2099  0.0725
13005TIP3   OH260429   2.960   0.961   5.663 -0.3644 -0.1145 -0.2813
13005TIP3    H160430   2.871   0.996   5.664 -0.7379 -1.0322  1.1271
13005TIP3    H260431   3.013   1.029   5.706 -0.8795 -0.7029  1.3547
13006TIP3   OH260432   6.131   0.152   4.422  0.3391  0.2830 -0.0663
13006TIP3    H160433   6.175   0.151   4.337  2.2350 -0.7250  0.8668
13006TIP3    H260434   6.199   0.177   4.484 -1.2775  2.1813  1.0765
13007TIP3   OH260435   3.342   5.848  14.023 -0.6188  0.0039 -0.0039
13007TIP3    H160436   3.317   5.929  14.066 -1.0523  0.6390 -1.3886
13007TIP3    H260437   3.434   5.836  14.044 -0.1627  1.6245 -0.9266
13008TIP3   OH260438   3.862   6.295   5.499 -0.1937  0.3554  0.6260
13008TIP3    H160439   3.900   6.235   5.563  0.4011 -0.0186 -0.0707
13008TIP3    H260440   3.936   6.324   5.446 -0.5812  1.1754  0.5165
13009TIP3   OH260441   1.150   3.686  13.778  0.2264  0.1275 -0.7955
13009TIP3    H160442   1.084   3.755  13.790  0.7432  0.2307  2.4667
13009TIP3    H260443   1.206   3.718  13.708 -2.1451  0.8377 -2.4876
13010TIP3   OH260444   1.383   2.746   1.806 -0.2483 -0.4677 -0.3270
13010TIP3    H160445   1.296   2.711   1.825 -0.1065 -0.3440  0.5977
13010TIP3    H260446   1.370   2.807   1.733 -1.0460  0.0757  0.2615
13011TIP3   OH260447   5.865   6.322   3.666  0.0408 -0.2305 -0.0344
13011TIP3    H160448   5.771   6.311   3.672  0.0308 -0.6415 -0.7575
13011TIP3    H260449   5.892   6.354   3.752 -0.7078 -0.4441  0.2829
13012TIP3   OH260450   1.663   3.301   4.044  0.2285  0.5653  0.1657
13012TIP3    H160451   1.751   3.327   4.072  0.5582 -0.8658  0.5531
13012TIP3    H260452   1.607   3.374   4.071  1.2123  1.2805  0.3688
13013TIP3   OH260453   1.996   1.549   2.140 -0.4401  0.2656  0.1990
13013TIP3    H160454   1.916   1.576   2.186 -2.2302 -1.1427 -1.8400
13013TIP3    H260455   1.971   1.467   2.097  1.9026  0.1771 -1.1275
13014TIP3   OH260456   5.495   0.402  16.166  0.1494 -0.3062 -0.3173
13014TIP3    H160457   5.563   0.381  16.230 -0.2561 -0.8793 -0.0644
13014TIP3    H260458   5.523   0.358  16.086 -0.2092 -1.0350 -0.0530
13015TIP3   OH260459   4.377   2.705   0.026 -0.1940 -0.5314 -0.0176
13015TIP3    H160460   4.472   2.710   0.026 -0.1955  0.7813  2.5253
13015TIP3    H260461   4.351   2.742  -0.059  1.4993 -0.1174 -0.3803
13016TIP3   OH260462   6.108   3.822   4.509 -0.0133 -0.6636 -0.4197
13016TIP3    H160463   6.202   3.822   4.488  0.0861 -0.1235  0.0172
13016TIP3    H260464   6.087   3.913   4.528  0.3368 -1.2163  3.5842
13017TIP3   OH260465   0.835   1.383  10.561  0.6415  0.1834  0.3338
13017TIP3    H160466   0.843   1.288  10.566  0.0034  0.1436  0.7998
13017TIP3    H260467   0.887   1.408  10.484 -0.0606 -0.6536 -0.4411
13018TIP3   OH260468   4.816   3.547  14.834 -0.0906 -0.3605  0.1672
13018TIP3    H160469   4.754   3.579  14.769  0.3884 -0.3904 -0.3185
13018TIP3    H260470   4.763   3.503  14.900 -0.5325 -0.9012 -0.5442
13019TIP3   OH260471   5.623   4.245   5.949 -0.1527 -0.2739  0.8357
13019TIP3    H160472   5.705   4.205   5.918 -0.7473 -2.3467  1.7332
13019TIP3    H260473   5.649   4.331   5.982  1.2216  0.1446 -1.1617
13020TIP3   OH260474   6.200   4.573   5.553  0.9856  0.2758 -0.3129
13020TIP3    H160475   6.142   4.506   5.589  2.0197 -0.3839  0.1475
13020TIP3    H260476   6.148   4.615   5.484  0.1906 -0.7225 -0.3385
13021TIP3   OH260477   6.408   1.933   3.222  0.0117  0.1147  0.2145
13021TIP3    H160478   6.346   1.867   3.193 -0.5059  0.8886 -0.4802
13021TIP3    H260479   6.491   1.886   3.232 -0.1670 -0.4862 -1.0033
13022TIP3   OH260480   0.529   0.597   4.549 -0.3100  0.0559  0.1368
13022TIP3    H160481   0.560   0.630   4.465  0.0883 -0.5411  0.0435
13022TIP3    H260482   0.436   0.582   4.536 -0.0489 -1.0332 -0.5320
13023TIP3   OH260483   5.793   5.243   3.684 -0.2934 -0.4247 -0.3879
13023TIP3    H160484   5.706   5.203   3.687 -0.4737 -0.1852 -1.7439
13023TIP3    H260485   5.790   5.301   3.608  1.0046 -0.3182 -0.3769
13024TIP3   OH260486   6.020   4.988   0.966  0.0141  0.3600 -0.0552
13024TIP3    H160487   6.003   5.078   0.940  1.4111  0.6951  0.1015
13024TIP3    H260488   6.095   4.993   1.025 -1.1796 -0.7079  1.6435
13025TIP3   OH260489   4.232   2.239  15.341  0.2356 -0.3169  0.2786
13025TIP3    H160490   4.324   2.242  15.368 -0.1912  0.1884  1.7356
13025TIP3    H260491   4.226   2.159  15.288  1.1655 -1.2928  1.5606
13026TIP3   OH260492   5.226   5.145  13.139  0.1033  0.5450  0.6509
13026TIP3    H160493   5.166   5.071  13.153  0.7965  0.2445  2.1666
13026TIP3    H260494   5.294   5.134  13.205  2.4329  0.3049 -1.6019
13027TIP3   OH260495   5.177   1.556  16.895 -0.2446 -0.0352  0.7482
13027TIP3    H160496   5.185   1.581  16.988 -1.9512 -0.2291  0.9909
13027TIP3    H260497   5.087   1.580  16.872  0.7103  1.8094 -1.4345
13028TIP3   OH260498   3.878   6.259  12.241 -0.0908  1.0184  0.4528
13028TIP3    H160499   3.871   6.355  12.242  0.9019  1.1049  1.5276
13028TIP3    H260500   3.915   6.237  12.327  1.3436 -0.1987 -0.4375
13029TIP3   OH260501   5.282   0.826   1.852 -0.4159  0.3159 -0.4049
13029TIP3    H160502   5.365   0.809   1.806 -1.5122 -0.5374 -2.1616
13029TIP3    H260503   5.309   0.854   1.940  1.7447  0.6655 -1.1142
13030TIP3   OH260504   1.082   0.998   5.825  0.4257 -0.4617 -0.1096
13030TIP3    H160505   1.034   0.987   5.907 -1.1503  3.0631 -0.3991
13030TIP3    H260506   1.143   1.070   5.842 -0.0684  0.4761 -2.0652
13031TIP3   OH260507   0.621   6.206  10.932 -0.1539 -0.2117 -0.1314
13031TIP3    H160508   0.688   6.138  10.946 -0.5812 -0.3974  1.1428
13031TIP3    H260509   0.551   6.161  10.884 -0.7391 -0.8939  1.3049
13032TIP3   OH260510   0.455   2.968   5.505  0.4694  0.1402  0.5898
13032TIP3    H160511   0.455   2.950   5.411  1.5669 -0.7534  0.7454
13032TIP3    H260512   0.430   2.885   5.546 -1.4435  0.8987  1.0560
13033TIP3   OH260513   6.552   6.138   2.667  0.2982  0.4206  0.3588
13033TIP3    H160514   6.608   6.064   2.691 -0.2653 -0.1227  0.0598
13033TIP3    H260515   6.466   6.098   2.654  0.1119  1.0423 -0.3615
13034TIP3   OH260516   2.206   6.250   2.946  0.3405  0.4169 -0.0272
13034TIP3    H160517   2.223   6.217   3.035 -0.0231 -1.0329 -0.4598
13034TIP3    H260518   2.180   6.341   2.958  0.3829  0.2665  1.3511
13035TIP3   OH260519   5.769   0.432  12.703 -0.1477 -0.4043  0.7076
13035TIP3    H160520   5.757   0.355  12.648  0.2714 -0.7623  1.1115
13035TIP3    H260521   5.715   0.416  12.780 -0.7437  0.1029  0.4025
13036TIP3   OH260522   3.484   6.023   4.932  0.2933  0.0717 -0.4787
13036TIP3    H160523   3.546   6.066   4.872 -0.4078 -0.4580 -1.6157
13036TIP3    H260524   3.445   5.953   4.880  0.1536 -0.8509  0.8192
13037TIP3   OH260525   6.028   2.670  14.091  0.2648  0.0513 -0.2386
13037TIP3    H160526   5.988   2.699  14.173 -0.3662 -2.0702  0.2662
13037TIP3    H260527   6.099   2.732  14.076  0.3078  0.5944  1.8314
13038TIP3   OH260528   3.462   5.416  17.152  0.9651 -0.1263  0.2927
13038TIP3    H160529   3.391   5.460  17.107 -0.1206 -1.3203  0.7887
13038TIP3    H260530   3.517   5.381  17.082  0.4192 -0.1924 -0.1065
13039TIP3   OH260531   1.923   2.075  11.524  0.0773 -0.1420  0.1657
13039TIP3    H160532   1.913   1.983  11.549 -0.3824  0.0293  0.6323
13039TIP3    H260533   1.846   2.094  11.470 -1.1548  0.6159  2.0736
13040TIP3   OH260534   6.436   5.326   5.682  0.6994 -0.0035  0.3354
13040TIP3    H160535   6.527   5.345   5.659  1.0754 -1.1654  0.8280
13040TIP3    H260536   6.441   5.269   5.759 -0.4775  1.4061  1.5254
13041TIP3   OH260537   5.294   0.655   0.261  0.0549 -0.5260  0.1249
13041TIP3    H160538   5.325   0.703   0.338 -0.9245 -0.2595  0.3679
13041TIP3    H260539   5.332   0.701   0.187  0.0904 -0.0862  0.4112
13042TIP3   OH260540   4.368   4.057   4.925 -0.2415  0.6577  0.0503
13042TIP3    H160541   4.393   4.036   5.015 -0.9810  2.3366  0.6734
13042TIP3    H260542   4.277   4.084   4.930 -0.1075  1.4120 -1.1068
13043TIP3   OH260543   2.223   2.307  10.770  0.0885  0.2641  0.2124
13043TIP3    H160544   2.161   2.235  10.772  2.2546 -1.7226  1.2574
13043TIP3    H260545   2.272   2.296  10.689 -0.4485  1.4167 -0.2910
13044TIP3   OH260546   1.266   2.334  17.034  0.0769  0.3258 -0.3579
13044TIP3    H160547   1.251   2.319  17.127  1.4533  0.9999 -0.0078
13044TIP3    H260548   1.236   2.254  16.991 -1.9246  0.5590  0.5004
13045TIP3   OH260549   0.921   2.326  13.637 -0.2709 -0.4022  0.3254
13045TIP3    H160550   0.875   2.258  13.687  0.1520 -1.7422 -1.0046
13045TIP3    H260551   1.013   2.313  13.658 -0.0815 -1.0169 -0.7592
13046TIP3   OH260552   4.776   0.634   2.159 -0.5971 -0.6257  0.6241
13046TIP3    H160553   4.808   0.705   2.214 -1.9756 -0.8668  1.8061
13046TIP3    H260554   4.776   0.558   2.216 -1.4974 -1.0143  0.1224
13047TIP3   OH260555   5.133   5.409  13.153 -0.4299  0.0944 -0.3233
13047TIP3    H160556   5.105   5.395  13.243  0.7711 -2.4233 -0.2677
13047TIP3    H260557   5.168   5.325  13.124 -0.0038  1.0324 -2.8881
13048TIP3   OH260558   3.213   5.518  17.021  0.0782 -0.5777 -0.2262
13048TIP3    H160559   3.229   5.492  16.931  0.4028  0.6432 -0.5377
13048TIP3    H260560   3.127   5.560  17.019 -0.3550 -1.4200  0.2274
13049TIP3   OH260561   2.378   5.120  12.358  0.7928 -0.2814  0.3460
13049TIP3    H160562   2.328   5.068  12.296  2.9425 -0.0799 -1.7052
13049TIP3    H260563   2.411   5.057  12.422  0.4752 -0.8878 -0.0812
13050TIP3   OH260564   3.575   6.631   1.180  0.7791  0.3188  0.7719
13050TIP3    H160565   3.523   6.675   1.248 -2.8357 -0.4995 -1.2042
13050TIP3    H260566   3.612   6.554   1.224 -1.0774  0.0549  1.9839
13051TIP3   OH260567   5.269   3.774   2.160  0.5315  0.0140  0.1937
13051TIP3    H160568   5.319   3.724   2.225 -1.4515  0.3394  2.1012
13051TIP3    H260569   5.241   3.709   2.096  0.6264 -0.7496  0.9036
13052TIP3   OH260570   4.270   5.712  16.039 -0.4120  0.0625 -0.2723
13052TIP3    H160571   4.230   5.655  16.106 -0.6158  2.6981  2.0545
13052TIP3    H260572   4.250   5.801  16.069  1.2473  1.4192 -2.8421
13053TIP3   OH260573   1.473   6.343   5.541 -0.0012 -0.9343  0.0366
13053TIP3    H160574   1.407   6.398   5.499  1.3763  1.6758  1.0901
13053TIP3    H260575   1.547   6.343   5.480 -0.7432 -3.7293 -1.0705
13054TIP3   OH260576   3.035   6.353   6.679  0.7203 -0.2324 -0.2158
13054TIP3    H160577   2.995   6.267   6.684  1.9614 -0.8356 -0.3548
13054TIP3    H260578   2.984   6.400   6.613  1.7123 -1.8274 -2.2352
13055TIP3   OH260579   2.518   1.905  17.356 -0.1281  0.3543  0.0789
13055TIP3    H160580   2.519   2.000  17.348 -0.9855  0.5146  1.4769
13055TIP3    H260581   2.499   1.889  17.448 -1.0453 -1.1731 -0.3375
13056TIP3   OH260582   4.391   3.427  15.046  0.2585 -0.3359 -0.3038
13056TIP3    H160583   4.339   3.502  15.076 -0.0023  0.3312 -2.2570
13056TIP3    H260584   4.332   3.352  15.056 -0.6606  0.2243 -1.2995
13057TIP3   OH260585   2.536   1.839   3.583 -0.5144  0.3501 -0.4030
13057TIP3    H160586   2.477   1.816   3.512  0.6670 -1.2946 -0.9243
13057TIP3    H260587   2.569   1.925   3.560 -1.2036  0.4318 -1.1188
13058TIP3   OH260588   2.311   1.259   4.295  0.0155  0.5288 -0.3182
13058TIP3    H160589   2.366   1.293   4.366  0.6491  1.0659 -1.0406
13058TIP3    H260590   2.286   1.337   4.245 -2.5027  0.4648  0.7019
13059TIP3   OH260591   3.740   0.430  14.114  0.1249  0.8044  0.2559
13059TIP3    H160592   3.673   0.373  14.152  1.5999 -0.4219  1.1360
13059TIP3    H260593   3.744   0.505  14.173 -0.4966  0.9216  0.1599
13060TIP3   OH260594   0.184   3.087  15.900 -0.3818 -0.1511  0.0458
13060TIP3    H160595   0.123   3.136  15.845  0.3704  1.6579  0.7409
13060TIP3    H260596   0.165   3.116  15.989  2.2890  1.5257  0.1829
13061TIP3   OH260597   4.894   0.644  11.297  0.2128  0.8739  0.0344
13061TIP3    H160598   4.949   0.704  11.247 -0.9829  0.7681 -1.4892
13061TIP3    H260599   4.823   0.621  11.237  0.2577 -1.5484  0.8001
13062TIP3   OH260600   3.222   3.733  13.997 -0.4728  0.3653  0.2221
13062TIP3    H160601   3.131   3.704  13.991  0.0381 -1.6161  1.3889
13062TIP3    H260602   3.231   3.797  13.926 -3.2587  2.0364  1.2389
13063TIP3   OH260603   6.636   3.072   6.634  0.0385  0.0791 -0.2069
13063TIP3    H160604   6.623   3.156   6.679 -0.7387 -0.1667  0.0311
13063TIP3    H260605   6.637   3.008   6.705  0.1950 -0.1640 -0.4292
13064TIP3   OH260606   4.107   1.824  14.809 -0.1506  0.3538 -0.5740
13064TIP3    H160607   4.161   1.903  14.803 -0.2453  0.3707 -1.4660
13064TIP3    H260608   4.019   1.857  14.828 -0.0573  0.4150 -0.2580
13065TIP3   OH260609   4.064   5.635  16.752 -0.1790  0.3119 -0.3271
13065TIP3    H160610   4.091   5.676  16.670 -2.6535 -2.8606 -3.0019
13065TIP3    H260611   4.009   5.700  16.794 -0.1408  1.4832 -1.9863
13066TIP3   OH260612   5.152   1.562   0.796 -0.1911  0.0234  0.6939
13066TIP3    H160613   5.190   1.647   0.772  0.0986 -0.2613  0.1400
13066TIP3    H260614   5.168   1.506   0.721  0.1027 -0.6908  1.2804
13067TIP3   OH260615   3.949   3.068  14.495 -0.0927  0.3287 -0.4624
13067TIP3    H160616   3.962   3.135  14.562 -1.4523 -2.1092  2.5461
13067TIP3    H260617   4.037   3.038  14.473  0.5215  2.7939 -1.7077
13068TIP3   OH260618   2.725   4.547   4.144 -0.6604 -0.1207 -0.1122
13068TIP3    H160619   2.816   4.577   4.148 -0.9135  0.5924  0.9734
13068TIP3    H260620   2.727   4.470   4.088  0.3369  0.8430 -1.4736
13069TIP3   OH260621   3.738   2.176  15.632  0.1985 -0.5803  0.4625
13069TIP3    H160622   3.695   2.090  15.626  1.0542 -1.1142  1.6837
13069TIP3    H260623   3.780   2.188  15.547 -0.2867 -1.1617  0.1318
13070TIP3   OH260624   0.508   6.381  12.783 -0.3069 -0.5510  0.4749
13070TIP3    H160625   0.563   6.372  12.705 -1.8210 -0.1542 -0.7057
13070TIP3    H260626   0.527   6.468  12.817 -0.7845 -0.0702 -0.4341
13071TIP3   OH260627   2.599   2.649  12.621  0.4740 -0.2706  0.1295
13071TIP3    H160628   2.592   2.569  12.673  1.2550 -0.4104  0.0458
13071TIP3    H260629   2.555   2.629  12.539  0.7022 -0.6406  0.0932
13072TIP3   OH260630   4.953   4.612   2.652  0.9260 -0.0226  0.3849
13072TIP3    H160631   4.924   4.602   2.561 -1.4907 -0.9814  1.1755
13072TIP3    H260632   4.907   4.691   2.682 -0.4627 -1.2160  1.5067
13073TIP3   OH260633   0.970   6.385  13.483  0.0677 -0.1796 -0.3181
13073TIP3    H160634   1.016   6.429  13.412 -0.4998  0.2288 -0.4322
13073TIP3    H260635   1.040   6.360  13.544  0.3144  1.9412  0.3516
13074TIP3   OH260636   5.038   5.570   2.331 -0.3241 -0.1558  0.6215
13074TIP3    H160637   5.033   5.665   2.330 -0.7817 -0.1461  1.7235
13074TIP3    H260638   5.131   5.551   2.342 -0.1092  0.1327 -0.6202
13075TIP3   OH260639   3.394   5.414   5.407 -0.1119 -0.0957 -0.4253
13075TIP3    H160640   3.449   5.477   5.360 -0.3293  0.5716  0.1879
13075TIP3    H260641   3.339   5.469   5.464 -1.3316 -0.7404 -0.9398
13076TIP3   OH260642   6.358   1.235   1.324  0.3301 -0.2728  0.2994
13076TIP3    H160643   6.441   1.276   1.349  0.1765 -0.4455  1.1150
13076TIP3    H260644   6.334   1.278   1.241  0.1502  1.3191  1.1420
13077TIP3   OH260645   3.024   5.347   4.825  0.0960 -0.3108 -0.1002
13077TIP3    H160646   3.085   5.376   4.893 -3.3256  1.4260  2.5741
13077TIP3    H260647   3.028   5.417   4.759  0.8943 -0.1810  0.0700
13078TIP3   OH260648   5.814   1.833  12.741 -0.2785 -0.1173 -0.1218
13078TIP3    H160649   5.794   1.740  12.726 -3.3938  0.1052  1.6230
13078TIP3    H260650   5.800   1.875  12.656  0.2799 -1.1073 -0.7238
13079TIP3   OH260651   1.973   2.216  10.507  0.5223 -0.5023  0.4467
13079TIP3    H160652   1.966   2.155  10.581  0.8452 -1.1319 -0.0327
13079TIP3    H260653   2.040   2.177  10.451  1.1413  0.5861  0.4066
13080TIP3   OH260654   3.760   0.366  15.957 -0.5184  0.1790  0.8602
13080TIP3    H160655   3.767   0.328  16.045 -0.7883 -0.4333  0.6227
13080TIP3    H260656   3.779   0.459  15.970  0.5211 -0.0945  1.3981
13081TIP3   OH260657   4.076   3.571  11.019 -0.3921 -0.1095 -0.5960
13081TIP3    H160658   4.161   3.588  10.978  0.4676 -1.9434  0.2986
13081TIP3    H260659   4.037   3.501  10.966 -0.6543 -0.3504 -0.0894
13082TIP3   OH260660   0.965   4.699   5.708 -0.7003  0.3322  0.3053
13082TIP3    H160661   1.000   4.702   5.619 -0.2605  0.0492  0.4664
13082TIP3    H260662   1.002   4.619   5.746 -0.3129  0.8231  0.9769
13083TIP3   OH260663   4.415   4.708  15.941  0.2094 -0.3645  0.0465
13083TIP3    H160664   4.490   4.659  15.909  0.0128 -2.5087  2.5117
13083TIP3    H260665   4.339   4.666  15.901  0.1420  2.1400 -2.8819
13084TIP3   OH260666   4.946   1.626  14.424 -0.2804 -0.5581  0.0036
13084TIP3    H160667   5.027   1.580  14.400  0.1435 -0.8551  1.8397
13084TIP3    H260668   4.886   1.607  14.353  0.2460 -3.0384  0.1315
13085TIP3   OH260669   0.643   6.618   2.863  0.2614 -0.0243  0.5832
13085TIP3    H160670   0.594   6.686   2.909  0.4825 -0.0262  0.8229
13085TIP3    H260671   0.735   6.638   2.880  0.3992  0.6382 -0.8109
13086TIP3   OH260672   6.334   6.056   3.496  0.0937  0.3867 -0.1896
13086TIP3    H160673   6.370   6.127   3.550  1.0790 -0.5642  0.4325
13086TIP3    H260674   6.251   6.034   3.539 -0.2069  1.1310 -0.3703
13087TIP3   OH260675   0.900   1.118   4.853 -0.0852 -0.4310  0.5249
13087TIP3    H160676   0.923   1.063   4.778  2.1369  1.2773 -0.1546
13087TIP3    H260677   0.813   1.152   4.833  0.5946  0.2437 -1.4571
13088TIP3   OH260678   3.612   5.119   0.231 -0.3300  0.3609  0.0147
13088TIP3    H160679   3.631   5.163   0.314 -0.4022 -2.0249  1.4078
13088TIP3    H260680   3.517   5.131   0.220 -0.6039 -0.5187  1.1137
13089TIP3   OH260681   2.438   3.727  16.680  0.0005 -0.2651  0.4877
13089TIP3    H160682   2.493   3.780  16.623  0.0232  1.8641  2.3578
13089TIP3    H260683   2.499   3.680  16.736 -0.0187  0.4543  1.1345
13090TIP3   OH260684   5.819   3.318   3.969 -0.3829 -0.3898 -0.8774
13090TIP3    H160685   5.835   3.404   4.008 -4.6755  0.2700 -0.0197
13090TIP3    H260686   5.888   3.262   4.005  0.3405  1.8653  1.6071
13091TIP3   OH260687   4.656   2.642   6.074 -0.3128 -0.2197 -0.5756
13091TIP3    H160688   4.634   2.708   6.140 -1.1741  0.0017 -1.0704
13091TIP3    H260689   4.637   2.558   6.116  0.8344 -0.1730  0.0743
13092TIP3   OH260690   5.787   5.689   6.381 -0.1713  0.0446  0.2608
13092TIP3    H160691   5.796   5.781   6.404  1.6500  0.6765 -2.4407
13092TIP3    H260692   5.855   5.645   6.432  1.2951  0.8048 -0.9498
13093TIP3   OH260693   3.496   0.083   0.654  0.5091  0.2731 -0.9904
13093TIP3    H160694   3.442   0.134   0.594 -0.6566 -0.1543 -0.3416
13093TIP3    H260695   3.443   0.078   0.734  1.1211 -0.9369 -0.6477
13094TIP3   OH260696   3.497   2.306  12.063  0.1230 -0.2616  0.5231
13094TIP3    H160697   3.473   2.377  12.124  1.5367 -0.9332  1.9315
13094TIP3    H260698   3.444   2.232  12.092  0.7933 -0.5800  0.9661
13095TIP3   OH260699   1.740   5.519  15.792  0.7014  0.1267  0.1249
13095TIP3    H160700   1.796   5.577  15.843 -0.0232  1.2490 -0.3163
13095TIP3    H260701   1.664   5.503  15.848 -0.3947  1.8733 -0.7762
13096TIP3   OH260702   3.923   1.642  13.198  0.1594  0.0612 -0.7710
13096TIP3    H160703   3.970   1.682  13.271  0.7867 -0.1467 -1.0549
13096TIP3    H260704   3.902   1.554  13.228  0.3980 -0.0168 -0.8304
13097TIP3   OH260705   3.929   1.858  15.882 -0.7063 -0.1714  0.2872
13097TIP3    H160706   3.926   1.868  15.977 -0.3110 -0.2075  0.3058
13097TIP3    H260707   4.011   1.900  15.856 -1.5086  1.1457 -0.1996
13098TIP3   OH260708   3.663   0.320   5.407 -0.5317 -0.1752  0.0921
13098TIP3    H160709   3.572   0.325   5.379 -0.2460  0.3127 -0.7652
13098TIP3    H260710   3.689   0.411   5.421 -0.2735 -0.3305  0.6884
13099TIP3   OH260711   2.655   5.856  15.427 -0.7089  0.1971  0.1355
13099TIP3    H160712   2.588   5.823  15.367  0.2642 -1.5809 -0.0470
13099TIP3    H260713   2.703   5.778  15.455  0.2754  1.2356  1.5079
13100TIP3   OH260714   6.429   3.138  10.495 -0.8961 -0.4311 -0.8951
13100TIP3    H160715   6.404   3.107  10.583 -1.4029  0.3886 -0.7405
13100TIP3    H260716   6.346   3.166  10.456 -0.3464  1.5213 -0.7151
13101TIP3   OH260717   2.864   1.568  14.060  0.0104 -0.4267 -0.1630
13101TIP3    H160718   2.913   1.515  13.997  1.1000 -0.3257  0.5848
13101TIP3    H260719   2.908   1.553  14.144  0.1021  1.3332  0.1457
13102TIP3   OH260720   6.656   4.702  16.077  0.2674 -0.2212  0.2580
13102TIP3    H160721   6.738   4.751  16.076  0.6531 -0.8595 -0.0598
13102TIP3    H260722   6.619   4.713  15.989 -0.0240  0.1164  0.4192
13103TIP3   OH260723   1.273   5.483  15.357  0.0645  0.6412  0.1989
13103TIP3    H160724   1.274   5.527  15.442 -2.3084 -0.6303  0.9970
13103TIP3    H260725   1.303   5.394  15.376 -2.3663 -0.2713  0.2255
13104TIP3   OH260726   2.331   1.528   0.812  0.2207  0.2662 -0.0242
13104TIP3    H160727   2.277   1.604   0.834  1.0109  0.6025  0.8301
13104TIP3    H260728   2.400   1.527   0.879  1.6510  0.2508 -1.4235
13105TIP3   OH260729   6.062   2.308   3.153 -0.7757 -0.4956 -0.6165
13105TIP3    H160730   6.047   2.341   3.241  3.0041 -2.1378  0.8471
13105TIP3    H260731   5.993   2.243   3.139 -2.9147  1.5248  0.0176
13106TIP3   OH260732   5.465   3.254  11.570  0.5682 -0.0224  0.3332
13106TIP3    H160733   5.460   3.332  11.626 -1.4518 -0.1475  0.4175
13106TIP3    H260734   5.558   3.233  11.565  1.2466  2.7527 -0.2018
13107TIP3   OH260735   0.456   1.095  14.534 -0.6175  0.1198 -0.3176
13107TIP3    H160736   0.508   1.096  14.614 -0.2863  0.4165 -0.5340
13107TIP3    H260737   0.518   1.119  14.465 -1.1963  1.2664 -0.4695
13108TIP3   OH260738   1.665   0.087   4.728  0.2696 -0.4715 -0.2115
13108TIP3    H160739   1.758   0.064   4.725  0.0559 -1.3213 -3.3760
13108TIP3    H260740   1.624   0.013   4.773  0.8096 -1.5581 -1.4410
13109TIP3   OH260741   0.798   0.581   5.233 -0.1700  0.3089 -0.3479
13109TIP3    H160742   0.827   0.552   5.147  1.9907  1.7083 -0.1663
13109TIP3    H260743   0.867   0.553   5.292 -1.3189 -0.0739  0.8690
13110TIP3   OH260744   3.008   3.607  10.848  0.0540  0.2175 -0.0854
13110TIP3    H160745   2.952   3.685  10.848 -0.8168 -0.4006 -0.1601
13110TIP3    H260746   3.038   3.599  10.758 -1.2178 -0.4787 -0.4761
13111TIP3   OH260747   1.671   2.151  16.755  0.8440  0.1231  0.0926
13111TIP3    H160748   1.736   2.213  16.789  0.8528 -0.9926  2.2399
13111TIP3    H260749   1.664   2.084  16.822 -2.6889  0.2788  0.0533
13112TIP3   OH260750   6.497   1.586  11.123  0.0003  0.1883 -0.1207
13112TIP3    H160751   6.445   1.507  11.110  0.1507 -0.1018  0.9543
13112TIP3    H260752   6.497   1.629  11.037  0.5485 -1.3557 -0.9325
13113TIP3   OH260753   2.807   3.605  13.603  0.7929 -0.0738  0.0005
13113TIP3    H160754   2.797   3.677  13.540 -1.6138 -0.4854 -0.1926
13113TIP3    H260755   2.843   3.534  13.551  2.3253  0.6725 -0.0176
13114TIP3   OH260756   3.797   0.044   1.095  0.4529 -0.1597  0.1493
13114TIP3    H160757   3.755  -0.023   1.148  0.0457 -0.7262 -0.8479
13114TIP3    H260758   3.860  -0.004   1.041  0.1499  0.2547 -0.5896
13115TIP3   OH260759   1.891   3.517  16.818  0.0234  0.1892  0.8903
13115TIP3    H160760   1.832   3.451  16.780 -0.4513  1.4240 -0.6469
13115TIP3    H260761   1.930   3.560  16.742 -1.5879  3.3582  1.6717
13116TIP3   OH260762   6.055   2.188  16.664 -0.9734 -0.3231 -0.8415
13116TIP3    H160763   6.030   2.269  16.708  1.4107 -0.7209  1.4352
13116TIP3    H260764   6.115   2.216  16.595  1.4158 -0.1676  1.1761
13117TIP3   OH260765   5.328   0.748  14.444  0.2530 -0.2256  0.1461
13117TIP3    H160766   5.370   0.834  14.441 -0.1120 -0.0549 -0.1444
13117TIP3    H260767   5.373   0.702  14.516  1.3094 -0.2499 -0.5081
13118TIP3   OH260768   2.337   5.503   4.027 -0.5019  0.1654 -0.7040
13118TIP3    H160769   2.416   5.535   3.984  0.4956  0.5576  1.3250
13118TIP3    H260770   2.266   5.526   3.967  0.7473  1.2557 -1.8197
13119TIP3   OH260771   4.534   2.647  12.907  0.3981 -0.1706 -0.4034
13119TIP3    H160772   4.586   2.726  12.919 -0.5933  0.3149  0.9166
13119TIP3    H260773   4.450   2.667  12.947 -0.6648 -1.1062 -2.0504
13120TIP3   OH260774   2.419   2.135   2.088 -0.0009 -0.4531  1.0727
13120TIP3    H160775   2.453   2.225   2.086  3.3387 -1.5888 -1.3876
13120TIP3    H260776   2.344   2.137   2.029  1.0641  0.4570 -0.3316
13121TIP3   OH260777   0.602   4.934   4.168  0.0060  0.2236  0.0864
13121TIP3    H160778   0.559   4.887   4.240 -0.3160 -1.1026 -0.9391
13121TIP3    H260779   0.675   4.878   4.143  1.6846  1.9083  1.0371
13122TIP3   OH260780   1.792   6.105  13.163 -0.1729 -0.3158  0.5483
13122TIP3    H160781   1.760   6.020  13.132  0.6053  0.2524 -2.0395
13122TIP3    H260782   1.716   6.163  13.155 -0.1774 -0.3417  0.3876
13123TIP3   OH260783   2.656   1.343  11.864 -0.3608 -0.6182  0.1610
13123TIP3    H160784   2.737   1.356  11.815 -0.3356 -3.4429 -0.7110
13123TIP3    H260785   2.587   1.374  11.804 -0.1065 -0.9589 -0.3178
13124TIP3   OH260786   3.940   5.279   1.564  0.2186  0.5920 -0.5976
13124TIP3    H160787   3.928   5.242   1.476  1.0947 -0.9255 -0.1143
13124TIP3    H260788   3.856   5.320   1.584 -1.5752 -2.8277 -0.4299
13125TIP3   OH260789   1.573   6.380  16.189  0.1828 -0.0427  0.3770
13125TIP3    H160790   1.549   6.336  16.271  1.8662  1.6871  1.8952
13125TIP3    H260791   1.502   6.444  16.176  0.4757  0.4580  1.1431
13126TIP3   OH260792   4.367   1.977   2.268  0.6976  0.7072 -0.5804
13126TIP3    H160793   4.402   2.047   2.213 -1.2417  2.7657  0.6313
13126TIP3    H260794   4.277   1.966   2.238  0.6018 -0.3974  0.0658
13127TIP3   OH260795   0.169   3.880  13.499  0.2498  0.5311  0.1508
13127TIP3    H160796   0.258   3.872  13.464  0.8794  0.4783  1.7067
13127TIP3    H260797   0.178   3.864  13.593 -0.9314  3.3804  0.8677
13128TIP3   OH260798   1.790   2.014  16.504 -0.4062 -1.2561 -0.1640
13128TIP3    H160799   1.856   2.084  16.504 -3.1537  1.6332  1.6258
13128TIP3    H260800   1.785   1.987  16.596 -3.7391  0.9762  0.4999
13129TIP3   OH260801   5.417   1.377   1.956 -0.3352  0.4067  0.3879
13129TIP3    H160802   5.360   1.320   2.007  1.2131 -1.2866  0.2978
13129TIP3    H260803   5.468   1.425   2.022 -0.6329  0.6605  0.4399
13130TIP3   OH260804   1.269   3.819   2.185 -0.1646 -0.5334 -0.3423
13130TIP3    H160805   1.266   3.804   2.090  0.2946 -1.2715 -0.2453
13130TIP3    H260806   1.359   3.801   2.209  0.0117  0.7795  0.0679
13131TIP3   OH260807   3.137   4.963   6.162  0.8193 -0.3751  0.3549
13131TIP3    H160808   3.080   4.980   6.237  0.9982  0.3779  0.3296
13131TIP3    H260809   3.121   4.872   6.139  0.6414 -0.5589  1.2051
13132TIP3   OH260810   0.246   4.129  17.318  0.2927 -1.0210  0.9121
13132TIP3    H160811   0.225   4.184  17.243  1.5219 -1.6545  0.0789
13132TIP3    H260812   0.290   4.187  17.380 -0.5063 -0.5530  1.0513
13133TIP3   OH260813   4.722   2.055  16.311  0.1480 -0.1106 -0.6549
13133TIP3    H160814   4.699   1.999  16.385  1.2346  1.6496  1.0995
13133TIP3    H260815   4.662   2.028  16.241 -2.6581 -0.1740  1.5986
13134TIP3   OH260816   0.474   6.400   4.755  0.2072  0.4603  0.1524
13134TIP3    H160817   0.520   6.436   4.679 -0.1718 -1.5192 -1.1006
13134TIP3    H260818   0.534   6.412   4.828  1.6118  0.2775 -0.9395
13135TIP3   OH260819   1.825   3.204   1.082 -0.4825  0.1575  0.0673
13135TIP3    H160820   1.905   3.157   1.106  0.3477  0.6005 -1.7118
13135TIP3    H260821   1.758   3.136   1.075  0.2116 -0.4880 -0.3973
13136TIP3   OH260822   2.023   4.949  12.502  0.2320  0.5625  0.2884
13136TIP3    H160823   2.019   4.854  12.515 -0.3505  0.4916 -0.3352
13136TIP3    H260824   2.069   4.982  12.579 -1.2047 -0.0410  1.4613
13137TIP3   OH260825   1.235   3.507   4.892  0.5696 -0.2289  0.1370
13137TIP3    H160826   1.198   3.543   4.812  2.8897  1.4035 -0.2971
13137TIP3    H260827   1.182   3.546   4.962 -0.5680 -0.5385 -0.5342
13138TIP3   OH260828   1.165   6.280  12.394 -0.3102 -0.4884  0.4107
13138TIP3    H160829   1.235   6.293  12.459 -0.2493  0.5087  0.1627
13138TIP3    H260830   1.091   6.246  12.445 -0.4108  0.7018  1.1121
13139TIP3   OH260831   3.959   5.685   0.643 -0.0635  0.3847  0.7813
13139TIP3    H160832   3.972   5.590   0.649  1.4211  0.5631  0.8334
13139TIP3    H260833   3.954   5.702   0.549  1.4939  0.4443  0.6863
13140TIP3   OH260834   0.687   3.722  11.518 -0.4915 -0.6202  0.1584
13140TIP3    H160835   0.666   3.816  11.520 -0.6215 -0.6511  0.3597
13140TIP3    H260836   0.653   3.689  11.602 -0.9017 -0.9432 -0.1340
13141TIP3   OH260837   4.328   1.601  17.037  0.1860  0.4036  0.4515
13141TIP3    H160838   4.321   1.540  16.964  1.9603 -2.5249  2.5121
13141TIP3    H260839   4.241   1.602  17.076 -0.4459  1.0243 -0.8988
13142TIP3   OH260840   6.097   1.667  14.757 -0.3955  0.0362  0.0036
13142TIP3    H160841   6.114   1.597  14.694 -0.8858  1.0855 -1.3490
13142TIP3    H260842   6.002   1.666  14.769 -0.1540 -1.5919  2.5154
13143TIP3   OH260843   1.841   2.443   2.426 -0.5184  0.3636  0.2569
13143TIP3    H160844   1.823   2.516   2.366 -0.3831  1.0358  1.0152
13143TIP3    H260845   1.839   2.365   2.371  0.1950  1.0254 -0.7296
13144TIP3   OH260846   3.596   0.816   4.575  0.1858 -0.2519  0.1937
13144TIP3    H160847   3.502   0.812   4.557  0.5235 -1.1133 -1.5301
13144TIP3    H260848   3.602   0.818   4.671 -1.5751 -0.2490  0.3299
13145TIP3   OH260849   6.344   2.043  15.871  0.0386  0.2293 -0.3268
13145TIP3    H160850   6.278   2.098  15.913  0.4513 -1.0513  2.1527
13145TIP3    H260851   6.381   1.991  15.942  1.9642 -0.9041 -2.0522
13146TIP3   OH260852   1.934   6.266   4.476  0.4276 -0.2338  0.3286
13146TIP3    H160853   1.954   6.301   4.389 -1.9411 -2.7669 -1.4124
13146TIP3    H260854   1.885   6.336   4.518  0.8583  0.7319 -0.7119
13147TIP3   OH260855   2.833   1.288   0.625  0.4329  0.5130 -0.6154
13147TIP3    H160856   2.816   1.378   0.594  1.6982  0.4498 -1.5674
13147TIP3    H260857   2.815   1.233   0.548 -3.5437 -0.4836  0.7891
13148TIP3   OH260858   0.735   4.250   2.255  0.0522 -0.0694  0.1084
13148TIP3    H160859   0.674   4.192   2.210 -0.2458  1.3033 -1.3960
13148TIP3    H260860   0.799   4.274   2.187  0.8404  0.4134  1.0001
13149TIP3   OH260861   5.260   5.985   5.220  0.4345  0.5622  1.1986
13149TIP3    H160862   5.329   6.031   5.172  1.9453  1.1061  3.7333
13149TIP3    H260863   5.220   6.053   5.275  0.2385 -0.4162  2.3073
13150TIP3   OH260864   5.068   2.299  12.930 -0.1833 -0.1062  0.1822
13150TIP3    H160865   5.123   2.223  12.949 -0.9692 -0.2428  2.1148
13150TIP3    H260866   5.115   2.373  12.971 -0.0052  0.2749 -0.6835
13151TIP3   OH260867   2.490   2.075  12.816  0.4122  0.5983  0.5720
13151TIP3    H160868   2.424   2.115  12.759  1.5037  2.1167  0.3270
13151TIP3    H260869   2.555   2.038  12.755  1.4116  1.9335  0.7883
13152TIP3   OH260870   4.789   3.179   4.034 -0.1735 -0.6215  0.1958
13152TIP3    H160871   4.776   3.259   4.084  0.1398  1.2907 -2.5915
13152TIP3    H260872   4.701   3.141   4.027 -0.7325  0.6962 -0.3058
13153TIP3   OH260873   2.414   5.903  13.808  0.0183 -0.0403 -0.1055
13153TIP3    H160874   2.378   5.989  13.830 -1.6991 -0.5824 -0.6472
13153TIP3    H260875   2.487   5.921  13.749  0.1245  1.0633  0.3402
13154TIP3   OH260876   2.947   5.192  12.797  0.7384  0.3703 -0.2436
13154TIP3    H160877   3.025   5.176  12.744  0.2190  0.0122 -0.9065
13154TIP3    H260878   2.879   5.214  12.734  0.2834  0.6321  0.3274
13155TIP3   OH260879   3.285   0.405  11.456 -0.5820  0.8308 -0.5541
13155TIP3    H160880   3.344   0.478  11.476  0.1367  0.1768 -0.2206
13155TIP3    H260881   3.245   0.429  11.372 -0.6441  1.7727 -0.2741
13156TIP3   OH260882   2.267   4.847   1.654  0.6716  0.7458  0.7033
13156TIP3    H160883   2.237   4.937   1.641 -0.3421  0.4249  0.6936
13156TIP3    H260884   2.190   4.793   1.633  0.9898 -0.0782  1.5708
13157TIP3   OH260885   4.430   6.473  16.739 -0.1367 -0.1273  0.6917
13157TIP3    H160886   4.467   6.550  16.696 -1.8129  0.8191  0.8524
13157TIP3    H260887   4.504   6.434  16.785  1.5020 -0.5791 -2.1141
13158TIP3   OH260888   0.310   5.550  13.526  0.0442  0.3042 -0.2888
13158TIP3    H160889   0.294   5.592  13.442  1.1017 -2.0712 -1.7469
13158TIP3    H260890   0.394   5.587  13.555 -0.5297  1.4504 -0.0036
13159TIP3   OH260891   5.611   2.914   0.293 -0.1253  0.3173  0.5955
13159TIP3    H160892   5.653   2.829   0.281  0.4567  0.7849 -0.9011
13159TIP3    H260893   5.588   2.916   0.386  2.1120 -0.4556  1.2420
13160TIP3   OH260894   6.658   1.937  14.746  0.1960  0.0475  1.0043
13160TIP3    H160895   6.669   1.969  14.656 -2.8658  1.1556  0.8968
13160TIP3    H260896   6.729   1.875  14.759  2.0374  1.4766 -1.4047
13161TIP3   OH260897   5.213   3.660  11.779 -0.0721  0.2963  0.1977
13161TIP3    H160898   5.133   3.607  11.776  1.2076 -1.6704 -1.3135
13161TIP3    H260899   5.225   3.690  11.689  1.0210  0.3301  0.3438
13162TIP3   OH260900   6.203   5.362  14.333  0.1109 -0.1897  0.1983
13162TIP3    H160901   6.191   5.439  14.390  3.3429  0.2080  0.5447
13162TIP3    H260902   6.227   5.399  14.248  3.0861 -0.6957  0.7262
13163TIP3   OH260903   5.693   0.683   2.738 -0.1154 -0.3031 -0.2590
13163TIP3    H160904   5.774   0.731   2.756 -0.4025  0.3336 -0.6493
13163TIP3    H260905   5.690   0.616   2.807  1.3454 -1.1242 -0.9377
13164TIP3   OH260906   6.385   0.592   0.139 -0.4438 -0.9342  0.2415
13164TIP3    H160907   6.438   0.524   0.181  0.8382 -0.3873 -0.4153
13164TIP3    H260908   6.380   0.564   0.047  0.1947 -0.1003 -0.0607
13165TIP3   OH260909   0.901   2.131  16.341 -0.1185  0.4578  0.1449
13165TIP3    H160910   0.881   2.190  16.269 -1.1038  1.7674  1.4181
13165TIP3    H260911   0.954   2.184  16.401 -0.4118 -0.1648  0.9858
13166TIP3   OH260912   2.110   3.509  11.352 -0.1176  1.4765  0.4767
13166TIP3    H160913   2.014   3.518  11.349 -0.2787  0.1424  0.8515
13166TIP3    H260914   2.142   3.567  11.283 -1.3509  0.1940 -1.2711
13167TIP3   OH260915   4.753   3.585   5.480  0.0963 -0.3686 -0.0205
13167TIP3    H160916   4.741   3.499   5.442 -1.7861  0.0268 -0.4260
13167TIP3    H260917   4.826   3.575   5.541  0.1012 -2.1591 -0.2835
13168TIP3   OH260918   0.832   1.607   0.955 -0.2036  0.0277 -0.5213
13168TIP3    H160919   0.866   1.671   0.892  0.7663  0.1631  0.1221
13168TIP3    H260920   0.870   1.524   0.928  1.9791  0.4166  1.0935
13169TIP3   OH260921   3.972   3.884   2.668 -0.4290  0.3663  0.0994
13169TIP3    H160922   4.037   3.928   2.613  0.6259 -0.1529  0.9000
13169TIP3    H260923   3.983   3.925   2.754 -0.6220 -0.2625  0.4293
13170TIP3   OH260924   1.206   6.469  16.731 -0.2374 -0.7395  0.1112
13170TIP3    H160925   1.221   6.506  16.645  2.6275 -1.2129  0.3285
13170TIP3    H260926   1.209   6.374  16.718 -1.0409 -0.8484  0.5765
13171TIP3   OH260927   0.312   2.529   0.608 -1.2935 -0.1865  0.3032
13171TIP3    H160928   0.342   2.461   0.547  0.8367 -0.4248  1.5321
13171TIP3    H260929   0.288   2.480   0.687 -0.3111  0.4374  0.9926
13172TIP3   OH260930   4.506   3.575   1.390 -0.5108  0.4850  0.1449
13172TIP3    H160931   4.535   3.584   1.480 -0.2151  0.9259  0.0053
13172TIP3    H260932   4.412   3.592   1.393 -0.3915  1.1560  0.2719
13173TIP3   OH260933   2.555   2.196  17.355  0.1775  0.1114 -0.6575
13173TIP3    H160934   2.599   2.274  17.322  0.6853  0.1812  0.1645
13173TIP3    H260935   2.470   2.195  17.311  0.1734  1.1152 -0.6766
13174TIP3   OH260936   1.820   3.295   0.562  0.2793  0.6089 -0.2956
13174TIP3    H160937   1.811   3.207   0.599 -2.1331 -0.6377 -3.4381
13174TIP3    H260938   1.776   3.351   0.626  0.2038 -0.7167  0.8825
13175TIP3   OH260939   1.341   4.921   5.375 -0.2616 -0.1155 -0.3425
13175TIP3    H160940   1.415   4.896   5.319  0.3718  0.4313  0.2229
13175TIP3    H260941   1.306   5.000   5.334  1.5871  1.6134  1.1415
13176TIP3   OH260942   0.814   3.109  12.390 -0.0526  0.1714 -0.3004
13176TIP3    H160943   0.753   3.038  12.369 -1.8447  1.5504  0.0075
13176TIP3    H260944   0.822   3.106  12.485 -0.6080  0.7207 -0.2276
13177TIP3   OH260945   3.562   4.712   3.164 -0.9924 -0.1685 -0.0940
13177TIP3    H160946   3.654   4.693   3.149 -1.2894 -0.2580 -2.0275
13177TIP3    H260947   3.554   4.807   3.154 -1.0169 -0.0715  0.7439
13178TIP3   OH260948   0.914   4.099   0.521  0.0937  0.0917 -0.1198
13178TIP3    H160949   0.870   4.179   0.493 -3.8967 -2.0731 -0.6639
13178TIP3    H260950   0.923   4.109   0.616  0.4453  1.4577 -0.2694
13179TIP3   OH260951   4.679   1.507   4.013 -0.0799  0.0536 -0.0256
13179TIP3    H160952   4.604   1.567   4.007 -0.3493 -0.0478  1.7762
13179TIP3    H260953   4.699   1.503   4.106  1.9760 -0.1973 -0.4234
13180TIP3   OH260954   1.226   2.371  11.117  0.1359 -0.2333 -0.2095
13180TIP3    H160955   1.139   2.401  11.145  0.1692  0.7834 -1.1359
13180TIP3    H260956   1.285   2.401  11.186  0.2583  2.5157 -1.3931
13181TIP3   OH260957   3.579   3.229  11.504 -0.3928 -0.0498 -0.3137
13181TIP3    H160958   3.558   3.204  11.414  0.9843 -2.3964 -0.0557
13181TIP3    H260959   3.663   3.187  11.522 -0.9494 -0.2243  2.2896
13182TIP3   OH260960   0.863   4.523  12.184  0.3182 -0.1371 -0.4445
13182TIP3    H160961   0.950   4.492  12.160  0.5769 -0.6551  1.0758
13182TIP3    H260962   0.807   4.445  12.179  0.1458 -0.0136 -0.4585
13183TIP3   OH260963   4.408   0.514  16.523 -0.4053 -0.0553 -0.2524
13183TIP3    H160964   4.461   0.539  16.599  0.2365 -1.4410 -0.2056
13183TIP3    H260965   4.319   0.541  16.546 -0.3166 -0.9085  1.2311
13184TIP3   OH260966   0.131   2.991  15.210 -0.5015  0.6173 -0.6640
13184TIP3    H160967   0.180   3.037  15.278 -0.6464 -0.9000  0.5219
13184TIP3    H260968   0.192   2.924  15.178 -1.2034 -0.2077 -0.3316
13185TIP3   OH260969   5.204   1.306   3.819 -0.5997 -0.0264  0.1375
13185TIP3    H160970   5.261   1.377   3.847 -2.2600  1.6252 -0.5128
13185TIP3    H260971   5.262   1.249   3.767  0.8906  0.4815  1.1512
13186TIP3   OH260972   2.268   0.648  12.781  0.1835  0.2199  0.2317
13186TIP3    H160973   2.233   0.561  12.797 -0.3185  0.1389 -1.1765
13186TIP3    H260974   2.267   0.690  12.867 -0.2833 -0.8999  0.7952
13187TIP3   OH260975   4.391   0.699   4.161  0.3126 -0.0410 -0.0997
13187TIP3    H160976   4.406   0.770   4.222 -1.3349  0.4248 -0.1858
13187TIP3    H260977   4.468   0.699   4.104  0.5829  1.3110  0.2421
13188TIP3   OH260978   1.418   1.693   0.882  0.4205 -0.0366  0.0180
13188TIP3    H160979   1.453   1.722   0.967 -1.8111  1.4413  0.5177
13188TIP3    H260980   1.401   1.774   0.834 -0.2114 -0.7825 -1.0531
13189TIP3   OH260981   1.970   3.398  10.916  0.0255 -0.2940  0.0180
13189TIP3    H160982   2.022   3.341  10.972 -1.9415 -0.2737  2.0037
13189TIP3    H260983   1.907   3.340  10.873 -1.2327  0.1940  1.1543
13190TIP3   OH260984   5.269   3.812   5.811 -0.1200 -0.0484  0.6386
13190TIP3    H160985   5.293   3.785   5.722 -2.0231  0.2993 -0.0280
13190TIP3    H260986   5.232   3.900   5.801  1.2066  0.7155  2.0438
13191TIP3   OH260987   6.377   3.611  14.641 -0.7832 -0.0342 -0.0633
13191TIP3    H160988   6.292   3.654  14.648  0.1675  2.0413 -0.1571
13191TIP3    H260989   6.371   3.534  14.697 -2.4485  0.5184  0.5679
13192TIP3   OH260990   6.452   5.696  13.815  0.4828  0.4325  0.0718
13192TIP3    H160991   6.390   5.725  13.882 -1.0511  0.2366 -1.2105
13192TIP3    H260992   6.479   5.776  13.771 -1.0775  0.2968 -1.2037
13193TIP3   OH260993   2.181   1.753   2.406  0.5224  0.4279 -0.3156
13193TIP3    H160994   2.178   1.843   2.372 -0.1791  0.0102 -1.4189
13193TIP3    H260995   2.116   1.706   2.354 -1.2800 -0.0808  2.2573
13194TIP3   OH260996   1.468   1.098  14.834 -0.2250 -1.0019  0.6871
13194TIP3    H160997   1.483   1.189  14.859  0.8327 -1.2730  1.0837
13194TIP3    H260998   1.445   1.054  14.916  2.3054 -1.6967  1.1062
13195TIP3   OH260999   3.942   6.165   2.950  0.5470 -0.7440  0.0562
13195TIP3    H161000   3.891   6.097   2.996  0.0761 -0.0756  0.5495
13195TIP3    H261001   4.021   6.175   3.003 -0.1342  0.2405  0.9180
13196TIP3   OH261002   6.528   6.056  13.536  0.0948 -0.4565 -0.1404
13196TIP3    H161003   6.599   6.121  13.542 -0.6183  0.2990  0.2258
13196TIP3    H261004   6.574   5.972  13.527  1.0839 -0.1994  1.9404
13197TIP3   OH261005   0.367   1.768  11.680 -0.4480  0.6147  0.7994
13197TIP3    H161006   0.357   1.801  11.769 -1.0685 -3.8216  2.6715
13197TIP3    H261007   0.277   1.759  11.648 -0.5418 -1.7225  1.5350
13198TIP3   OH261008   6.542   5.618   2.131 -0.5676  0.4147 -0.3457
13198TIP3    H161009   6.499   5.643   2.049 -0.7576  1.1109 -0.0431
13198TIP3    H261010   6.613   5.681   2.141 -0.7499  0.5393  0.1931
13199TIP3   OH261011   5.189   1.195   3.271  0.4615 -0.2425  0.0753
13199TIP3    H161012   5.231   1.168   3.189  0.3078  2.8977 -1.1741
13199TIP3    H261013   5.247   1.162   3.340  1.4835 -1.5266 -1.3250
13200TIP3   OH261014   6.102   4.859  12.314 -0.4509  0.1408  0.4294
13200TIP3    H161015   6.102   4.769  12.348  0.3519  0.3718  1.0720
13200TIP3    H261016   6.073   4.913  12.388  1.5294  0.6741  0.8698
13201TIP3   OH261017   3.177   4.817   4.580 -0.0659 -0.5144  0.1887
13201TIP3    H161018   3.240   4.888   4.581 -1.3302  0.7187 -1.7863
13201TIP3    H261019   3.113   4.840   4.647 -0.7941  0.5606 -0.8483
13202TIP3   OH261020   3.461   1.217  16.779  0.5319 -0.0516 -0.2407
13202TIP3    H161021   3.543   1.207  16.827  1.3184  2.2737 -0.9624
13202TIP3    H261022   3.448   1.132  16.736  1.3778 -1.1733  1.6030
13203TIP3   OH261023   0.079   1.280   3.848 -0.3156  0.6934 -0.2343
13203TIP3    H161024   0.090   1.296   3.754  0.1807 -0.8812 -0.4697
13203TIP3    H261025   0.035   1.195   3.853  1.2352 -0.0786  0.9775
13204TIP3   OH261026   6.250   1.663   4.603  0.7328 -0.2284  0.1181
13204TIP3    H161027   6.308   1.632   4.672  1.4158  0.4249 -0.1417
13204TIP3    H261028   6.241   1.757   4.619 -0.4749 -0.3536  0.3050
13205TIP3   OH261029   6.686   1.840   3.314 -0.1018 -0.3915 -0.7182
13205TIP3    H161030   6.689   1.895   3.393 -1.5677 -0.3568 -0.6559
13205TIP3    H261031   6.740   1.888   3.250 -1.3443  1.1666 -0.6685
13206TIP3   OH261032   3.820   0.181   4.402 -0.2903  0.1497  0.2181
13206TIP3    H161033   3.767   0.101   4.414  0.0380 -0.1650 -0.4045
13206TIP3    H261034   3.756   0.248   4.377 -0.7725  0.4423  2.0387
13207TIP3   OH261035   1.003   6.619   2.607  0.0720 -0.3406 -0.7404
13207TIP3    H161036   0.982   6.609   2.514 -0.1460  0.7289 -0.8275
13207TIP3    H261037   1.039   6.535   2.633  3.0171  0.2084 -2.5331
13208TIP3   OH261038   0.883   2.990   5.153  0.1911  0.0001 -0.3031
13208TIP3    H161039   0.960   3.022   5.106 -1.0070  1.2221 -1.5245
13208TIP3    H261040   0.839   3.069   5.185 -0.6639 -0.6570  0.2068
13209TIP3   OH261041   5.804   2.897  17.382 -0.5902  0.0468 -0.0406
13209TIP3    H161042   5.722   2.870  17.340 -0.1054 -0.2719 -0.8093
13209TIP3    H261043   5.827   2.979  17.337 -0.8430  0.5018  0.6545
13210TIP3   OH261044   4.507   2.849   5.498 -0.2320 -0.5389  0.1064
13210TIP3    H161045   4.522   2.883   5.587 -2.3460  1.4727 -0.2212
13210TIP3    H261046   4.528   2.756   5.505 -0.4935 -0.4907  2.7627
13211TIP3   OH261047   1.294   5.385   1.851  0.2108  0.3738  0.4499
13211TIP3    H161048   1.389   5.382   1.867  0.3665  0.8657 -0.3105
13211TIP3    H261049   1.283   5.458   1.790 -0.7496  0.7907  1.1117
13212TIP3   OH261050   2.865   4.981  13.916 -0.0896 -0.2305  0.2003
13212TIP3    H161051   2.938   5.037  13.941 -0.7177 -0.1885  2.0683
13212TIP3    H261052   2.866   4.983  13.820  1.3122  1.1009  0.1926
13213TIP3   OH261053   1.049   2.657  14.604  0.8691 -0.6558 -0.4361
13213TIP3    H161054   0.962   2.619  14.588  1.6993 -2.7571 -0.1980
13213TIP3    H261055   1.048   2.682  14.696  0.0393  0.7727 -0.7891
13214TIP3   OH261056   2.440   0.397  11.403 -0.1243 -0.1722 -0.0611
13214TIP3    H161057   2.397   0.338  11.340 -1.2270  1.0581 -0.5029
13214TIP3    H261058   2.443   0.481  11.358  0.7846  0.2898  0.8353
13215TIP3   OH261059   4.593   3.208   4.501 -0.1367 -0.3861  0.1015
13215TIP3    H161060   4.513   3.173   4.538 -0.4753 -1.2007 -1.3531
13215TIP3    H261061   4.662   3.150   4.534 -0.1691  0.0482  0.9826
13216TIP3   OH261062   5.379   5.078  14.441 -0.6470 -0.2227 -0.1097
13216TIP3    H161063   5.295   5.113  14.471  0.2099 -1.3001  4.1405
13216TIP3    H261064   5.444   5.130  14.488  1.0572 -0.6507 -1.8672
13217TIP3   OH261065   2.049   2.787   3.686 -0.6465 -0.5248 -0.1925
13217TIP3    H161066   2.090   2.722   3.629 -1.4566 -3.8466  2.6469
13217TIP3    H261067   1.975   2.820   3.635 -0.3814 -2.0824 -1.6852
13218TIP3   OH261068   1.382   3.121  16.547 -0.2596 -0.2685 -0.4085
13218TIP3    H161069   1.332   3.060  16.601 -2.3083  1.7268  0.1315
13218TIP3    H261070   1.472   3.087  16.549 -1.1158 -2.7230  0.5448
13219TIP3   OH261071   5.685   0.997  13.045  0.1203  0.5901 -0.6538
13219TIP3    H161072   5.716   1.055  13.115  3.1598  0.2827 -1.5708
13219TIP3    H261073   5.765   0.955  13.013 -1.7611 -3.0947 -0.9818
13220TIP3   OH261074   3.640   5.172   3.785  0.4234  0.3109 -0.1750
13220TIP3    H161075   3.572   5.109   3.760 -1.3015  1.8336  0.4333
13220TIP3    H261076   3.610   5.207   3.869  2.9439 -0.2903  1.0520
13221TIP3   OH261077   4.408   3.676  12.230  0.3729  0.6629 -0.1591
13221TIP3    H161078   4.426   3.743  12.296 -1.2941  2.6158 -1.5628
13221TIP3    H261079   4.380   3.725  12.152 -1.7460 -1.6508 -1.0151
13222TIP3   OH261080   0.683   6.702   6.241 -0.4596 -0.3647 -0.0703
13222TIP3    H161081   0.733   6.713   6.160 -0.2358  2.8179  0.3564
13222TIP3    H261082   0.616   6.770   6.236 -0.4097 -0.0602  2.4325
13223TIP3   OH261083   2.256   5.155   0.153  0.1809  0.7231 -0.0449
13223TIP3    H161084   2.323   5.180   0.089  1.2830 -0.1677  0.7151
13223TIP3    H261085   2.220   5.073   0.118 -0.3827  1.0944 -0.3483
13224TIP3   OH261086   5.311   5.468   3.198  0.3622  0.2516 -0.5293
13224TIP3    H161087   5.374   5.452   3.268  0.3415  1.3213 -0.2568
13224TIP3    H261088   5.302   5.563   3.194 -2.0663  0.1353  0.2059
13225TIP3   OH261089   3.387   3.235  15.250 -0.0965 -0.1353  0.5473
13225TIP3    H161090   3.384   3.166  15.316  2.0409 -0.1498  0.6761
13225TIP3    H261091   3.476   3.269  15.255 -1.0959  2.7453  0.5898
13226TIP3   OH261092   1.575   2.803   1.209 -0.1996  0.1870  0.3234
13226TIP3    H161093   1.525   2.771   1.134 -0.1513  2.7291 -0.8997
13226TIP3    H261094   1.550   2.745   1.281 -1.3222 -1.4823 -1.3213
13227TIP3   OH261095   4.856   3.413   1.148 -0.2543  0.7412  0.2618
13227TIP3    H161096   4.951   3.418   1.142 -0.3567  2.5945 -0.3276
13227TIP3    H261097   4.836   3.322   1.125  1.3571  0.3285  0.3737
13228TIP3   OH261098   1.729   0.442   1.623 -0.1444  0.7114 -0.0701
13228TIP3    H161099   1.741   0.356   1.583  0.0345  0.3717  0.6808
13228TIP3    H261100   1.752   0.429   1.715  0.7532  1.7581 -0.1091
13229TIP3   OH261101   6.145   2.163   2.922  0.0042  0.2583 -0.1945
13229TIP3    H161102   6.116   2.190   3.010  0.3428  1.8229 -0.5278
13229TIP3    H261103   6.065   2.162   2.870 -0.0391  0.4454 -0.1318
13230TIP3   OH261104   1.230   4.763  16.274 -0.4040  0.1314 -0.3940
13230TIP3    H161105   1.243   4.858  16.270 -2.4434  0.5172  0.5767
13230TIP3    H261106   1.182   4.742  16.194 -0.3689 -0.0102 -0.3771
13231TIP3   OH261107   2.500   3.957  17.150 -0.2808  0.0713  0.0019
13231TIP3    H161108   2.465   3.893  17.088 -1.1859  1.7753 -1.3154
13231TIP3    H261109   2.568   3.909  17.197  0.2538 -1.4107 -2.1107
13232TIP3   OH261110   0.395   2.932   3.478 -0.8896 -0.2824 -0.0786
13232TIP3    H161111   0.444   2.937   3.560  0.0335 -0.7997 -0.5845
13232TIP3    H261112   0.312   2.892   3.502 -1.0158  0.4436  0.7604
13233TIP3   OH261113   6.723   3.475   5.322  0.1240  0.2018 -0.7871
13233TIP3    H161114   6.745   3.567   5.308  0.4681 -0.0988 -2.4518
13233TIP3    H261115   6.634   3.476   5.358  1.0142  1.2425  1.6496
13234TIP3   OH261116   4.485   4.606   4.383  0.8812 -0.3704  0.8880
13234TIP3    H161117   4.469   4.653   4.465  0.9539 -0.0487  0.7202
13234TIP3    H261118   4.454   4.517   4.399 -1.6676  0.3332  0.4002
13235TIP3   OH261119   3.114   6.633   3.029 -0.7285  0.5785 -0.4437
13235TIP3    H161120   3.073   6.633   3.116  0.2347  3.6742  0.1149
13235TIP3    H261121   3.040   6.627   2.968 -1.3687 -2.6883  0.4614
13236TIP3   OH261122   3.926   4.303  16.528  1.0060  0.1158 -0.0327
13236TIP3    H161123   3.893   4.389  16.503  0.1263  0.1245  1.0509
13236TIP3    H261124   4.006   4.321  16.577  0.3727  0.3953  0.9300
13237TIP3   OH261125   1.217   0.938   4.279 -0.3466 -0.0320 -0.0566
13237TIP3    H161126   1.262   0.885   4.214  0.8716  2.7799 -1.6850
13237TIP3    H261127   1.286   0.990   4.320 -1.5348  0.7936  0.9739
13238TIP3   OH261128   0.293   6.348   4.418  0.7758 -0.5645  0.2888
13238TIP3    H161129   0.318   6.345   4.510  1.9321  0.3744  0.0203
13238TIP3    H261130   0.249   6.264   4.402  0.9023 -0.8875  1.5863
13239TIP3   OH261131   1.961   0.079  14.958  0.0108 -0.5713 -0.7244
13239TIP3    H161132   1.966   0.000  15.012 -0.5568  0.4566  0.9227
13239TIP3    H261133   1.985   0.050  14.870 -1.4110 -2.8360 -0.4534
13240TIP3   OH261134   0.604   1.876  16.455 -0.1868  0.3354  0.6673
13240TIP3    H161135   0.573   1.946  16.398  1.6345  0.2993 -0.4537
13240TIP3    H261136   0.525   1.844  16.499 -1.7717  0.1243 -2.0850
13241TIP3   OH261137   1.840   3.897  16.924 -0.3989 -0.3362  0.3731
13241TIP3    H161138   1.822   3.932  16.837 -1.3567 -0.4858  0.5063
13241TIP3    H261139   1.931   3.923  16.942 -0.3803  0.1800 -0.4278
13242TIP3   OH261140   6.691   3.164  15.404 -0.0849  0.3224 -0.3579
13242TIP3    H161141   6.752   3.218  15.353 -0.1284 -0.0060 -0.7619
13242TIP3    H261142   6.613   3.158  15.348 -0.2567  0.2342 -0.1060
13243TIP3   OH261143   6.090   3.584   5.215 -0.3716  0.6303  0.3623
13243TIP3    H161144   6.122   3.494   5.209  0.0172  0.8137 -0.3757
13243TIP3    H261145   6.055   3.590   5.304 -0.3166 -0.2188  0.4552
13244TIP3   OH261146   5.684   0.901  11.654 -0.2931 -0.2210 -0.1316
13244TIP3    H161147   5.667   0.807  11.657  2.9254 -0.8908  2.0317
13244TIP3    H261148   5.738   0.913  11.575 -1.5601  0.0752 -0.9947
13245TIP3   OH261149   5.010   3.891   2.994  0.8739 -0.5435 -0.2157
13245TIP3    H161150   5.077   3.865   3.058  0.7088  2.1652  1.2006
13245TIP3    H261151   4.928   3.859   3.031  1.0359 -1.1169 -0.3433
13246TIP3   OH261152   2.247   4.683  12.012  0.1503  0.0445  0.2094
13246TIP3    H161153   2.304   4.624  11.963 -0.4060 -1.2170  1.0163
13246TIP3    H261154   2.163   4.680  11.965 -0.4737 -1.3930  1.3014
13247TIP3   OH261155   1.004   2.554   3.936  0.2771 -0.0736 -0.1001
13247TIP3    H161156   1.050   2.599   4.006 -1.6175 -0.0866  1.2328
13247TIP3    H261157   1.049   2.581   3.856  0.8670  2.0521  0.8761
13248TIP3   OH261158   3.092   2.225  11.822  0.3311  0.5780  0.5847
13248TIP3    H161159   3.012   2.176  11.839  0.1859  0.9469  0.9916
13248TIP3    H261160   3.163   2.168  11.851  0.3637 -0.5180 -1.4444
13249TIP3   OH261161   5.270   6.454  15.149  0.0488  0.2093 -0.2058
13249TIP3    H161162   5.224   6.405  15.081 -2.5069 -1.3724  2.3956
13249TIP3    H261163   5.350   6.404  15.164  0.1239 -0.0276 -1.3050
13250TIP3   OH261164   1.037   6.731   1.330 -0.0142  0.3223 -0.0961
13250TIP3    H161165   1.030   6.818   1.367 -1.1225 -1.0336  3.2184
13250TIP3    H261166   1.126   6.703   1.352 -0.3992 -0.1715  0.9073
13251TIP3   OH261167   3.841   0.385   5.945 -0.0799 -0.4087 -0.3042
13251TIP3    H161168   3.831   0.477   5.919  0.0918 -0.7229 -1.5743
13251TIP3    H261169   3.806   0.380   6.033  0.9759  1.1220  0.2377
13252TIP3   OH261170   2.190   0.631   0.056  0.5656  0.1442 -0.3166
13252TIP3    H161171   2.260   0.662   0.114  0.0233 -0.3156  0.6087
13252TIP3    H261172   2.128   0.703   0.051 -1.3249 -1.0918  2.8402
13253TIP3   OH261173   0.150   1.254  13.181  0.0754  0.0451 -0.2137
13253TIP3    H161174   0.187   1.273  13.267  2.1837 -0.3514 -0.9735
13253TIP3    H261175   0.101   1.333  13.157  1.1689  0.9718  0.4968
13254TIP3   OH261176   1.712   0.634  16.417 -0.2020 -0.3127 -0.1094
13254TIP3    H161177   1.674   0.661  16.333  0.3160 -0.0865 -0.2794
13254TIP3    H261178   1.805   0.620  16.397  0.3204  1.5304  0.7885
13255TIP3   OH261179   0.672   0.402  13.193 -0.3891  0.1280  0.1986
13255TIP3    H161180   0.680   0.401  13.097 -0.2215  0.4890  0.2082
13255TIP3    H261181   0.685   0.493  13.217  0.4590 -0.1032  0.6474
13256TIP3   OH261182   3.383   5.009   4.591 -0.0902 -0.0645  0.1520
13256TIP3    H161183   3.373   5.002   4.686 -0.9717 -2.1769 -0.0540
13256TIP3    H261184   3.441   5.085   4.579 -0.5025  0.6759  2.3204
13257TIP3   OH261185   5.369   1.371  17.140  0.3431  0.2648  0.5381
13257TIP3    H161186   5.413   1.454  17.159  1.3042 -0.0366 -0.2977
13257TIP3    H261187   5.288   1.375  17.191  0.2850  1.7951  0.3753
13258TIP3   OH261188   3.604   1.867   4.416 -0.1398 -0.6040  0.1495
13258TIP3    H161189   3.547   1.859   4.339 -1.0050 -0.4362  0.7600
13258TIP3    H261190   3.544   1.871   4.490  0.5352  1.7140  0.6660
13259TIP3   OH261191   3.901   2.079  14.056 -0.8384 -0.1279  0.2304
13259TIP3    H161192   3.824   2.074  14.114 -2.0822 -0.6290 -1.4047
13259TIP3    H261193   3.879   2.023  13.982  0.5401  0.8184 -0.9427
13260TIP3   OH261194   5.661   1.389  12.385 -0.2092  0.0280 -0.2159
13260TIP3    H161195   5.603   1.450  12.430  0.8546  1.0761 -0.2345
13260TIP3    H261196   5.619   1.372  12.301 -0.4584  0.8181 -0.2503
13261TIP3   OH261197   0.257   5.239  17.351  0.1961  0.6836  0.3854
13261TIP3    H161198   0.350   5.254  17.334  0.4013  0.9441  1.5826
13261TIP3    H261199   0.220   5.327  17.361 -0.1986  0.5834 -0.1892
13262TIP3   OH261200   2.680   1.464  17.368  0.0605 -0.4093  0.2362
13262TIP3    H161201   2.647   1.425  17.449 -0.8442 -0.2626 -0.0451
13262TIP3    H261202   2.614   1.530  17.346  0.3157 -0.4302 -0.6026
13263TIP3   OH261203   6.272   4.986   3.427  0.0200 -0.4647 -0.1215
13263TIP3    H161204   6.254   4.899   3.462 -1.4651 -0.5287 -0.9986
13263TIP3    H261205   6.254   4.979   3.334  1.3034  0.4228 -0.4738
13264TIP3   OH261206   2.398   6.672   4.714  0.0385 -0.3537  0.2343
13264TIP3    H161207   2.355   6.635   4.791 -0.6583  2.6273  1.4100
13264TIP3    H261208   2.490   6.648   4.724  0.5806  2.3905  3.7764
13265TIP3   OH261209   0.954   3.225  16.145  0.2188  0.1602  0.5042
13265TIP3    H161210   1.002   3.175  16.079  0.7937 -1.3327  1.9776
13265TIP3    H261211   1.018   3.243  16.213 -0.1521  2.4086  0.3429
13266TIP3   OH261212   4.822   1.978  12.143 -0.4399 -0.0916 -0.2493
13266TIP3    H161213   4.754   1.912  12.129 -0.6657 -0.3774  1.9305
13266TIP3    H261214   4.891   1.931  12.190 -0.7106  1.2639  1.5489
13267TIP3   OH261215   3.319   5.219   0.243 -0.3715  0.2574 -0.1446
13267TIP3    H161216   3.233   5.214   0.284  0.2132  2.1397  1.4492
13267TIP3    H261217   3.302   5.253   0.155 -1.2979  0.0576 -0.0527
13268TIP3   OH261218   3.587   3.891   0.657  0.5976 -0.4721  0.1403
13268TIP3    H161219   3.653   3.930   0.600 -0.7807  1.0511 -0.4646
13268TIP3    H261220   3.562   3.809   0.613 -0.5783  0.7698 -1.6010
13269TIP3   OH261221   5.169   4.358   6.021  0.3128 -0.5493  0.0665
13269TIP3    H161222   5.123   4.409   5.955 -0.2244 -2.3409 -1.0119
13269TIP3    H261223   5.157   4.267   5.994  1.3454 -1.2639  1.8281
13270TIP3   OH261224   1.209   4.361   2.971 -0.0012 -0.4150 -0.2149
13270TIP3    H161225   1.174   4.450   2.972 -1.3308 -0.9201  0.1870
13270TIP3    H261226   1.213   4.338   2.878 -1.1409 -0.4747 -0.2632
13271TIP3   OH261227   5.263   1.997  16.553 -0.1895  0.2049 -0.1488
13271TIP3    H161228   5.251   1.936  16.625 -2.1408  0.7568  0.0324
13271TIP3    H261229   5.280   2.081  16.595  1.0273  0.1043 -0.3912
13272TIP3   OH261230   1.544   5.356   6.395 -0.5161 -0.5263  0.5948
13272TIP3    H161231   1.487   5.279   6.400 -0.6929 -0.4391  0.0367
13272TIP3    H261232   1.520   5.409   6.471 -2.3260  0.2688 -0.4442
13273TIP3   OH261233   6.243   2.735  15.653  0.5370  0.0024  0.3967
13273TIP3    H161234   6.223   2.655  15.605  1.0278  1.6868 -2.8502
13273TIP3    H261235   6.338   2.745  15.646  0.2187  2.6457 -2.6554
13274TIP3   OH261236   4.768   2.575   2.393  0.1175 -0.1410  0.0976
13274TIP3    H161237   4.848   2.541   2.433  0.2488 -0.7254 -0.6407
13274TIP3    H261238   4.796   2.653   2.345  0.2875 -0.4592 -0.3259
13275TIP3   OH261239   0.285   4.904  15.171 -0.3920 -0.5338  0.1168
13275TIP3    H161240   0.327   4.914  15.256 -0.3642  0.8109 -0.0328
13275TIP3    H261241   0.327   4.969  15.115 -2.1379  0.3705 -0.2285
13276TIP3   OH261242   0.672   1.288  16.246 -0.1657 -0.1544 -0.8399
13276TIP3    H161243   0.697   1.363  16.191 -3.3031  0.9817 -0.9280
13276TIP3    H261244   0.609   1.324  16.308  1.1377 -2.0007  1.7422
13277TIP3   OH261245   6.113   5.658  16.398 -0.2866 -0.0042  0.0173
13277TIP3    H161246   6.025   5.694  16.393  0.8539  3.2503  0.7162
13277TIP3    H261247   6.116   5.613  16.482 -0.2763  3.2968  1.9433
13278TIP3   OH261248   1.671   0.806   4.945  0.4656  0.2651 -0.1769
13278TIP3    H161249   1.687   0.786   4.853  3.6870  2.3182 -0.2149
13278TIP3    H261250   1.758   0.820   4.983 -0.8501  2.0533  2.5305
13279TIP3   OH261251   1.002   2.509  15.071  0.9792  0.7051 -0.3617
13279TIP3    H161252   0.966   2.594  15.046 -1.8320  0.2307  1.5778
13279TIP3    H261253   1.053   2.527  15.150 -1.1193  0.4756  1.1446
13280TIP3   OH261254   0.653   0.959   2.957 -0.0278  0.1389 -0.6345
13280TIP3    H161255   0.660   0.965   3.053 -1.2484 -1.3456 -0.4180
13280TIP3    H261256   0.703   0.881   2.934 -0.7739 -0.2236 -1.0527
13281TIP3   OH261257   2.116   6.466   2.389  0.2253  0.0048 -0.2569
13281TIP3    H161258   2.118   6.522   2.312  0.9447  0.3206 -0.0269
13281TIP3    H261259   2.035   6.489   2.434  0.8096  1.3372  0.1650
13282TIP3   OH261260   5.294   5.743   0.795 -0.3667  0.1318  0.9853
13282TIP3    H161261   5.325   5.737   0.705 -0.3811 -1.4191  1.0648
13282TIP3    H261262   5.290   5.837   0.813 -0.3298  0.4538 -0.6089
13283TIP3   OH261263   0.426   2.785  13.465  0.8688 -0.0629 -0.5705
13283TIP3    H161264   0.378   2.867  13.480  0.2738 -0.5643  0.4058
13283TIP3    H261265   0.357   2.719  13.454  1.2855 -0.8382  1.1085
13284TIP3   OH261266   1.811   5.048  14.950 -0.0322  0.2535 -0.1956
13284TIP3    H161267   1.795   4.970  14.896 -0.0376 -0.8264  1.2964
13284TIP3    H261268   1.807   5.121  14.888 -2.2785 -0.7024 -1.2949
13285TIP3   OH261269   0.787   2.194   1.464  0.5799  0.3510 -0.1765
13285TIP3    H161270   0.715   2.132   1.477  1.6848 -1.2074 -1.0283
13285TIP3    H261271   0.852   2.144   1.414  1.0154  2.6137 -2.0334
13286TIP3   OH261272   2.002   5.460  12.554  0.4419  0.0982 -0.1293
13286TIP3    H161273   2.051   5.379  12.551  0.9659  0.4266 -0.6144
13286TIP3    H261274   2.048   5.519  12.494  1.0872  1.3155  1.4479
13287TIP3   OH261275   2.056   2.784  13.307 -0.2789  0.5090  0.2654
13287TIP3    H161276   2.013   2.810  13.389  0.9183 -2.4335  2.0068
13287TIP3    H261277   2.028   2.693  13.294  1.9436 -0.0709 -0.8980
13288TIP3   OH261278   5.140   3.106   0.237 -0.5364  0.1507 -0.1892
13288TIP3    H161279   5.157   3.181   0.179  0.8999  0.1117  0.1393
13288TIP3    H261280   5.133   3.145   0.324 -2.0148  0.1309 -0.2715
13289TIP3   OH261281   3.771   2.052   0.187  0.1835  0.4141 -0.5750
13289TIP3    H161282   3.829   1.976   0.187  0.7087  0.8074 -0.2052
13289TIP3    H261283   3.761   2.074   0.280  0.5957  1.2180 -0.7164
13290TIP3   OH261284   4.889   6.181   2.978 -0.0985 -0.1109 -0.1348
13290TIP3    H161285   4.820   6.136   3.026 -0.2013 -0.3590 -0.5154
13290TIP3    H261286   4.888   6.142   2.891  1.0155 -0.6312  0.0708
13291TIP3   OH261287   1.840   5.752  15.304  0.3816  0.3515 -0.3339
13291TIP3    H161288   1.767   5.713  15.353  1.5182 -1.6102 -0.0954
13291TIP3    H261289   1.865   5.828  15.356  0.2026 -0.4782  1.0416
13292TIP3   OH261290   0.405   3.865  13.342  0.1139 -0.0254  0.6289
13292TIP3    H161291   0.462   3.855  13.266 -2.8067 -1.3871 -1.5425
13292TIP3    H261292   0.447   3.934  13.394  2.3682  0.8167 -2.0587
13293TIP3   OH261293   1.714   2.138  11.362  0.2548 -0.8391 -0.3841
13293TIP3    H161294   1.631   2.181  11.383  1.1820  0.2217  1.2987
13293TIP3    H261295   1.704   2.111  11.270 -1.9477 -0.7893 -0.2163
13294TIP3   OH261296   5.983   1.030  12.618 -0.1774 -0.0301  0.2493
13294TIP3    H161297   5.913   1.083  12.654  1.4323  2.6117 -0.1965
13294TIP3    H261298   5.957   1.014  12.527 -0.3949  0.5862  0.2020
13295TIP3   OH261299   4.510   0.288   0.945 -0.2051  0.3176  0.0656
13295TIP3    H161300   4.500   0.214   1.004 -0.4771 -0.0315 -0.4122
13295TIP3    H261301   4.421   0.306   0.914 -0.0115  0.2199 -0.5706
13296TIP3   OH261302   5.581   3.846   5.734  0.2936  0.1792  0.5524
13296TIP3    H161303   5.652   3.865   5.796  1.2700 -1.0259 -0.1451
13296TIP3    H261304   5.547   3.761   5.762 -0.9098  0.7320  0.8666
13297TIP3   OH261305   3.098   4.661   1.081 -0.2235 -0.5216 -0.1904
13297TIP3    H161306   3.174   4.602   1.085 -0.5332 -1.0002 -1.1301
13297TIP3    H261307   3.069   4.656   0.990 -0.3434  0.9860 -0.2533
13298TIP3   OH261308   3.519   2.461  14.489 -0.5256  0.2403 -0.6918
13298TIP3    H161309   3.578   2.531  14.517 -0.7246 -0.1838  0.8793
13298TIP3    H261310   3.506   2.477  14.395  1.6605  0.6596 -0.9912
13299TIP3   OH261311   0.420   6.247  12.532 -0.9967  0.3222  0.2625
13299TIP3    H161312   0.460   6.216  12.613 -0.6290 -0.5471 -0.2371
13299TIP3    H261313   0.449   6.338  12.524  0.3764 -0.0926  0.2512
13300TIP3   OH261314   2.992   1.008   5.383 -0.3614  0.3143 -0.5376
13300TIP3    H161315   3.086   1.023   5.374 -0.5151  0.5330 -2.1692
13300TIP3    H261316   2.976   1.010   5.477  1.5513 -1.5615 -0.0959
13301TIP3   OH261317   0.170   6.702  14.105 -0.3919  0.2594  0.2278
13301TIP3    H161318   0.233   6.688  14.176 -0.4410  0.6156  0.3408
13301TIP3    H261319   0.222   6.697  14.025 -0.3175 -0.0292  0.2915
13302TIP3   OH261320   5.663   6.562   4.083 -1.0331  0.1049 -0.1310
13302TIP3    H161321   5.753   6.529   4.082 -1.1127 -0.1610 -1.8515
13302TIP3    H261322   5.664   6.631   4.149  0.3873 -0.0216  0.0202
13303TIP3   OH261323   5.319   2.283  11.881  0.2462  0.0350  0.4153
13303TIP3    H161324   5.284   2.277  11.970 -0.6113 -0.3760  0.0564
13303TIP3    H261325   5.257   2.234  11.827  0.0251  1.3825 -0.6175
13304TIP3   OH261326   5.680   5.625   5.447  0.4407  0.3375 -0.0381
13304TIP3    H161327   5.744   5.620   5.518 -2.4218 -0.7656  2.7045
13304TIP3    H261328   5.714   5.565   5.380  1.9839 -0.6810  1.5435
13305TIP3   OH261329   5.365   4.217  13.784  0.1700  0.5401  0.0368
13305TIP3    H161330   5.433   4.157  13.752  2.2801  2.7784 -0.0037
13305TIP3    H261331   5.285   4.164  13.784  1.9591 -2.4512  0.6326
13306TIP3   OH261332   0.216   5.604   3.483 -0.0649 -0.3845 -0.5371
13306TIP3    H161333   0.130   5.647   3.481 -0.6406 -1.5192 -1.6242
13306TIP3    H261334   0.250   5.614   3.394  0.6186 -0.5462 -0.2982
13307TIP3   OH261335   2.788   3.016   5.385  0.3690 -0.1801  0.2091
13307TIP3    H161336   2.875   3.052   5.399  0.8985  1.7730 -5.5705
13307TIP3    H261337   2.729   3.089   5.400 -0.0088 -0.6400  1.0476
13308TIP3   OH261338   6.178   1.945   4.608  0.3213 -0.2131 -0.0953
13308TIP3    H161339   6.208   1.958   4.518  0.1690 -0.8785 -0.2440
13308TIP3    H261340   6.088   1.917   4.600  0.0939  0.3708  0.3018
13309TIP3   OH261341   2.778   3.359   3.922 -1.1261  0.1915 -0.1395
13309TIP3    H161342   2.837   3.283   3.924 -0.7670  0.4714  1.6769
13309TIP3    H261343   2.709   3.334   3.860 -0.4061 -1.1329 -0.4517
13310TIP3   OH261344   1.400   5.206  12.267 -0.1548 -0.2250 -0.0521
13310TIP3    H161345   1.449   5.277  12.225 -0.6538 -0.6403 -1.3874
13310TIP3    H261346   1.430   5.127  12.222 -0.7592 -0.6821  0.3446
13311TIP3   OH261347   4.734   0.732   2.672  0.4656  0.0426  0.1536
13311TIP3    H161348   4.795   0.804   2.654 -0.5624  0.6669 -0.9935
13311TIP3    H261349   4.656   0.774   2.707 -0.0992 -0.5096 -0.4011
13312TIP3   OH261350   2.370   1.001   1.855 -0.0024  0.1890 -0.6941
13312TIP3    H161351   2.461   1.018   1.878  0.3524 -0.1368 -1.8040
13312TIP3    H261352   2.339   0.941   1.922  0.9708 -0.6689 -0.9940
13313TIP3   OH261353   6.304   4.412   2.496 -0.0031  0.1938 -0.8590
13313TIP3    H161354   6.342   4.364   2.570  0.9776  0.1081 -1.3960
13313TIP3    H261355   6.296   4.501   2.527 -2.2943 -0.3686  0.3164
13314TIP3   OH261356   5.218   1.424   4.524 -0.0055 -0.7989 -0.0250
13314TIP3    H161357   5.186   1.491   4.584  0.6471  0.9425 -1.5195
13314TIP3    H261358   5.148   1.415   4.459 -1.1671 -3.4194  1.4369
13315TIP3   OH261359   3.898   0.991   1.100  0.0120  0.7106 -0.7496
13315TIP3    H161360   3.949   1.010   1.178 -1.1555 -0.0318  0.2316
13315TIP3    H261361   3.841   1.067   1.088 -0.6034  0.3489 -0.1954
13316TIP3   OH261362   2.783   5.999   0.025  0.5096 -0.1287  0.1402
13316TIP3    H161363   2.835   5.922   0.048  0.2662 -0.6198 -0.8936
13316TIP3    H261364   2.782   6.052   0.105 -1.2047 -2.2454  1.6435
13317TIP3   OH261365   4.410   0.316   4.391 -0.4451 -0.1277  0.7289
13317TIP3    H161366   4.323   0.325   4.351 -0.3536  0.8350  0.7271
13317TIP3    H261367   4.457   0.255   4.334  0.1623  2.2505 -1.4890
13318TIP3   OH261368   2.310   6.030   1.981  0.0408 -0.1545 -0.0570
13318TIP3    H161369   2.338   6.046   2.072 -0.5968 -1.0166  0.3007
13318TIP3    H261370   2.385   5.985   1.941  1.1998  2.0828 -0.6132
13319TIP3   OH261371   2.281   4.380   0.531 -0.3003 -0.1320 -0.4837
13319TIP3    H161372   2.322   4.331   0.460 -0.7352  0.0929 -0.8980
13319TIP3    H261373   2.207   4.425   0.490 -0.4995  0.0819  0.0911
13320TIP3   OH261374   3.900   2.596   5.466  0.9713 -0.4743  0.0839
13320TIP3    H161375   3.914   2.689   5.482  1.4129 -0.1293 -2.0361
13320TIP3    H261376   3.934   2.581   5.378 -3.3271 -1.5760 -1.6418
13321TIP3   OH261377   4.347   4.039   6.089 -0.1344 -0.4558 -0.3624
13321TIP3    H161378   4.252   4.050   6.092 -0.2690 -1.6890  1.0305
13321TIP3    H261379   4.381   4.118   6.132 -0.6262 -0.7772  0.6685
13322TIP3   OH261380   3.263   1.723   2.573  0.1916 -0.3137 -0.8960
13322TIP3    H161381   3.202   1.703   2.502 -0.4485 -0.9827 -0.1806
13322TIP3    H261382   3.349   1.705   2.537 -0.1787 -1.4398 -1.2605
13323TIP3   OH261383   6.647   4.611   5.769  0.3305  0.1692  0.1846
13323TIP3    H161384   6.703   4.689   5.766  0.7792 -0.1664 -2.3802
13323TIP3    H261385   6.561   4.642   5.743  0.5846 -0.1879 -1.1742
13324TIP3   OH261386   6.171   0.621  15.958  1.1910 -0.3911  0.2345
13324TIP3    H161387   6.151   0.528  15.962 -0.1650 -0.1557 -0.4145
13324TIP3    H261388   6.154   0.646  15.867 -1.0228  0.9820  0.9496
13325TIP3   OH261389   6.405   2.213   2.832 -0.5232 -0.0211  0.0108
13325TIP3    H161390   6.343   2.186   2.764 -1.2605 -1.0982  1.0645
13325TIP3    H261391   6.349   2.236   2.906  0.3100  0.1273  0.6006
13326TIP3   OH261392   1.549   1.261  12.273 -0.6577  0.0510 -0.5081
13326TIP3    H161393   1.490   1.257  12.348  0.0042  0.9521  0.0711
13326TIP3    H261394   1.593   1.346  12.281  1.8145 -1.1740 -0.0825
13327TIP3   OH261395   3.747   4.790  12.040 -0.7562 -0.6671 -0.1715
13327TIP3    H161396   3.711   4.708  12.005 -1.4550  0.3972 -2.1099
13327TIP3    H261397   3.782   4.835  11.963  0.0069  0.6687  0.9268
13328TIP3   OH261398   1.831   0.431  14.235 -0.1479 -0.4525 -0.1568
13328TIP3    H161399   1.800   0.470  14.316  2.4759  2.2275 -0.3004
13328TIP3    H261400   1.885   0.357  14.263  2.0929  1.4268  0.7499
13329TIP3   OH261401   0.287   3.110   4.477 -0.4984  0.4031  0.2372
13329TIP3    H161402   0.306   3.055   4.553  0.7366  0.6325  0.1061
13329TIP3    H261403   0.349   3.183   4.484 -0.0345  0.1820 -1.2474
13330TIP3   OH261404   5.430   2.929  10.343 -0.0108  0.6894 -0.1317
13330TIP3    H161405   5.391   3.014  10.321  1.0619  2.5892  4.1868
13330TIP3    H261406   5.364   2.886  10.397  0.3556 -0.1849 -0.3725
13331TIP3   OH261407   1.582   2.224   1.997  0.3107  0.4245 -0.1670
13331TIP3    H161408   1.501   2.231   1.947  0.5238  0.3561 -0.5258
13331TIP3    H261409   1.602   2.314   2.023  0.4923  0.5361 -0.6798
13332TIP3   OH261410   0.170   6.068  13.356 -0.4196 -0.6502 -0.0706
13332TIP3    H161411   0.186   5.991  13.411  0.4197 -0.8752 -0.6249
13332TIP3    H261412   0.205   6.141  13.407  0.4530 -0.8707 -0.3480
13333TIP3   OH261413   2.180   2.078   4.629  0.5776 -0.3340  0.0615
13333TIP3    H161414   2.268   2.096   4.662  0.4756  2.4703 -0.8926
13333TIP3    H261415   2.163   2.149   4.567 -1.9634 -1.3882 -0.5781
13334TIP3   OH261416   6.648   0.147   1.299  0.1206  0.0154  0.7895
13334TIP3    H161417   6.693   0.220   1.340 -1.7087  2.1745 -0.8104
13334TIP3    H261418   6.703   0.125   1.223 -0.0704  0.7769  0.4182
13335TIP3   OH261419   0.547   0.919  13.320 -0.2085 -0.0091 -0.0845
13335TIP3    H161420   0.560   1.013  13.334  0.7652  0.0612 -1.3183
13335TIP3    H261421   0.515   0.887  13.404  0.3837  1.2570  0.6548
13336TIP3   OH261422   0.149   2.068  16.358 -0.3099 -0.1681  0.0595
13336TIP3    H161423   0.121   2.149  16.400  0.6941 -1.5723  3.8272
13336TIP3    H261424   0.075   2.007  16.370 -0.1294 -0.5224 -0.5597
13337TIP3   OH261425   1.225   0.462  12.672 -0.3380  0.6267 -0.1343
13337TIP3    H161426   1.176   0.488  12.594  0.0004  1.4334 -0.0885
13337TIP3    H261427   1.228   0.541  12.727 -0.8562 -0.0222  0.8508
13338TIP3   OH261428   3.654   2.006   1.698  0.2513  0.6352 -0.2752
13338TIP3    H161429   3.738   2.025   1.739  0.4461 -0.8265  0.0467
13338TIP3    H261430   3.605   1.958   1.764  0.1019 -0.6791 -1.2942
13339TIP3   OH261431   6.180   5.085  11.466 -0.6438  0.0098  0.2510
13339TIP3    H161432   6.144   5.142  11.399  1.1050  0.1619 -0.6221
13339TIP3    H261433   6.262   5.053  11.429 -1.2613 -2.6428  0.9463
13340TIP3   OH261434   2.327   6.574  11.345 -0.4289  0.7769  0.4516
13340TIP3    H161435   2.328   6.550  11.252  0.4289  1.6235  0.2316
13340TIP3    H261436   2.246   6.535  11.379  0.6865 -2.1338  0.0662
13341TIP3   OH261437   2.516   1.835  11.365 -0.3841  0.0895 -0.4426
13341TIP3    H161438   2.465   1.755  11.377  0.8724 -1.0236 -2.0213
13341TIP3    H261439   2.491   1.867  11.279 -1.3824  1.8359  0.4468
13342TIP3   OH261440   2.248   5.874   0.152  0.2913  0.5904  0.4856
13342TIP3    H161441   2.324   5.815   0.147  0.6571  0.9818  1.2427
13342TIP3    H261442   2.196   5.852   0.075  1.3504  0.5588 -0.2567
13343TIP3   OH261443   2.053   5.123  13.989  0.1664 -0.5378  0.0683
13343TIP3    H161444   2.103   5.109  14.070  0.1867  0.4180  0.2353
13343TIP3    H261445   1.988   5.189  14.012 -0.9627 -1.5150 -0.2490
13344TIP3   OH261446   6.287   1.651   3.763 -0.6871  0.1674 -0.0718
13344TIP3    H161447   6.372   1.608   3.768 -1.1415 -0.6919  0.5865
13344TIP3    H261448   6.289   1.699   3.680  0.4686  0.2467 -0.0080
13345TIP3   OH261449   0.132   0.460   0.343 -0.0952 -0.4381  0.1217
13345TIP3    H161450   0.104   0.550   0.326  3.1808  0.6347 -0.1916
13345TIP3    H261451   0.163   0.428   0.258 -0.7467 -1.7237  0.3434
13346TIP3   OH261452   1.673   1.267  12.676 -0.0463 -0.4261 -0.4187
13346TIP3    H161453   1.758   1.291  12.713  0.6709 -0.4079 -2.0020
13346TIP3    H261454   1.675   1.172  12.670  0.2161 -0.3808 -1.2106
13347TIP3   OH261455   3.795   5.684   4.247  0.1380 -0.8383  0.0421
13347TIP3    H161456   3.844   5.735   4.313 -0.8343 -0.9027  0.8364
13347TIP3    H261457   3.723   5.741   4.222 -1.4705 -2.0899  1.5822
13348TIP3   OH261458   4.296   5.232  15.794 -0.3804 -0.4680 -0.2019
13348TIP3    H161459   4.354   5.219  15.719 -2.1658 -0.5409 -1.6640
13348TIP3    H261460   4.316   5.321  15.824  2.1752 -1.3643  0.9601
13349TIP3   OH261461   3.533   6.431  16.685  0.3602 -0.5910 -0.1974
13349TIP3    H161462   3.507   6.443  16.594  1.4274  0.3674 -0.3915
13349TIP3    H261463   3.595   6.358  16.683  0.1700 -0.7528 -0.1975
13350TIP3   OH261464   1.137   1.156  12.177  0.3024 -0.2898 -0.0665
13350TIP3    H161465   1.228   1.168  12.151  0.6393  0.3156  1.2841
13350TIP3    H261466   1.121   1.228  12.239 -1.2178 -0.1340 -0.6047
13351TIP3   OH261467   2.770   6.654   5.310  0.0493  0.2460  0.7464
13351TIP3    H161468   2.818   6.573   5.329  1.4433  1.1345  1.1025
13351TIP3    H261469   2.732   6.639   5.224  1.7080 -0.1751  0.0491
13352TIP3   OH261470   4.133   6.088   1.830  0.1508  0.0311  0.3168
13352TIP3    H161471   4.073   6.024   1.867  0.2121  0.9302  2.0695
13352TIP3    H261472   4.217   6.070   1.872  0.4495  0.5080 -0.0606
13353TIP3   OH261473   2.961   0.373   4.961  0.1140  0.0536  0.0325
13353TIP3    H161474   3.045   0.332   4.983 -0.0792 -0.5824 -0.3921
13353TIP3    H261475   2.985   0.446   4.903  0.2611 -1.2839 -1.6797
13354TIP3   OH261476   0.937   0.329  14.654 -0.3858 -0.2275 -0.7259
13354TIP3    H161477   0.870   0.327  14.585  0.4231 -1.1731 -1.5251
13354TIP3    H261478   0.888   0.316  14.735 -1.2490 -0.1278 -1.2110
13355TIP3   OH261479   5.797   1.527  13.867 -0.3042  0.0878 -0.3995
13355TIP3    H161480   5.749   1.606  13.890  1.8245  1.4994 -0.5710
13355TIP3    H261481   5.876   1.558  13.824  1.2751 -2.0649  0.7460
13356TIP3   OH261482   1.964   1.571   3.952 -0.3337  0.5498 -0.3933
13356TIP3    H161483   1.954   1.662   3.978 -0.3884  0.4397 -0.0199
13356TIP3    H261484   2.045   1.569   3.901  0.5594  0.5300  0.9635
13357TIP3   OH261485   5.618   3.008  12.586  0.7705  0.4742  0.1029
13357TIP3    H161486   5.637   2.964  12.669 -1.4903 -0.1058  0.3973
13357TIP3    H261487   5.576   3.090  12.611 -0.7929 -0.1285 -0.4160
13358TIP3   OH261488   4.288   2.639   5.530 -0.0151  0.4697  0.5176
13358TIP3    H161489   4.312   2.622   5.438 -0.3224  3.8095 -0.2982
13358TIP3    H261490   4.351   2.587   5.580  1.3686 -0.0231 -1.5780
13359TIP3   OH261491   4.521   1.963   4.322 -0.2499  0.4071  0.3738
13359TIP3    H161492   4.600   2.014   4.342 -0.1011  0.8115 -1.0744
13359TIP3    H261493   4.529   1.884   4.376  0.7050  0.8483  0.9030
13360TIP3   OH261494   6.657   2.517   1.211  0.1704 -0.1489  0.1969
13360TIP3    H161495   6.646   2.430   1.173  0.5983 -0.2724  0.3470
13360TIP3    H261496   6.692   2.500   1.299 -0.1017  0.1592  0.3644
13361TIP3   OH261497   3.375   3.886   1.492 -0.0651  0.5436  0.2312
13361TIP3    H161498   3.435   3.891   1.567  1.0308  1.1978 -0.6656
13361TIP3    H261499   3.314   3.959   1.506  0.4313  0.9590  0.2294
13362TIP3   OH261500   5.231   1.475   2.735 -0.1112  0.5733  0.0094
13362TIP3    H161501   5.257   1.558   2.695 -1.8286  0.4566 -1.4930
13362TIP3    H261502   5.268   1.408   2.677 -0.0908  0.3244  0.3085
13363TIP3   OH261503   3.150   0.366   1.306  0.4124  0.0622 -0.3593
13363TIP3    H161504   3.170   0.352   1.214  1.7063 -2.7126  0.2385
13363TIP3    H261505   3.193   0.293   1.351 -2.5390 -0.3365  2.1421
13364TIP3   OH261506   0.211   6.682  16.375  0.4710  0.1715  0.4058
13364TIP3    H161507   0.259   6.645  16.448  0.1058 -0.3242  0.3991
13364TIP3    H261508   0.141   6.619  16.357  0.2155  0.5599 -0.0051
13365TIP3   OH261509   1.514   5.145   1.898 -0.2162  0.3163  0.1388
13365TIP3    H161510   1.454   5.112   1.830  1.0963 -1.4784 -0.2389
13365TIP3    H261511   1.543   5.229   1.864  0.0275 -0.3125 -1.3318
13366TIP3   OH261512   2.864   4.335   1.216 -0.7886 -0.1104 -0.2135
13366TIP3    H161513   2.786   4.299   1.258 -1.6459  1.1873 -0.6508
13366TIP3    H261514   2.892   4.406   1.274 -0.3172 -0.1411 -0.4021
13367TIP3   OH261515   5.429   1.996   0.534  0.2361 -0.4340 -0.3785
13367TIP3    H161516   5.461   2.073   0.582  2.0706 -1.5485  0.3108
13367TIP3    H261517   5.493   1.927   0.555 -1.6514 -2.3080 -0.5137
13368TIP3   OH261518   2.847   3.923   1.645  0.0932 -0.2820 -0.0160
13368TIP3    H161519   2.752   3.910   1.645  0.3022 -2.1949  0.6397
13368TIP3    H261520   2.866   3.956   1.557 -1.2786  1.2928  0.2299
13369TIP3   OH261521   2.493   5.011  17.117 -0.0133 -0.0568 -0.0612
13369TIP3    H161522   2.575   4.985  17.160  0.7638 -0.3359 -1.6288
13369TIP3    H261523   2.519   5.077  17.053 -1.3812  1.5693  0.9868
13370TIP3   OH261524   2.420   6.517   2.022 -0.3609 -0.0094  0.2964
13370TIP3    H161525   2.476   6.479   2.089 -2.1781 -0.6709  1.5169
13370TIP3    H261526   2.451   6.479   1.940  0.1357 -1.3625  1.0852
13371TIP3   OH261527   5.387   6.571  13.481 -0.2797 -0.0203 -0.2178
13371TIP3    H161528   5.311   6.588  13.425  0.4865  1.2868 -0.9066
13371TIP3    H261529   5.425   6.491  13.447  0.7235  1.2426 -2.2556
13372TIP3   OH261530   5.359   6.444  16.152  0.6628  0.0923  0.0122
13372TIP3    H161531   5.290   6.444  16.218  0.8636  1.0743  0.2282
13372TIP3    H261532   5.361   6.533  16.118  1.1704 -0.1733 -0.6809
13373TIP3   OH261533   3.995   1.999  13.129 -0.3834 -0.5535  0.1820
13373TIP3    H161534   3.927   2.009  13.062 -0.5022  0.3763  0.4294
13373TIP3    H261535   3.996   2.083  13.175 -0.2369 -1.1416  1.2879
13374TIP3   OH261536   4.293   0.433  12.136  0.5054 -0.3992 -0.9883
13374TIP3    H161537   4.216   0.478  12.102  0.1694 -0.9003 -0.9042
13374TIP3    H261538   4.305   0.469  12.224 -0.5070 -1.3496 -0.4351
13375TIP3   OH261539   4.288   2.799  12.446 -0.0306  0.5347  0.0394
13375TIP3    H161540   4.345   2.767  12.515 -0.7258 -2.4026 -0.6076
13375TIP3    H261541   4.327   2.766  12.365 -0.8566  1.3092 -0.6998
13376TIP3   OH261542   6.500   2.263   1.953 -0.5836 -0.7033 -0.3893
13376TIP3    H161543   6.409   2.248   1.979 -1.0695  1.3584 -0.6934
13376TIP3    H261544   6.495   2.286   1.860  0.3967 -1.6542 -0.6979
13377TIP3   OH261545   5.454   4.696   0.645 -0.2064  0.3328 -0.1846
13377TIP3    H161546   5.473   4.724   0.735 -1.4362 -0.5125  0.3704
13377TIP3    H261547   5.416   4.773   0.603  1.5108  1.1155 -0.3922
13378TIP3   OH261548   0.172   0.109  15.070  0.1752 -0.4160  0.0501
13378TIP3    H161549   0.171   0.022  15.028 -1.4345 -0.3710 -0.0764
13378TIP3    H261550   0.238   0.101  15.139  1.9760 -0.8938 -1.6347
13379TIP3   OH261551   2.362   4.128   1.005  0.1998 -0.0145  0.5473
13379TIP3    H161552   2.297   4.130   1.075  1.2137  1.4987  1.5045
13379TIP3    H261553   2.321   4.176   0.933 -0.8845 -1.6580  0.0016
13380TIP3   OH261554   1.522   5.497  14.684  0.3960  0.0637 -0.2411
13380TIP3    H161555   1.489   5.436  14.618 -1.2861  0.5021  0.1261
13380TIP3    H261556   1.526   5.446  14.764  0.4987  0.0414 -0.2603
13381TIP3   OH261557   4.847   2.679   1.849 -0.5340 -0.3912 -0.2073
13381TIP3    H161558   4.805   2.718   1.772  1.4322 -0.1608 -1.2408
13381TIP3    H261559   4.878   2.754   1.900 -0.4243 -0.5473 -0.0446
13382TIP3   OH261560   5.411   2.026  17.288 -0.1138  0.2390 -0.7604
13382TIP3    H161561   5.408   2.115  17.322  0.5668 -1.1838  3.5692
13382TIP3    H261562   5.501   1.997  17.304 -0.5292 -1.5039 -1.3368
13383TIP3   OH261563   2.818   2.225  13.805  0.2828  0.2360 -0.0212
13383TIP3    H161564   2.826   2.147  13.750  0.8825  0.1293  0.2094
13383TIP3    H261565   2.747   2.275  13.765 -0.1393 -0.4422 -0.1517
13384TIP3   OH261566   0.588   0.423   3.010 -0.6672 -0.1445 -0.2803
13384TIP3    H161567   0.680   0.447   3.001 -0.9931  0.5718 -2.0100
13384TIP3    H261568   0.582   0.335   2.973 -0.7205 -0.0931 -0.3943
13385TIP3   OH261569   2.291   6.457   5.177 -0.0680  0.2652 -0.0940
13385TIP3    H161570   2.251   6.536   5.214 -1.2955  0.3761 -1.5743
13385TIP3    H261571   2.280   6.391   5.245 -3.4227  0.1242 -0.5746
13386TIP3   OH261572   3.229   1.317   0.543  0.8832 -0.2921 -0.4666
13386TIP3    H161573   3.215   1.398   0.591  1.1840  0.3243 -1.3909
13386TIP3    H261574   3.282   1.263   0.601 -0.4207 -0.3673  0.6958
13387TIP3   OH261575   2.696   5.206  17.221  0.1126  0.3683  0.8232
13387TIP3    H161576   2.648   5.232  17.142 -0.7761  2.6333  2.0097
13387TIP3    H261577   2.763   5.274  17.232  0.0174  0.2738  2.1712
13388TIP3   OH261578   3.771   0.709   0.092 -0.3035 -0.2615  0.7238
13388TIP3    H161579   3.831   0.762   0.041  0.3986 -1.8063 -0.1117
13388TIP3    H261580   3.787   0.734   0.183  0.7203  0.2288  0.4097
13389TIP3   OH261581   0.876   3.136  15.331  0.0892 -0.5107 -0.2800
13389TIP3    H161582   0.887   3.110  15.422 -0.7257  0.0251 -0.0290
13389TIP3    H261583   0.860   3.230  15.334 -1.2997 -0.7044 -0.8613
13390TIP3   OH261584   0.165   1.074  16.095 -0.3223  0.0315 -0.0190
13390TIP3    H161585   0.139   1.122  16.173  0.2093  0.1741  0.0732
13390TIP3    H261586   0.118   0.991  16.102  0.0362 -0.1263  0.6703
13391TIP3   OH261587   1.634   0.631   1.260  0.4146 -0.8422  0.1092
13391TIP3    H161588   1.640   0.630   1.165 -0.7715 -0.9253  0.0193
13391TIP3    H261589   1.587   0.712   1.281  2.8058  0.4575  0.8073
13392TIP3   OH261590   3.147   2.591   4.434  0.2566 -0.5317  0.0151
13392TIP3    H161591   3.238   2.596   4.463  0.3983 -2.0042 -0.1141
13392TIP3    H261592   3.150   2.537   4.355 -0.7678 -0.8502  0.1881
13393TIP3   OH261593   6.385   2.970  13.404 -0.1012  0.1298  0.2542
13393TIP3    H161594   6.413   2.953  13.314 -1.2990  0.0289 -0.1285
13393TIP3    H261595   6.442   2.916  13.458 -1.0466 -1.8899 -0.6442
13394TIP3   OH261596   1.146   4.159  14.248  0.5033 -0.8358  0.0308
13394TIP3    H161597   1.183   4.248  14.242 -1.3556 -0.0073  0.3284
13394TIP3    H261598   1.199   4.116  14.316  0.9724  0.2698  0.3878
13395TIP3   OH261599   5.831   4.408  11.559  0.1786 -0.2876  0.5048
13395TIP3    H161600   5.894   4.340  11.534 -0.5678 -1.1040  0.8047
13395TIP3    H261601   5.807   4.449  11.476  0.1756 -0.7998  0.2482
13396TIP3   OH261602   5.837   0.695  17.073 -0.0331  0.4129  0.0702
13396TIP3    H161603   5.771   0.762  17.054 -0.7734  0.3525  2.1830
13396TIP3    H261604   5.904   0.708  17.006 -1.4205  1.5166 -1.1793
13397TIP3   OH261605   2.120   5.791  16.597  0.3790 -0.1495 -0.9275
13397TIP3    H161606   2.029   5.764  16.588 -0.6093  2.2315  0.9897
13397TIP3    H261607   2.165   5.714  16.631 -1.7296 -0.3284  1.6871
13398TIP3   OH261608   4.093   2.342  17.248 -0.2228  0.2343  0.2403
13398TIP3    H161609   4.136   2.398  17.314 -0.5452  0.0720  0.5935
13398TIP3    H261610   4.134   2.256  17.259 -0.0678  0.2795  0.0248
13399TIP3   OH261611   2.533   2.052   0.867 -0.0617  0.3986 -0.0001
13399TIP3    H161612   2.501   1.994   0.936  1.1255 -0.7323 -0.3696
13399TIP3    H261613   2.515   2.006   0.785 -1.6158  1.8039 -0.5107
13400TIP3   OH261614   6.467   0.110   5.512  0.6993 -0.5620  0.3439
13400TIP3    H161615   6.434   0.196   5.537 -0.0795 -1.0137  0.8929
13400TIP3    H261616   6.561   0.114   5.531  0.8598  0.4939 -0.5840
13401TIP3   OH261617   6.725   2.209  15.299 -0.6655 -0.5932  0.4173
13401TIP3    H161618   6.735   2.252  15.384 -1.1224 -0.1518  0.2570
13401TIP3    H261619   6.671   2.133  15.317  0.4813 -1.3523  0.7754
13402TIP3   OH261620   3.081   0.312  12.881  0.1439 -0.5031  0.0224
13402TIP3    H161621   2.994   0.308  12.922  0.3681 -1.9828  0.4452
13402TIP3    H261622   3.131   0.244  12.927  0.7916 -1.3708 -1.8482
13403TIP3   OH261623   5.859   3.305   6.046 -0.2880  0.0892  0.1496
13403TIP3    H161624   5.824   3.306   6.135 -1.9919 -0.0467 -0.4798
13403TIP3    H261625   5.918   3.381   6.043  2.4359 -1.7308  2.3179
13404TIP3   OH261626   3.833   4.760   3.575 -0.6179  0.1193 -0.2103
13404TIP3    H161627   3.804   4.712   3.653  0.8869  0.3935  0.5475
13404TIP3    H261628   3.927   4.747   3.572 -0.3490  1.8733 -0.7685
13405TIP3   OH261629   0.621   4.291   1.581 -0.0116  0.0546 -0.0736
13405TIP3    H161630   0.618   4.349   1.505 -0.2878  0.0704 -0.0489
13405TIP3    H261631   0.532   4.290   1.615 -0.8959 -3.0781 -2.1009
13406TIP3   OH261632   4.120   1.574  17.212  0.3622 -0.7621  0.4216
13406TIP3    H161633   4.093   1.655  17.254  1.9011  0.4462 -0.7934
13406TIP3    H261634   4.122   1.510  17.283 -1.1551  0.1553  1.3593
13407TIP3   OH261635   6.583   0.461   1.976  0.4007 -0.1149  0.3255
13407TIP3    H161636   6.488   0.465   1.988  0.0831 -1.0779 -1.5005
13407TIP3    H261637   6.594   0.436   1.884  2.4385  0.6158  0.3254
13408TIP3   OH261638   3.590   0.860  15.880  0.3999 -0.5963  0.1442
13408TIP3    H161639   3.594   0.775  15.836 -0.0915 -0.9113  0.6957
13408TIP3    H261640   3.573   0.839  15.972 -1.1235  0.1252  0.0638
13409TIP3   OH261641   3.333   1.159   0.770  0.1403 -0.1308  0.0984
13409TIP3    H161642   3.405   1.131   0.827  0.3131 -0.7884 -0.4393
13409TIP3    H261643   3.265   1.187   0.831  0.6564  0.0213  0.6190
13410TIP3   OH261644   4.512   4.708  15.422 -0.6118  0.5161 -0.0081
13410TIP3    H161645   4.581   4.690  15.358 -1.2698  0.0707 -0.6050
13410TIP3    H261646   4.559   4.736  15.501  0.3291 -1.4819  0.1825
13411TIP3   OH261647   3.560   0.801  16.130 -0.2872  0.4098 -0.1528
13411TIP3    H161648   3.512   0.722  16.156 -0.7375  0.5638 -0.5006
13411TIP3    H261649   3.634   0.805  16.191 -0.0306 -0.5032 -0.3846
13412TIP3   OH261650   0.109   0.635   5.561  0.0419  0.5185 -0.5224
13412TIP3    H161651   0.062   0.716   5.546 -0.7028 -0.0601 -1.3805
13412TIP3    H261652   0.154   0.649   5.645 -0.6705  1.5222 -0.2894
13413TIP3   OH261653   1.776   6.435   4.029  0.1638 -0.1493 -0.4236
13413TIP3    H161654   1.753   6.436   4.122  0.4418  0.6786 -0.3543
13413TIP3    H261655   1.803   6.345   4.011 -0.2797 -0.4106  0.1979
13414TIP3   OH261656   4.635   2.443   2.196  0.3047  0.1101  0.1827
13414TIP3    H161657   4.679   2.475   2.275 -0.7936 -0.7068  1.1593
13414TIP3    H261658   4.613   2.521   2.146  0.0383  0.7111  1.2217
13415TIP3   OH261659   0.443   6.019   5.510  0.7407 -0.0562 -0.2758
13415TIP3    H161660   0.467   6.111   5.519 -3.5253  1.4174 -1.3882
13415TIP3    H261661   0.394   6.000   5.590  2.1942 -1.6816  0.2797
13416TIP3   OH261662   6.580   1.810   4.489  0.2905  0.0268  0.0004
13416TIP3    H161663   6.601   1.846   4.575  3.5547 -0.6071 -0.3909
13416TIP3    H261664   6.573   1.887   4.432  1.0534  0.3354  0.3087
13417TIP3   OH261665   1.895   0.423   1.144 -0.0969  0.2171 -0.0016
13417TIP3    H161666   1.813   0.382   1.115 -0.4569  0.5786  0.5020
13417TIP3    H261667   1.881   0.445   1.236  0.8123 -0.3248  0.2801
13418TIP3   OH261668   4.350   4.377   4.446 -0.4123 -0.3515 -0.5372
13418TIP3    H161669   4.337   4.299   4.501  1.4400  0.5235  1.2490
13418TIP3    H261670   4.374   4.342   4.360 -0.4613 -1.7550 -0.0048
13419TIP3   OH261671   2.028   0.417  16.319 -0.2005  0.1556 -0.3546
13419TIP3    H161672   1.982   0.335  16.308 -0.4846  0.0095  1.6061
13419TIP3    H261673   1.967   0.473  16.367  0.8730  0.6553  0.4790
13420TIP3   OH261674   3.429   4.354  10.394 -0.5084  0.4250  0.0699
13420TIP3    H161675   3.473   4.438  10.408 -2.4083  1.3679  0.6413
13420TIP3    H261676   3.478   4.292  10.447  0.3656  1.3558  0.3800
13421TIP3   OH261677   5.829   0.760   5.707 -0.1106  0.2280 -0.0111
13421TIP3    H161678   5.742   0.729   5.734 -0.0281  0.5636  0.6731
13421TIP3    H261679   5.814   0.804   5.624 -0.6272  0.4176  0.1789
13422TIP3   OH261680   1.499   3.490   2.265 -0.0402 -0.1202  0.1056
13422TIP3    H161681   1.478   3.566   2.319  0.0346 -0.2606  0.3381
13422TIP3    H261682   1.517   3.525   2.178  0.6516  0.2004  0.3725
13423TIP3   OH261683   2.690   0.561  12.272  0.5230  0.3745 -0.4247
13423TIP3    H161684   2.722   0.511  12.347  0.6003 -1.6196 -1.7009
13423TIP3    H261685   2.756   0.629  12.257  2.1981 -1.2292 -0.6293
13424TIP3   OH261686   4.759   5.840  13.275  0.2161  0.6663 -0.3453
13424TIP3    H161687   4.724   5.768  13.327 -0.8707  0.4195 -1.3914
13424TIP3    H261688   4.839   5.867  13.322  0.1925 -0.6620  0.4935
13425TIP3   OH261689   3.045   5.923   5.440 -0.0147  0.1622  0.0477
13425TIP3    H161690   2.985   5.946   5.512 -3.0449  1.3379 -2.6280
13425TIP3    H261691   3.064   5.830   5.455 -2.7394 -0.3468  0.9697
13426TIP3   OH261692   0.973   1.921   6.220  0.7355  0.1611  0.6978
13426TIP3    H161693   0.916   1.846   6.240 -0.0002  0.4721 -0.1704
13426TIP3    H261694   0.927   1.996   6.259  0.7077  0.3719  0.2604
13427TIP3   OH261695   5.281   0.401   0.035 -0.7360  0.1422 -0.8871
13427TIP3    H161696   5.241   0.467  -0.020 -0.0391  0.8285 -0.5850
13427TIP3    H261697   5.338   0.450   0.094  0.7426 -0.8287 -1.4711
13428TIP3   OH261698   3.337   5.852   4.775 -0.3330 -0.7401  0.4684
13428TIP3    H161699   3.355   5.873   4.684  2.2313 -0.4635  0.9593
13428TIP3    H261700   3.242   5.845   4.780 -0.7350  1.6256 -1.7071
13429TIP3   OH261701   3.799   4.705   5.422 -0.3503 -0.1465 -0.1603
13429TIP3    H161702   3.835   4.630   5.469 -0.3959  0.3618  0.7093
13429TIP3    H261703   3.875   4.743   5.377  0.5384  1.5805  2.5549
13430TIP3   OH261704   5.162   5.514  16.034  0.3163 -0.4554  0.6443
13430TIP3    H161705   5.096   5.568  15.991  2.5081  2.5860  0.7231
13430TIP3    H261706   5.179   5.443  15.972 -2.3123 -0.8225  0.2504
13431TIP3   OH261707   2.184   0.671  15.850 -0.0520  0.4854  0.3467
13431TIP3    H161708   2.164   0.585  15.887  0.9122  0.5588  1.1014
13431TIP3    H261709   2.170   0.661  15.756 -0.4070 -0.3554  0.4794
13432TIP3   OH261710   1.503   4.142  12.338 -0.3402  0.1127 -0.1987
13432TIP3    H161711   1.434   4.170  12.399  0.8637  0.3329  1.1056
13432TIP3    H261712   1.512   4.048  12.354  1.6028  0.5635  1.7423
13433TIP3   OH261713   6.032   4.339   2.787 -0.4504  0.2325 -0.2827
13433TIP3    H161714   5.953   4.349   2.734  0.4253 -0.7386 -1.8406
13433TIP3    H261715   6.064   4.252   2.766  1.2391  0.7488  0.0253
13434TIP3   OH261716   1.364   5.737  13.777  0.5853  0.5522 -0.2919
13434TIP3    H161717   1.339   5.725  13.869  0.9759  0.2088 -0.2282
13434TIP3    H261718   1.284   5.720  13.728  0.6937 -0.6004 -0.0959
13435TIP3   OH261719   0.840   4.564  11.229  0.1771 -0.3373  0.4451
13435TIP3    H161720   0.798   4.645  11.260 -0.6204 -0.3322 -0.5651
13435TIP3    H261721   0.807   4.553  11.140  0.0113 -1.9550  0.6694
13436TIP3   OH261722   4.516   2.834  16.162 -0.0800 -0.8116 -0.5963
13436TIP3    H161723   4.547   2.884  16.085  0.2155  2.1294  1.2721
13436TIP3    H261724   4.423   2.854  16.167 -0.5025 -2.5205 -1.1974
13437TIP3   OH261725   5.078   4.729   4.785 -0.1011 -0.2996 -0.1174
13437TIP3    H161726   5.056   4.685   4.867  2.0379 -2.0901 -0.4051
13437TIP3    H261727   5.009   4.702   4.724 -0.3439 -0.9852  0.4490
13438TIP3   OH261728   3.700   5.344   1.875 -0.4175  0.2336 -0.2015
13438TIP3    H161729   3.717   5.435   1.851 -1.0197  0.1688 -0.8927
13438TIP3    H261730   3.787   5.303   1.877  0.0072  1.1053  1.3892
13439TIP3   OH261731   5.829   0.272   3.313  0.1863 -0.4937  0.0094
13439TIP3    H161732   5.736   0.251   3.324  0.1817 -1.1407 -1.1099
13439TIP3    H261733   5.867   0.194   3.273  1.4011 -0.5683  1.2342
13440TIP3   OH261734   4.698   4.223   3.134 -0.4864  0.3658 -0.0041
13440TIP3    H161735   4.742   4.264   3.208 -2.2414  1.8440  0.2764
13440TIP3    H261736   4.654   4.295   3.089 -1.8960 -0.9080 -0.7557
13441TIP3   OH261737   5.300   4.025   4.201  0.2063  0.6186  0.1305
13441TIP3    H161738   5.311   3.930   4.205 -1.0529  0.4354 -0.4776
13441TIP3    H261739   5.325   4.049   4.111 -2.3542  0.4250 -0.7067
13442TIP3   OH261740   4.081   3.489   0.278 -0.4023 -0.9350 -0.2730
13442TIP3    H161741   4.080   3.558   0.345  0.0882 -0.6883 -0.5199
13442TIP3    H261742   4.002   3.438   0.296 -0.1627 -1.0054  0.6332
13443TIP3   OH261743   4.521   1.459  15.601  0.3215 -0.1584  0.7376
13443TIP3    H161744   4.449   1.521  15.614  0.5705  0.4011 -0.4150
13443TIP3    H261745   4.480   1.384  15.558  0.0370 -0.7719  2.0482
13444TIP3   OH261746   2.040   3.468  15.540  0.7472 -0.1128 -0.1040
13444TIP3    H161747   1.966   3.522  15.512 -0.6332 -1.5129  0.6970
13444TIP3    H261748   2.072   3.512  15.619 -0.3373 -0.4050  0.5236
13445TIP3   OH261749   2.838   4.699  17.244 -0.2785  0.1223 -0.0253
13445TIP3    H161750   2.785   4.677  17.168  0.6348 -3.0353  0.1120
13445TIP3    H261751   2.791   4.659  17.318  0.1232  0.9802  0.7148
13446TIP3   OH261752   0.665   4.160   1.831 -0.3341  0.1444  0.4377
13446TIP3    H161753   0.639   4.246   1.799  0.0862  0.4734  0.9560
13446TIP3    H261754   0.700   4.114   1.754  0.6611  0.9160  0.4040
13447TIP3   OH261755   3.605   4.873  12.586 -0.0315  0.1199  0.1328
13447TIP3    H161756   3.549   4.809  12.541 -0.4363 -0.7081  1.7257
13447TIP3    H261757   3.685   4.824  12.606 -0.4834 -0.0481  1.6853
13448TIP3   OH261758   3.476   5.861   3.870 -0.3100 -0.2651 -0.1492
13448TIP3    H161759   3.562   5.890   3.839 -0.7580  1.4911  0.1407
13448TIP3    H261760   3.440   5.937   3.916  0.2167 -2.5155  4.6137
13449TIP3   OH261761   1.981   5.304  14.719  0.3175  0.2788 -0.3518
13449TIP3    H161762   1.895   5.263  14.708  0.1817  0.7384 -1.0767
13449TIP3    H261763   1.966   5.374  14.782  0.0432  0.6785 -0.8539
13450TIP3   OH261764   1.310   2.108   5.067  0.2048 -0.8385 -0.5543
13450TIP3    H161765   1.295   2.105   4.972 -0.8275 -1.5908 -0.3869
13450TIP3    H261766   1.288   2.198   5.091 -2.5621 -1.4122 -0.6042
13451TIP3   OH261767   2.580   3.032  14.367 -0.2392 -0.2470 -0.3782
13451TIP3    H161768   2.631   3.095  14.316 -1.4626  0.3426 -0.9246
13451TIP3    H261769   2.644   2.966  14.395  0.6143 -0.1441 -1.9788
13452TIP3   OH261770   0.065   5.012   1.134  0.1719  0.4871 -0.2644
13452TIP3    H161771   0.141   5.058   1.168  0.0255 -0.9066  2.2268
13452TIP3    H261772   0.102   4.936   1.088  0.2999  0.6771 -0.4804
13453TIP3   OH261773   2.319   1.755   3.470 -0.0225 -0.0433 -0.7230
13453TIP3    H161774   2.303   1.661   3.467  0.6632 -0.1638 -0.8788
13453TIP3    H261775   2.342   1.778   3.380 -1.2933  0.4901 -0.9343
13454TIP3   OH261776   0.651   0.751   5.979 -0.7702 -0.2284 -0.9555
13454TIP3    H161777   0.630   0.723   5.890  0.0898  0.2373 -1.3163
13454TIP3    H261778   0.581   0.714   6.033 -1.9222  0.3990 -1.9680
13455TIP3   OH261779   2.189   3.820  11.389 -0.3194  0.0170  0.0104
13455TIP3    H161780   2.205   3.784  11.302  3.8219  1.8480 -0.2515
13455TIP3    H261781   2.154   3.908  11.373  0.4848  0.3712  0.1027
13456TIP3   OH261782   1.509   2.406   5.245  0.3677  0.5798  0.1045
13456TIP3    H161783   1.595   2.445   5.231  0.6229 -0.0695 -0.1925
13456TIP3    H261784   1.453   2.449   5.181  0.7761  0.0544 -0.6228
13457TIP3   OH261785   4.784   4.346  16.436  0.3641 -0.4259  0.3671
13457TIP3    H161786   4.858   4.325  16.493  0.3881 -1.2935  0.0426
13457TIP3    H261787   4.744   4.261  16.417  0.3964 -0.1759 -0.9423
13458TIP3   OH261788   1.348   3.817  14.834 -0.1921  0.6817  0.1835
13458TIP3    H161789   1.314   3.756  14.899 -0.1286  0.6347  0.1732
13458TIP3    H261790   1.332   3.903  14.871  0.2474  0.6425  0.4645
13459TIP3   OH261791   6.434   0.486  13.386 -0.5090 -0.0448 -0.3084
13459TIP3    H161792   6.415   0.497  13.293 -0.4933 -1.5018 -0.5000
13459TIP3    H261793   6.348   0.484  13.428 -0.5813 -0.8090 -0.4759
13460TIP3   OH261794   3.205   4.009   6.198 -0.6200  0.2126 -0.0272
13460TIP3    H161795   3.254   3.938   6.238 -1.4117  0.9913  2.5036
13460TIP3    H261796   3.271   4.065   6.158  0.3928  0.1759  1.5260
13461TIP3   OH261797   4.975   3.271   0.400  0.2366  0.2533 -0.0203
13461TIP3    H161798   4.896   3.277   0.346  0.6817  1.2818 -0.5902
13461TIP3    H261799   5.044   3.312   0.348  1.3943 -1.4626  0.0666
13462TIP3   OH261800   0.739   5.728  11.470 -0.2414  0.6184  0.2044
13462TIP3    H161801   0.771   5.778  11.545  0.0789  1.4571 -0.4692
13462TIP3    H261802   0.674   5.668  11.507 -1.0390  1.9133  0.9678
13463TIP3   OH261803   1.842   6.267   5.959  0.3266  0.0194  0.0344
13463TIP3    H161804   1.782   6.230   5.894  1.7267 -1.1627 -0.6329
13463TIP3    H261805   1.806   6.240   6.044 -0.1823 -0.5150 -0.3481
13464TIP3   OH261806   5.114   1.615   0.474  0.0204  0.6502  0.0768
13464TIP3    H161807   5.159   1.531   0.469  0.5717  0.8354  1.4673
13464TIP3    H261808   5.172   1.677   0.430  0.1938  0.5191  0.1195
13465TIP3   OH261809   4.433   3.404   2.561 -0.8532 -0.1340 -0.4734
13465TIP3    H161810   4.521   3.375   2.584 -0.7047  1.9254  1.9966
13465TIP3    H261811   4.379   3.325   2.567  0.4126 -0.9739  0.3904
13466TIP3   OH261812   3.671   0.492  13.409 -0.2142 -0.1301 -0.0388
13466TIP3    H161813   3.747   0.447  13.446  1.7565  2.7027 -0.2990
13466TIP3    H261814   3.667   0.575  13.456 -3.4428 -0.3014  0.1880
13467TIP3   OH261815   2.082   5.566  13.359  0.2346  0.3167  0.0722
13467TIP3    H161816   2.165   5.567  13.310 -0.0402  1.3288 -0.3965
13467TIP3    H261817   2.100   5.512  13.435  1.1438 -0.0021 -0.3563
13468TIP3   OH261818   2.831   5.838   5.962 -0.7217 -0.2778 -0.4013
13468TIP3    H161819   2.769   5.874   6.025 -1.6943 -0.1579 -1.4126
13468TIP3    H261820   2.812   5.744   5.961  0.4410 -0.5679  0.7084
13469TIP3   OH261821   0.015   2.821  11.709 -0.1093 -0.4337 -0.5514
13469TIP3    H161822  -0.038   2.881  11.762  1.0074 -0.4987  0.6866
13469TIP3    H261823  -0.039   2.742  11.700 -0.4270 -0.3102  0.2601
13470TIP3   OH261824   0.088   0.488  13.059 -0.7146 -0.7402 -0.3944
13470TIP3    H161825   0.145   0.553  13.100 -1.3696 -0.5622  0.2504
13470TIP3    H261826   0.003   0.501  13.101 -1.0962 -1.3603 -0.9619
13471TIP3   OH261827   1.145   0.902   0.164 -0.7860  0.2698  0.0215
13471TIP3    H161828   1.154   0.940   0.252 -0.3063 -0.1828  0.1724
13471TIP3    H261829   1.233   0.870   0.143 -0.6576  1.2513 -1.0356
13472TIP3   OH261830   0.324   4.389   1.498  0.2440  0.3686  0.0775
13472TIP3    H161831   0.351   4.409   1.409  1.7640  2.0232  0.8349
13472TIP3    H261832   0.266   4.460   1.522  1.4698  1.0944  1.0417
13473TIP3   OH261833   5.091   0.886   1.626 -0.6245 -0.1737 -0.3658
13473TIP3    H161834   5.152   0.855   1.693 -0.0641 -0.1170 -0.8372
13473TIP3    H261835   5.139   0.956   1.581 -0.8651 -0.4274 -1.0248
13474TIP3   OH261836   2.524   5.017  15.304 -0.3770  0.1698 -0.0523
13474TIP3    H161837   2.560   5.049  15.387  1.4458  1.0149 -1.0987
13474TIP3    H261838   2.601   5.001  15.249 -1.4544 -2.0482 -1.0181
13475TIP3   OH261839   1.567   4.359  12.855  0.1035 -0.2823 -0.0953
13475TIP3    H161840   1.635   4.403  12.803 -0.3574  1.9882  1.0927
13475TIP3    H261841   1.593   4.373  12.946 -1.7188  0.2764  0.3754
13476TIP3   OH261842   4.808   1.489  17.233 -0.5397 -0.6684 -0.0041
13476TIP3    H161843   4.730   1.542  17.248  0.2254  0.7857 -0.9252
13476TIP3    H261844   4.871   1.520  17.297  0.1831  0.1511 -1.0731
13477TIP3   OH261845   0.860   1.676   5.224  0.1952 -0.3628 -0.3281
13477TIP3    H161846   0.873   1.585   5.201  0.7375 -0.5279  0.5657
13477TIP3    H261847   0.888   1.682   5.316 -0.5099  0.5455 -0.1576
13478TIP3   OH261848   6.494   3.054   1.878 -0.6194  0.2788  0.1443
13478TIP3    H161849   6.485   3.134   1.826 -0.5117  0.0273 -0.2714
13478TIP3    H261850   6.411   3.046   1.925 -0.6389  0.6236  0.1681
13479TIP3   OH261851   4.010   1.206  13.811  0.6359 -0.2006  0.1303
13479TIP3    H161852   4.042   1.277  13.866 -0.1798  0.6491 -0.4550
13479TIP3    H261853   4.070   1.204  13.736  1.5104 -1.0992  0.8154
13480TIP3   OH261854   3.068   6.577   5.395  0.1917  0.3666  0.2319
13480TIP3    H161855   3.083   6.666   5.365  5.2013  0.3407  1.6401
13480TIP3    H261856   3.071   6.583   5.491  0.5911 -1.2669  0.3627
13481TIP3   OH261857   4.118   4.807   0.745 -0.0159  0.3341 -0.0619
13481TIP3    H161858   4.066   4.875   0.789  0.4593  0.8599 -0.2960
13481TIP3    H261859   4.139   4.845   0.660 -1.6664 -1.0177 -1.1327
13482TIP3   OH261860   3.372   5.320  11.284  0.1759  0.4061  0.8330
13482TIP3    H161861   3.438   5.268  11.237  3.2391  4.5380 -0.0158
13482TIP3    H261862   3.300   5.331  11.222 -0.5421 -2.5057  1.0119
13483TIP3   OH261863   6.576   3.125  14.502  0.1823 -0.2172 -0.2651
13483TIP3    H161864   6.585   3.036  14.535  1.2697 -0.5222 -1.2814
13483TIP3    H261865   6.485   3.149  14.519 -0.4177 -1.9096 -0.8790
13484TIP3   OH261866   1.168   6.731   2.174 -0.4184 -0.4930 -0.5747
13484TIP3    H161867   1.212   6.724   2.258 -2.0262 -0.5207  0.2999
13484TIP3    H261868   1.100   6.797   2.188 -2.0212 -1.9355 -1.2370
13485TIP3   OH261869   3.342   2.705   5.620 -0.0262  0.2925 -0.4330
13485TIP3    H161870   3.256   2.748   5.621  0.4760  1.3181 -0.4860
13485TIP3    H261871   3.400   2.767   5.664  0.6662 -0.4562 -0.2776
13486TIP3   OH261872   6.356   0.357   4.768 -0.2081  0.0323  0.0740
13486TIP3    H161873   6.342   0.308   4.849 -0.8538  0.1777  0.0557
13486TIP3    H261874   6.431   0.413   4.786  0.4295 -0.8369  0.1538
13487TIP3   OH261875   0.130   4.804   0.251  0.3005  0.4044  0.6153
13487TIP3    H161876   0.044   4.820   0.212  0.9352  0.7378 -0.7253
13487TIP3    H261877   0.142   4.709   0.243  0.5493  0.4995 -0.3382
13488TIP3   OH261878   3.086   2.944   2.755 -0.1368 -0.5627 -0.2887
13488TIP3    H161879   3.146   3.013   2.728 -0.9940 -0.3449 -1.7468
13488TIP3    H261880   3.009   2.990   2.788  0.5511 -0.8351  1.9076
13489TIP3   OH261881   6.594   3.530   4.871  0.1036 -0.2384  0.6355
13489TIP3    H161882   6.525   3.490   4.924 -0.1465 -1.3483 -0.4849
13489TIP3    H261883   6.675   3.511   4.919  0.1785 -3.4608 -0.5011
13490TIP3   OH261884   0.258   4.910  16.793  0.2630  0.0185 -0.5401
13490TIP3    H161885   0.176   4.942  16.831  0.3117 -2.0824  1.5478
13490TIP3    H261886   0.231   4.853  16.722  0.0599  1.4492 -1.6567
13491TIP3   OH261887   1.177   3.859  15.224 -0.0834 -0.1103 -0.2569
13491TIP3    H161888   1.088   3.883  15.199  0.5217  0.9424 -1.5063
13491TIP3    H261889   1.172   3.767  15.248 -1.1083 -0.6643 -2.4130
13492TIP3   OH261890   1.533   4.720   4.864 -0.0034  0.6258 -0.2143
13492TIP3    H161891   1.550   4.660   4.936  0.1095  1.2268  0.2673
13492TIP3    H261892   1.619   4.759   4.845 -0.3845  1.9463  0.6633
13493TIP3   OH261893   3.193   2.882  11.854  0.2764 -0.8401  0.2989
13493TIP3    H161894   3.198   2.892  11.758 -3.4764  3.4516  0.2082
13493TIP3    H261895   3.265   2.935  11.887 -0.0630 -0.0322 -0.2170
13494TIP3   OH261896   6.495   5.753   2.635 -0.0203 -0.1668 -0.3851
13494TIP3    H161897   6.492   5.689   2.563 -0.8035 -0.3729 -0.1890
13494TIP3    H261898   6.457   5.706   2.710 -0.7103  0.5522 -0.2647
13495TIP3   OH261899   1.986   2.248  12.534  0.2118 -0.5399  0.1727
13495TIP3    H161900   1.917   2.313  12.520  0.0250 -0.6415  0.6184
13495TIP3    H261901   2.057   2.298  12.575  1.0006 -0.1043 -1.5921
13496TIP3   OH261902   0.355   5.531   2.144 -0.0183  0.2255 -0.1738
13496TIP3    H161903   0.346   5.545   2.239 -0.7082  0.0759 -0.2147
13496TIP3    H261904   0.265   5.525   2.112  0.1148  2.3607 -1.1711
13497TIP3   OH261905   6.400   6.384  16.167 -0.4041  1.1618  0.1543
13497TIP3    H161906   6.426   6.302  16.209 -0.3625  0.6787 -0.7941
13497TIP3    H261907   6.333   6.359  16.104 -0.2342  1.8314 -0.3005
13498TIP3   OH261908   4.432   4.024   2.139  0.3580  0.3407 -1.2229
13498TIP3    H161909   4.504   3.963   2.121  0.5578  0.6578 -1.5129
13498TIP3    H261910   4.383   3.983   2.210  1.5016  0.6645 -0.2129
13499TIP3   OH261911   5.134   0.795  15.979  0.3968 -0.0279  0.3309
13499TIP3    H161912   5.164   0.706  15.993 -1.4219 -0.5857  0.9913
13499TIP3    H261913   5.078   0.814  16.055  0.0045  1.3264 -0.2535
13500TIP3   OH261914   4.576   4.863  12.098  0.2425 -0.0424  0.7913
13500TIP3    H161915   4.591   4.881  12.191 -0.6578  0.1781  0.9073
13500TIP3    H261916   4.517   4.787  12.098 -1.0172  0.9092  0.4489
13501TIP3   OH261917   6.475   5.025   3.059  0.2564  0.0262 -0.1924
13501TIP3    H161918   6.525   4.945   3.044  0.4706  0.2790 -0.8772
13501TIP3    H261919   6.510   5.061   3.140 -0.6824 -1.2035  0.7839
13502TIP3   OH261920   2.529   1.741  15.578  0.1669 -0.3645  0.3311
13502TIP3    H161921   2.573   1.720  15.496  0.5219 -0.3090  0.5083
13502TIP3    H261922   2.565   1.825  15.605 -1.6731  0.8013 -0.6689
13503TIP3   OH261923   6.347   2.586   0.561 -0.5561  0.3021 -0.2494
13503TIP3    H161924   6.370   2.639   0.638  0.7486  0.6504 -0.8520
13503TIP3    H261925   6.420   2.524   0.552  1.0506  2.3856 -3.0928
13504TIP3   OH261926   1.037   5.594  15.589 -0.0747  0.2299 -0.2910
13504TIP3    H161927   0.986   5.672  15.610 -1.8925 -0.1490 -2.8136
13504TIP3    H261928   1.119   5.629  15.554 -0.4118  0.9956 -0.3497
13505TIP3   OH261929   3.883   0.103  16.449  0.1673  0.3062 -0.5833
13505TIP3    H161930   3.843   0.172  16.503 -1.9623  0.3038 -2.0394
13505TIP3    H261931   3.876   0.136  16.360  1.5274 -0.6825 -1.0781
13506TIP3   OH261932   5.172   0.112  10.345  0.8364  0.2051  0.0496
13506TIP3    H161933   5.252   0.081  10.303  1.4141  0.4599  0.9380
13506TIP3    H261934   5.139   0.181  10.289  0.8789 -0.3409 -0.6596
13507TIP3   OH261935   0.681   6.476   1.827  0.8684  0.2192 -0.1947
13507TIP3    H161936   0.765   6.431   1.822  0.1987 -1.4082  1.7343
13507TIP3    H261937   0.674   6.504   1.918 -0.1077  1.5377 -0.6417
13508TIP3   OH261938   4.812   0.233   2.878  0.2999  0.2719  0.2654
13508TIP3    H161939   4.837   0.325   2.868  2.1045 -0.2422 -0.4476
13508TIP3    H261940   4.773   0.228   2.965  1.9158  1.3963  1.1085
13509TIP3   OH261941   3.178   2.544  15.142  0.0090 -0.0241  0.3498
13509TIP3    H161942   3.110   2.480  15.164 -1.4607  1.2687 -0.2127
13509TIP3    H261943   3.132   2.612  15.093  1.3717  1.7635  1.3848
13510TIP3   OH261944   2.377   1.368   4.835  0.5888  0.1213 -0.4510
13510TIP3    H161945   2.326   1.442   4.802  0.4574 -0.2964 -1.1862
13510TIP3    H261946   2.461   1.407   4.861 -0.0495  0.7968  0.6882
13511TIP3   OH261947   5.634   4.165   0.326 -0.4691  0.2875  0.3457
13511TIP3    H161948   5.591   4.171   0.412  1.1917 -0.3085  1.2711
13511TIP3    H261949   5.675   4.250   0.313  0.0826  0.0706  0.6153
13512TIP3   OH261950   5.863   2.554   2.676  0.0807 -0.6960  0.7074
13512TIP3    H161951   5.851   2.566   2.771  0.7009 -0.7649  0.7976
13512TIP3    H261952   5.793   2.494   2.651 -1.5148  1.0820  0.7015
13513TIP3   OH261953   2.655   4.335   2.432 -0.0721  0.5088  0.1873
13513TIP3    H161954   2.725   4.352   2.369  0.1539 -0.4134  0.1714
13513TIP3    H261955   2.579   4.381   2.396  0.5932  1.8205  0.3870
13514TIP3   OH261956   4.708   6.726   4.935 -0.3165 -0.6853  0.4186
13514TIP3    H161957   4.757   6.668   4.994  0.1353  0.5633  1.2969
13514TIP3    H261958   4.773   6.760   4.874 -0.7077 -1.6306 -0.5663
13515TIP3   OH261959   2.433   3.301   3.814 -0.4176  0.0699  0.4306
13515TIP3    H161960   2.431   3.214   3.775  0.2134  0.0198  0.4994
13515TIP3    H261961   2.376   3.354   3.758  1.7185  0.3950 -1.5934
13516TIP3   OH261962   1.545   5.765   5.004 -0.2746  0.4313  0.2540
13516TIP3    H161963   1.463   5.724   4.975  0.3749 -1.0078  0.3801
13516TIP3    H261964   1.524   5.799   5.091 -0.5588 -0.5570  0.5875
13517TIP3   OH261965   6.222   5.586   2.291  0.3942 -0.2715 -0.0590
13517TIP3    H161966   6.227   5.673   2.252 -2.8774  0.7536  1.4638
13517TIP3    H261967   6.214   5.527   2.217  2.3572  0.6650 -1.1125
13518TIP3   OH261968   0.896   4.974  12.739  0.2023 -0.1575 -0.1860
13518TIP3    H161969   0.827   5.039  12.753  1.2041  0.8745  0.1408
13518TIP3    H261970   0.859   4.913  12.675 -1.8523 -0.9608  1.6339
13519TIP3   OH261971   2.729   1.987   5.624 -0.3114 -0.6951 -0.3292
13519TIP3    H161972   2.661   2.039   5.582 -1.2026 -1.8074 -0.3133
13519TIP3    H261973   2.686   1.904   5.646  0.0063 -0.1042  3.0564
13520TIP3   OH261974   1.937   1.801   6.107 -0.1379  0.5158  0.3634
13520TIP3    H161975   1.841   1.810   6.104 -0.3471 -1.5809 -1.5259
13520TIP3    H261976   1.956   1.778   6.198 -1.2882  1.7875  0.9738
13521TIP3   OH261977   4.183   3.233   2.621 -0.3166 -0.3623 -0.3775
13521TIP3    H161978   4.119   3.198   2.682  1.3991 -1.1486  1.0608
13521TIP3    H261979   4.254   3.169   2.621  0.9895  1.0159 -1.0388
13522TIP3   OH261980   1.369   6.050   3.795 -0.8987 -0.4045  0.2122
13522TIP3    H161981   1.280   6.085   3.799 -1.1879 -1.0246 -0.3500
13522TIP3    H261982   1.379   6.024   3.703  0.0454  0.1059  0.1608
13523TIP3   OH261983   0.950   2.907   4.168  0.0145  0.6762  0.1608
13523TIP3    H161984   0.893   2.864   4.231 -1.2333  1.5813 -0.3176
13523TIP3    H261985   1.035   2.911   4.211 -0.6698  0.7487  1.5446
13524TIP3   OH261986   4.700   0.413  11.408 -0.2092  0.5865  0.4851
13524TIP3    H161987   4.753   0.486  11.440  1.6935  0.2964 -1.7840
13524TIP3    H261988   4.622   0.455  11.371  1.0236  1.5615 -1.1215
13525TIP3   OH261989   0.979   2.913  16.107  0.2791 -0.1160  0.6695
13525TIP3    H161990   0.891   2.893  16.074  0.9618 -0.5105 -1.0689
13525TIP3    H261991   1.029   2.936  16.028  1.6278  0.5226  1.6674
13526TIP3   OH261992   3.118   4.617  11.433 -0.1064 -0.1013 -0.3130
13526TIP3    H161993   3.047   4.682  11.430  1.2443  1.4931  0.6833
13526TIP3    H261994   3.119   4.586  11.523  1.0571  0.6275 -0.0509
13527TIP3   OH261995   3.666   5.382   1.529 -0.0104 -0.3410 -0.0451
13527TIP3    H161996   3.680   5.476   1.526 -1.3685 -0.1334 -0.1495
13527TIP3    H261997   3.614   5.362   1.452 -1.9346 -0.7627  1.2869
13528TIP3   OH261998   0.069   1.820  13.626 -0.1633 -0.2243  0.1064
13528TIP3    H161999   0.033   1.763  13.558  0.0095 -0.8617  0.5406
13528TIP3    H262000   0.164   1.809  13.619 -0.1270  0.0322  0.1785
13529TIP3   OH262001   2.787   1.771  16.222  0.6165 -0.4265 -0.0146
13529TIP3    H162002   2.768   1.845  16.279 -0.1267 -0.2111 -0.5369
13529TIP3    H262003   2.879   1.783  16.196  1.2224 -0.9567  1.7441
13530TIP3   OH262004   4.358   6.057   6.467 -0.5815  0.5873 -0.0285
13530TIP3    H162005   4.330   6.037   6.556 -0.5795 -0.2359 -0.2041
13530TIP3    H262006   4.353   6.152   6.461 -1.7089  0.5719  0.4776
13531TIP3   OH262007   0.631   1.913   2.629  0.3357 -0.1241 -0.3781
13531TIP3    H162008   0.634   1.846   2.696  1.8599  0.5644  0.3050
13531TIP3    H262009   0.582   1.985   2.669  1.9558  0.6121  0.3680
13532TIP3   OH262010   4.282   4.538   0.314 -0.4716 -0.5405 -0.1003
13532TIP3    H162011   4.290   4.525   0.220  0.4816  1.8921 -0.4413
13532TIP3    H262012   4.196   4.577   0.326 -0.2292 -0.0042 -0.0890
13533TIP3   OH262013   3.894   5.449  17.070 -0.0982  0.1513 -0.2968
13533TIP3    H162014   3.961   5.514  17.089  1.5752 -1.4705 -0.4393
13533TIP3    H262015   3.854   5.429  17.155 -0.6381  1.3156 -0.2519
13534TIP3   OH262016   1.780   1.672  15.012 -0.2598  0.4277 -0.3276
13534TIP3    H162017   1.736   1.729  14.949  0.3359 -0.8484 -1.9576
13534TIP3    H262018   1.734   1.588  15.004 -0.0372  0.1802  0.8128
13535TIP3   OH262019   2.492   3.417   4.067  0.2763 -0.1548  0.0075
13535TIP3    H162020   2.440   3.361   4.124  0.1001  0.7007  0.7186
13535TIP3    H262021   2.468   3.391   3.978  0.0226 -1.0203  0.3211
13536TIP3   OH262022   3.149   5.503  15.923  0.1894 -0.1825 -0.4078
13536TIP3    H162023   3.058   5.498  15.950  0.3871 -0.6582  0.2109
13536TIP3    H262024   3.198   5.515  16.005  0.7961 -1.5028 -0.5483
13537TIP3   OH262025   1.721   5.044   6.784 -0.7476 -0.0347 -0.3892
13537TIP3    H162026   1.781   4.999   6.843 -1.2856  4.1943  3.9975
13537TIP3    H262027   1.777   5.097   6.728 -0.3261 -1.3390 -1.2441
13538TIP3   OH262028   2.546   5.117  14.668 -0.2860  0.5864 -0.4203
13538TIP3    H162029   2.585   5.068  14.741 -0.9949 -1.0027 -1.0609
13538TIP3    H262030   2.465   5.152  14.703 -0.4422  0.1429 -0.3335
13539TIP3   OH262031   3.687   0.314  16.544 -0.2777 -0.5117 -0.4089
13539TIP3    H162032   3.607   0.311  16.492 -0.2693 -0.2647 -0.4364
13539TIP3    H262033   3.667   0.261  16.621 -0.2801 -0.9030 -0.6758
13540TIP3   OH262034   5.349   5.440   2.387  0.2826 -0.2216 -0.1965
13540TIP3    H162035   5.317   5.350   2.378  1.0846 -0.4723 -0.6911
13540TIP3    H262036   5.442   5.430   2.406  0.2222  0.5000  0.5224
13541TIP3   OH262037   1.975   6.255   0.202 -0.3513  0.1463  0.0222
13541TIP3    H162038   1.882   6.273   0.215 -0.2946  2.3299 -1.8798
13541TIP3    H262039   1.978   6.189   0.133 -0.4967  0.5181 -0.3421
13542TIP3   OH262040   1.198   2.448   5.811  0.0877  0.5592 -0.1090
13542TIP3    H162041   1.285   2.454   5.852 -0.2035  1.1054  0.4421
13542TIP3    H262042   1.200   2.364   5.764  1.4698  1.2702 -1.4149
13543TIP3   OH262043   5.304   3.484  15.168  0.9262  0.5838  0.2947
13543TIP3    H162044   5.337   3.529  15.090 -2.9430  1.7951 -0.9199
13543TIP3    H262045   5.264   3.404  15.134 -2.3274  1.9220  0.5189
13544TIP3   OH262046   2.923   2.039  13.037 -0.1933 -0.3255 -0.0192
13544TIP3    H162047   2.843   2.091  13.028 -0.4305 -0.6111  0.4090
13544TIP3    H262048   2.904   1.959  12.987 -0.8324 -1.1339  1.4554
13545TIP3   OH262049   1.939   2.144   2.399 -0.1669  0.0678  0.2230
13545TIP3    H162050   1.947   2.059   2.355 -0.2887  1.0386 -1.7858
13545TIP3    H262051   2.025   2.158   2.439  0.9152  0.3185 -2.0294
13546TIP3   OH262052   4.322   3.402   0.200  0.5443 -0.0814 -0.1798
13546TIP3    H162053   4.294   3.390   0.109  0.6583  0.0320 -0.2297
13546TIP3    H262054   4.241   3.419   0.248  0.7808  4.4635 -0.9673
13547TIP3   OH262055   4.573   1.936  15.599  0.7793  0.3919 -0.3405
13547TIP3    H162056   4.634   1.901  15.664 -0.6857 -0.3660  0.6842
13547TIP3    H262057   4.559   2.027  15.627  1.1588  0.4664 -0.3827
13548TIP3   OH262058   2.628   1.550   1.906 -0.0957  0.1171 -0.0803
13548TIP3    H162059   2.570   1.475   1.894  1.3844 -1.0627 -0.0430
13548TIP3    H262060   2.713   1.520   1.874  0.6160  1.6584  0.2932
13549TIP3   OH262061   0.149   3.563   3.006 -0.2984  0.8863  0.6120
13549TIP3    H162062   0.242   3.573   2.988 -0.2921 -0.5046 -0.2787
13549TIP3    H262063   0.146   3.512   3.087 -0.2237 -1.0556 -0.5483
13550TIP3   OH262064   2.177   2.890  10.938 -0.1758 -0.4343 -0.4744
13550TIP3    H162065   2.260   2.843  10.939 -0.1907 -0.4585  0.4093
13550TIP3    H262066   2.111   2.822  10.923 -0.1187 -0.5670 -0.1348
13551TIP3   OH262067   5.278   1.716  14.420  0.6782 -0.4246 -0.4070
13551TIP3    H162068   5.373   1.704  14.420  0.5378 -1.7564 -1.6511
13551TIP3    H262069   5.242   1.632  14.392 -0.7520  0.7267 -2.2984
13552TIP3   OH262070   5.821   4.392   1.355 -0.4834 -0.1582 -0.0574
13552TIP3    H162071   5.731   4.367   1.333 -0.1203 -0.7791 -0.9308
13552TIP3    H262072   5.835   4.357   1.443 -0.7580 -1.0051 -0.3386
13553TIP3   OH262073   3.970   2.258  13.211  0.2222 -0.1205 -0.4212
13553TIP3    H162074   3.880   2.291  13.205  0.2559  0.0298 -0.1243
13553TIP3    H262075   3.973   2.213  13.295  0.1630 -0.9269 -0.8436
13554TIP3   OH262076   2.593   5.061  15.545  0.6581 -0.7364 -0.6671
13554TIP3    H162077   2.664   5.021  15.595  0.4883  0.1318  0.2940
13554TIP3    H262078   2.514   5.036  15.592  0.6272  1.9295  0.9009
13555TIP3   OH262079   2.363   5.418   0.782  0.4672  0.2250  0.5215
13555TIP3    H162080   2.366   5.419   0.878 -3.1839  0.6157  0.7707
13555TIP3    H262081   2.303   5.489   0.759 -0.0539 -0.9239 -1.9702
13556TIP3   OH262082   6.091   6.414   5.422 -0.5075 -0.0524  0.4832
13556TIP3    H162083   6.128   6.458   5.346 -2.0367  0.2417 -0.1214
13556TIP3    H262084   6.090   6.481   5.490  1.4430 -0.4870  1.0074
13557TIP3   OH262085   3.597   2.211   0.767  0.2632 -0.0154  0.0365
13557TIP3    H162086   3.621   2.120   0.784 -0.2799  0.0467  1.1924
13557TIP3    H262087   3.572   2.247   0.852  0.2256  1.1498 -0.4388
13558TIP3   OH262088   3.108   4.426   0.454  0.1840 -0.1954 -0.9165
13558TIP3    H162089   3.033   4.477   0.422 -0.5457  0.2639  1.2956
13558TIP3    H262090   3.183   4.483   0.440 -0.3546  0.7114 -0.3123
13559TIP3   OH262091   3.584   3.415   1.493 -0.4761  0.1976  0.9493
13559TIP3    H162092   3.633   3.486   1.452 -1.0447 -0.3825 -0.8170
13559TIP3    H262093   3.651   3.353   1.523 -0.0770  0.0477 -0.2270
13560TIP3   OH262094   6.068   1.739   4.823  0.0589 -0.0551 -0.7279
13560TIP3    H162095   6.121   1.691   4.759 -0.2565  1.2902 -2.0464
13560TIP3    H262096   6.131   1.790   4.874  0.1393  0.8196 -1.6714
13561TIP3   OH262097   0.598   2.565   6.027  0.6736 -0.3379 -0.3058
13561TIP3    H162098   0.505   2.560   6.050  0.9867 -1.1392  0.8772
13561TIP3    H262099   0.642   2.584   6.110  1.7666 -2.2472 -0.3993
13562TIP3   OH262100   1.736   6.439  13.754  0.0723 -0.0365  0.0570
13562TIP3    H162101   1.699   6.399  13.832 -1.3156  1.7636  0.3899
13562TIP3    H262102   1.823   6.401  13.746 -0.7008 -2.1336  1.0082
13563TIP3   OH262103   4.213   3.921   3.403  0.5428 -0.0327 -0.1027
13563TIP3    H162104   4.277   3.961   3.344 -0.0399 -0.3410 -0.9675
13563TIP3    H262105   4.226   3.827   3.393  2.0993 -0.1310  2.1411
13564TIP3   OH262106   1.005   3.880  15.563  0.1358  0.2860 -0.7279
13564TIP3    H162107   1.041   3.967  15.575 -0.6812  0.4051  1.3186
13564TIP3    H262108   1.065   3.822  15.611  1.1573 -0.4419 -2.7861
13565TIP3   OH262109   1.070   3.495   3.120 -0.1987  0.0805  0.4284
13565TIP3    H162110   0.981   3.507   3.089  0.5366  0.4239 -1.6783
13565TIP3    H262111   1.115   3.576   3.098  1.2201 -0.9671 -0.7539
13566TIP3   OH262112   1.608   5.227  13.298 -0.2915 -0.5208  0.4013
13566TIP3    H162113   1.565   5.161  13.244 -0.2587 -1.1327  1.1103
13566TIP3    H262114   1.701   5.209  13.289 -0.3185 -2.4342  2.8004
13567TIP3   OH262115   4.650   0.458   6.339 -0.4777  0.2343  0.0347
13567TIP3    H162116   4.683   0.543   6.365  2.0883 -0.4810 -0.5993
13567TIP3    H262117   4.662   0.402   6.416  3.5123 -0.9200 -1.1750
13568TIP3   OH262118   2.835   2.710  13.260 -0.1079 -0.1129 -0.2470
13568TIP3    H162119   2.839   2.704  13.165  2.0101 -1.2245 -0.1402
13568TIP3    H262120   2.856   2.802  13.278 -0.6120  0.1277 -0.8346
13569TIP3   OH262121   1.162   2.569  13.712 -0.0423 -0.2708 -0.2011
13569TIP3    H162122   1.176   2.586  13.619 -0.4526 -0.4467 -0.3011
13569TIP3    H262123   1.223   2.498  13.734  0.3321  0.0395 -0.2394
13570TIP3   OH262124   2.039   4.486  11.693  0.5289 -0.3316 -0.7905
13570TIP3    H162125   2.106   4.431  11.734 -0.4713 -0.9909  0.0050
13570TIP3    H262126   1.996   4.530  11.766  2.4539  2.9876 -1.4776
13571TIP3   OH262127   1.062   0.714   3.611  0.3333 -0.8605 -0.0190
13571TIP3    H162128   1.098   0.631   3.642  0.3582 -0.1980  1.8214
13571TIP3    H262129   1.056   0.768   3.689  0.4510  0.9352 -1.2028
13572TIP3   OH262130   6.302   3.573  11.522  0.6265  0.2485 -0.5162
13572TIP3    H162131   6.351   3.615  11.451  1.2364 -0.2771 -0.4191
13572TIP3    H262132   6.370   3.534  11.578  0.0471 -1.9771 -1.2931
13573TIP3   OH262133   1.248   0.944  14.587  0.2018  0.1601 -0.5330
13573TIP3    H162134   1.177   0.946  14.651 -0.1811  0.5558 -0.9632
13573TIP3    H262135   1.312   1.006  14.620  0.0208  0.3363 -0.5107
13574TIP3   OH262136   0.910   1.976   2.415  0.5400  0.2242 -0.5465
13574TIP3    H162137   0.996   1.999   2.380  0.9944 -0.1456  0.2945
13574TIP3    H262138   0.865   2.060   2.424  0.3303  0.3104 -2.1731
13575TIP3   OH262139   4.430   1.628  16.273  0.1503 -0.6538 -0.2681
13575TIP3    H162140   4.386   1.686  16.211 -0.7884 -1.5592 -0.4683
13575TIP3    H262141   4.447   1.683  16.349 -1.0747 -0.1985 -0.2975
13576TIP3   OH262142   4.142   5.768  13.182 -0.0469 -0.1371  0.2540
13576TIP3    H162143   4.162   5.822  13.258 -0.2658 -0.5209  0.5860
13576TIP3    H262144   4.200   5.801  13.113  1.2732 -0.7948  1.0137
13577TIP3   OH262145   2.292   5.180  15.218 -0.5006 -0.1291 -0.0855
13577TIP3    H162146   2.353   5.141  15.281  0.1647  1.3642  0.2520
13577TIP3    H262147   2.205   5.155  15.250 -0.1656  0.3770  1.2937
13578TIP3   OH262148   2.836   4.062  17.028 -0.8217  0.5659 -0.0250
13578TIP3    H162149   2.927   4.074  17.054 -0.8487  0.8067 -0.0461
13578TIP3    H262150   2.824   3.967  17.028 -0.0717  0.4259 -1.7243
13579TIP3   OH262151   6.521   3.242   4.705  0.0250 -0.2563 -0.5594
13579TIP3    H162152   6.586   3.303   4.739 -2.2244  2.9150 -1.5092
13579TIP3    H262153   6.557   3.214   4.620  0.5727  0.6991 -0.6584
13580TIP3   OH262154   4.786   0.153  16.141  0.1563 -0.1939 -0.3065
13580TIP3    H162155   4.790   0.067  16.185  0.3873 -1.1071 -2.0435
13580TIP3    H262156   4.697   0.184  16.158  0.5490  0.0111  1.6936
13581TIP3   OH262157   5.263   6.273  14.908 -0.1161  0.9932  0.7557
13581TIP3    H162158   5.258   6.185  14.945 -1.5453  1.5457  1.9948
13581TIP3    H262159   5.355   6.286  14.888  0.4279 -0.0520  2.4020
13582TIP3   OH262160   5.474   5.102   5.352  0.1899  0.0165  0.1510
13582TIP3    H162161   5.471   5.114   5.447 -1.6524 -0.2206  0.1638
13582TIP3    H262162   5.439   5.184   5.316  0.1348 -0.1946 -0.2865
13583TIP3   OH262163   1.480   0.333   3.895  0.1112 -0.3420 -0.1953
13583TIP3    H162164   1.401   0.283   3.911 -0.0026  0.0741  0.6437
13583TIP3    H262165   1.473   0.364   3.805 -1.0948  0.4074  0.1424
13584TIP3   OH262166   5.818   1.020   0.353  0.6252 -0.7994 -0.7757
13584TIP3    H162167   5.786   0.933   0.378  0.2282  0.0198  1.8427
13584TIP3    H262168   5.914   1.011   0.353  0.7240 -0.7063  2.0619
13585TIP3   OH262169   6.238   4.321   4.467 -0.2951  0.3358 -0.1309
13585TIP3    H162170   6.242   4.238   4.514  1.3869  0.8766  0.7835
13585TIP3    H262171   6.238   4.388   4.536 -0.7703  1.1215 -0.8671
13586TIP3   OH262172   1.108   0.567   0.856  0.7847 -0.1496 -0.4287
13586TIP3    H162173   1.138   0.592   0.944  3.1368  1.1211 -1.5147
13586TIP3    H262174   1.148   0.482   0.840 -0.8249 -1.0774  0.2236
13587TIP3   OH262175   5.547   6.072  12.379  0.5462 -0.8479 -0.1351
13587TIP3    H162176   5.520   6.056  12.289 -1.0378  2.1103 -0.2904
13587TIP3    H262177   5.476   6.036  12.432  0.4547 -0.7130 -0.1656
13588TIP3   OH262178   0.682   3.928   5.216 -0.1647  0.3792 -0.3631
13588TIP3    H162179   0.724   3.845   5.238 -0.1082  0.1531 -1.3034
13588TIP3    H262180   0.662   3.921   5.123  1.1172  1.9784 -0.8086
13589TIP3   OH262181   5.478   4.747  11.653 -0.1351 -0.3484 -0.0385
13589TIP3    H162182   5.549   4.807  11.633 -0.2211 -0.3831 -0.4389
13589TIP3    H262183   5.410   4.768  11.589 -0.1673 -0.8680 -0.1741
13590TIP3   OH262184   1.638   6.341  13.135 -0.4794  0.0789 -0.4095
13590TIP3    H162185   1.616   6.434  13.135 -3.4479 -0.5133 -0.1941
13590TIP3    H262186   1.563   6.298  13.094  0.2385 -2.3367  0.5767
13591TIP3   OH262187   1.091   6.336   3.222  0.4980 -0.1314 -0.9236
13591TIP3    H162188   1.077   6.241   3.226 -0.7712 -0.0159 -1.8949
13591TIP3    H262189   1.011   6.370   3.180  1.6887  1.1554 -2.2720
13592TIP3   OH262190   1.282   0.509  13.180  0.2086 -0.1539  0.3771
13592TIP3    H162191   1.367   0.545  13.155 -0.8406  0.2757 -3.0791
13592TIP3    H262192   1.291   0.415  13.170  0.6861 -0.2608  1.6268
13593TIP3   OH262193   2.418   5.447   1.261  0.0470  0.3290 -0.6461
13593TIP3    H162194   2.405   5.352   1.264 -0.5491  0.4383  2.0977
13593TIP3    H262195   2.344   5.480   1.210 -0.5555 -0.5602 -0.3581
13594TIP3   OH262196   2.091   6.158  12.589  0.6202 -0.2506  0.1812
13594TIP3    H162197   2.093   6.136  12.682  1.5003 -0.0288  0.2203
13594TIP3    H262198   2.016   6.218  12.581 -0.5482 -1.6292  0.4181
13595TIP3   OH262199   5.501   3.322   4.221 -0.8034 -0.2561 -0.0237
13595TIP3    H162200   5.427   3.382   4.223  0.6876  1.6888  0.9811
13595TIP3    H262201   5.577   3.378   4.239  1.0720 -1.9270 -2.1457
13596TIP3   OH262202   2.802   0.619   4.451 -0.0825 -0.0976  0.2426
13596TIP3    H162203   2.739   0.632   4.380  1.0563  2.3106 -0.4375
13596TIP3    H262204   2.761   0.660   4.527 -0.5086 -1.0330  0.5290
13597TIP3   OH262205   3.999   4.977   0.336 -0.3654  0.0389 -0.2701
13597TIP3    H162206   4.078   4.956   0.385 -0.7525  3.2001  2.0560
13597TIP3    H262207   3.929   4.929   0.381 -0.1121 -1.0167 -0.9593
13598TIP3   OH262208   6.742   0.472  11.008  0.2460 -0.3795 -0.0560
13598TIP3    H162209   6.730   0.539  10.941  1.2240 -1.1590 -1.0477
13598TIP3    H262210   6.779   0.397  10.961  0.4360 -1.1492  1.2607
13599TIP3   OH262211   1.732   1.667  17.325  0.4559 -0.2437  0.9741
13599TIP3    H162212   1.774   1.582  17.326  0.9644 -0.0298 -0.1097
13599TIP3    H262213   1.783   1.721  17.385  1.5344 -0.0935 -0.0396
13600TIP3   OH262214   2.373   2.075  11.912  0.0056 -0.4891  0.3337
13600TIP3    H162215   2.372   2.073  11.817  1.0420  0.1814  0.2914
13600TIP3    H262216   2.332   2.158  11.935 -0.1595 -0.6074  0.4665
13601TIP3   OH262217   4.293   4.147   1.933  0.2721  0.1919  0.1138
13601TIP3    H162218   4.353   4.122   1.862 -0.5597 -1.2987 -0.1089
13601TIP3    H262219   4.341   4.125   2.013  0.2259 -0.5583 -0.0548
13602TIP3   OH262220   4.776   5.936   1.454  0.3365  0.7881  0.3642
13602TIP3    H162221   4.787   6.030   1.470 -0.4136  1.0456 -0.5471
13602TIP3    H262222   4.863   5.899   1.468  0.9978  1.8459 -0.7620
13603TIP3   OH262223   4.911   4.128  14.813  0.1294  0.3256  0.0910
13603TIP3    H162224   4.872   4.215  14.814 -1.5463 -0.3835  1.2373
13603TIP3    H262225   4.836   4.068  14.817  1.2654 -1.1562  0.1800
13604TIP3   OH262226   5.817   0.632   2.476 -0.5417  0.6866  0.2470
13604TIP3    H162227   5.870   0.574   2.531 -0.3952  0.1810 -0.4183
13604TIP3    H262228   5.744   0.658   2.533 -1.0485 -0.7887  0.3192
13605TIP3   OH262229   2.252   5.581   5.335  0.0562 -0.2451  0.8937
13605TIP3    H162230   2.230   5.488   5.336  1.6417 -0.6672  0.6632
13605TIP3    H262231   2.295   5.597   5.419  1.3528 -0.1701  0.2450
13606TIP3   OH262232   1.930   4.074   5.915  0.3112 -0.0619 -0.2646
13606TIP3    H162233   1.839   4.090   5.892  0.3402 -1.7373 -1.7857
13606TIP3    H262234   1.928   4.052   6.008 -1.1501 -2.0239 -0.6959
13607TIP3   OH262235   6.360   1.561  16.025  0.3108  0.3908 -0.3222
13607TIP3    H162236   6.305   1.520  15.958  0.2289  0.2485 -0.1673
13607TIP3    H262237   6.449   1.555  15.989  0.0991  1.7232 -1.1403
13608TIP3   OH262238   3.210   2.084  12.955 -0.0397 -0.2218  0.4069
13608TIP3    H162239   3.126   2.082  13.000 -0.1733 -0.5321  0.1453
13608TIP3    H262240   3.197   2.147  12.884 -0.1505 -0.5176  0.1668
13609TIP3   OH262241   1.031   4.032  13.186 -0.8585  0.0103  0.4883
13609TIP3    H162242   1.033   3.948  13.140 -0.7249  0.4563 -0.3384
13609TIP3    H262243   0.947   4.071  13.162  0.5077  1.6876 -2.0977
13610TIP3   OH262244   3.795   3.256   5.759  0.3652  0.0322  0.8550
13610TIP3    H162245   3.749   3.335   5.789  0.1053 -0.1431  0.9303
13610TIP3    H262246   3.887   3.280   5.761  0.2942  0.3118  0.9477
13611TIP3   OH262247   1.399   2.447   2.102 -0.5346  0.4424 -0.5840
13611TIP3    H162248   1.348   2.526   2.122 -2.6156 -1.1456  0.8699
13611TIP3    H262249   1.354   2.408   2.027  0.5044  0.6315 -1.3174
13612TIP3   OH262250   4.133   2.659  15.447 -0.2926  0.3080 -0.3568
13612TIP3    H162251   4.195   2.705  15.391  1.1236  0.5585  1.3296
13612TIP3    H262252   4.165   2.674  15.536 -2.2934 -0.3050  0.5240
13613TIP3   OH262253   3.530   0.504  16.833  0.3653 -0.4812  0.0479
13613TIP3    H162254   3.563   0.425  16.875  3.0387  0.7149  0.4122
13613TIP3    H262255   3.597   0.528  16.769 -1.1156  0.6547 -1.1984
13614TIP3   OH262256   2.077   0.954  12.886  0.0123 -0.0482 -0.6303
13614TIP3    H162257   2.139   0.916  12.948  0.1509  2.1056  0.6495
13614TIP3    H262258   2.113   0.934  12.800  0.0460 -2.7295 -0.0599
13615TIP3   OH262259   4.696   0.861   3.206  0.5411 -0.4548  0.2631
13615TIP3    H162260   4.695   0.773   3.245  0.2316 -1.1158 -1.1646
13615TIP3    H262261   4.786   0.874   3.178  0.3182 -0.8543 -0.6624
13616TIP3   OH262262   1.419   4.492  15.573  0.9350  0.0696 -0.1835
13616TIP3    H162263   1.431   4.400  15.596  1.6962 -0.1448 -1.3249
13616TIP3    H262264   1.488   4.510  15.509 -0.4123  0.8829 -1.4773
13617TIP3   OH262265   1.744   5.074  15.213  0.2252  0.1720  0.1822
13617TIP3    H162266   1.790   5.155  15.236  2.2361 -1.0694  0.7846
13617TIP3    H262267   1.767   5.059  15.121 -0.0988  0.2692  0.0872
13618TIP3   OH262268   4.822   5.061   6.912  0.1969 -0.4893 -0.4842
13618TIP3    H162269   4.917   5.045   6.914  0.4193  0.5869 -1.3136
13618TIP3    H262270   4.814   5.149   6.876 -1.1369 -0.6235 -0.5485
13619TIP3   OH262271   4.606   2.908   3.425  0.5602 -0.3747 -0.0014
13619TIP3    H162272   4.557   2.862   3.493 -2.0851 -0.9715 -2.1256
13619TIP3    H262273   4.662   2.842   3.386 -0.4810 -0.9498 -0.5867
13620TIP3   OH262274   5.966   2.087   6.082  0.0473 -0.4343  0.5630
13620TIP3    H162275   5.965   2.022   6.151 -1.6180  0.3595  1.3418
13620TIP3    H262276   5.933   2.167   6.123 -2.9537 -0.4245 -1.5338
13621TIP3   OH262277   1.775   0.406  13.431  0.2888  0.1124 -0.0858
13621TIP3    H162278   1.768   0.453  13.514 -1.1383 -0.3646  0.1040
13621TIP3    H262279   1.853   0.351  13.441 -0.0330 -0.1685  1.0826
13622TIP3   OH262280   4.833   1.574   3.353 -0.0348  0.3242  0.1055
13622TIP3    H162281   4.883   1.652   3.330  0.1950  0.8748  2.2484
13622TIP3    H262282   4.742   1.598   3.338  0.1623  0.1581 -1.4855
13623TIP3   OH262283   0.776   6.545   4.240  0.1794 -0.5713  0.6815
13623TIP3    H162284   0.828   6.574   4.315  2.5472 -1.6271 -0.4744
13623TIP3    H262285   0.792   6.609   4.172  0.6840 -1.3686  0.0333
13624TIP3   OH262286   4.378   3.845  11.663 -0.3870  0.2362 -0.0972
13624TIP3    H162287   4.465   3.855  11.624  0.1435 -0.3373  0.8986
13624TIP3    H262288   4.346   3.761  11.629 -0.6602  0.5558 -0.6453
13625TIP3   OH262289   1.330   5.991  15.637 -0.3535 -0.2659  0.1023
13625TIP3    H162290   1.242   5.953  15.640 -0.0700 -0.9171  0.1944
13625TIP3    H262291   1.345   6.024  15.726 -0.8878  0.7518 -0.1591
13626TIP3   OH262292   2.561   4.877   0.271  0.1458  0.2850 -0.4034
13626TIP3    H162293   2.653   4.855   0.283 -0.1920 -1.9198 -1.3949
13626TIP3    H262294   2.525   4.803   0.222 -2.2279  0.9341  0.2471
13627TIP3   OH262295   1.388   5.454   3.872  0.4095  0.2524  0.1123
13627TIP3    H162296   1.456   5.508   3.913  1.9398 -1.8712  0.5454
13627TIP3    H262297   1.323   5.441   3.941  1.8990 -1.4898  1.2741
13628TIP3   OH262298   2.293   0.383  16.320  0.0045 -0.3213  0.1393
13628TIP3    H162299   2.306   0.413  16.410 -0.6883  1.3943 -0.2892
13628TIP3    H262300   2.198   0.385  16.307 -0.2775 -4.0133  0.4307
13629TIP3   OH262301   1.150   1.503  11.735 -0.3141 -0.4729  0.1456
13629TIP3    H162302   1.083   1.539  11.676 -0.7420  0.0437  0.9196
13629TIP3    H262303   1.164   1.414  11.705  0.0966  0.0446 -1.2557
13630TIP3   OH262304   2.357   3.501  14.565  0.4237  0.0312  0.3412
13630TIP3    H162305   2.440   3.453  14.559  0.4398  0.1628 -0.6768
13630TIP3    H262306   2.309   3.457  14.634  0.1727 -1.8948 -0.9710
13631TIP3   OH262307   3.533   2.830  13.140  0.1320 -0.4863 -0.0385
13631TIP3    H162308   3.626   2.822  13.116 -0.5651 -1.1899 -2.9671
13631TIP3    H262309   3.502   2.905  13.088 -0.7763  0.3493  1.6349
13632TIP3   OH262310   2.048   3.072   3.711  0.0976  0.1542  0.2615
13632TIP3    H162311   2.027   2.983   3.739  0.6203 -0.1369 -0.2677
13632TIP3    H262312   1.979   3.126   3.751  0.6157 -0.2799  1.8166
13633TIP3   OH262313   5.607   3.089   1.963  0.5828 -0.2152  0.1343
13633TIP3    H162314   5.518   3.055   1.952  0.2266  0.6063  0.3639
13633TIP3    H262315   5.648   3.078   1.878 -1.0405  2.9991 -1.2515
13634TIP3   OH262316   1.889   4.150   4.753  0.2354 -0.1329  0.7097
13634TIP3    H162317   1.969   4.119   4.795  0.6694  2.7425  2.2765
13634TIP3    H262318   1.820   4.131   4.816 -0.1841 -1.5732 -0.1443
13635TIP3   OH262319   4.268   4.404   5.504  0.1218 -0.0107  0.1799
13635TIP3    H162320   4.232   4.317   5.484  2.3607 -0.8464 -0.4634
13635TIP3    H262321   4.340   4.388   5.564  2.2626  1.0340 -1.9243
13636TIP3   OH262322   1.702   4.349  16.583  0.0307  0.0580 -0.3763
13636TIP3    H162323   1.732   4.439  16.571  1.2688 -0.3264 -0.3425
13636TIP3    H262324   1.759   4.297  16.526  0.0049 -0.8029  0.3533
13637TIP3   OH262325   3.172   4.435  11.681  0.1861  0.2137  0.3038
13637TIP3    H162326   3.104   4.384  11.726  0.6901  0.5236  1.4378
13637TIP3    H262327   3.228   4.369  11.641 -2.7112 -0.1334 -3.8617
13638TIP3   OH262328   2.282   0.088   2.842 -0.6638  0.0636 -0.3466
13638TIP3    H162329   2.250   0.008   2.883 -2.1040  0.1176 -1.2893
13638TIP3    H262330   2.328   0.135   2.912  0.6745 -1.8029  0.0802
13639TIP3   OH262331   3.141   3.412  16.928 -0.0629  0.3267 -0.1439
13639TIP3    H162332   3.137   3.507  16.937  4.0078  0.5767  0.5282
13639TIP3    H262333   3.112   3.379  17.013 -1.4036  0.9021 -0.3452
13640TIP3   OH262334   4.133   3.069   4.773  0.1378 -0.5237  0.2585
13640TIP3    H162335   4.177   2.995   4.814 -0.0049 -0.1390  1.1178
13640TIP3    H262336   4.055   3.031   4.732 -1.0003 -0.5994  2.3596
13641TIP3   OH262337   2.463   5.875   1.032 -0.7561 -0.0266 -0.1588
13641TIP3    H162338   2.418   5.808   0.981 -0.0252 -1.7346  1.3178
13641TIP3    H262339   2.396   5.911   1.090 -1.0805  0.3082 -0.7362
13642TIP3   OH262340   0.149   2.815   1.732  0.3342  0.2428  0.0854
13642TIP3    H162341   0.053   2.821   1.731  0.2964  0.7782  2.2829
13642TIP3    H262342   0.171   2.770   1.650 -1.8240 -0.5458 -0.1185
13643TIP3   OH262343   3.134   4.122  15.559 -0.0813 -0.3830 -0.4869
13643TIP3    H162344   3.097   4.064  15.625  0.6485  2.1272  2.3300
13643TIP3    H262345   3.083   4.202  15.565 -0.5855 -0.2943 -3.7359
13644TIP3   OH262346   3.148   5.084   0.657 -0.6350 -0.4048 -0.0767
13644TIP3    H162347   3.104   5.169   0.662  1.1000  0.5788 -0.4163
13644TIP3    H262348   3.203   5.081   0.736  0.3531 -0.5592 -0.7473
13645TIP3   OH262349   6.535   2.364   5.835  0.3225  0.8631 -0.4493
13645TIP3    H162350   6.509   2.454   5.857  0.3850  0.5061  1.2679
13645TIP3    H262351   6.603   2.344   5.899  0.1208 -0.4944 -0.6473
13646TIP3   OH262352   0.648   1.029  11.808 -0.3051 -0.1319 -0.0604
13646TIP3    H162353   0.666   1.099  11.871 -0.7136 -1.1903  1.2746
13646TIP3    H262354   0.707   0.957  11.835 -1.4502 -1.0853 -0.0178
13647TIP3   OH262355   0.256   4.207   1.695 -0.0591 -0.0974  0.5585
13647TIP3    H162356   0.304   4.229   1.615  0.6839 -2.1682  0.3781
13647TIP3    H262357   0.166   4.231   1.677 -0.1355 -1.5996 -1.3972
13648TIP3   OH262358   5.880   6.622   4.604 -0.0802  0.0334  0.0656
13648TIP3    H162359   5.843   6.606   4.691 -1.4021 -1.0405 -0.6642
13648TIP3    H262360   5.812   6.594   4.543  0.1429  2.3137 -1.3470
13649TIP3   OH262361   2.280   5.229   0.455  0.0151  0.7038  0.2506
13649TIP3    H162362   2.308   5.219   0.364  0.7991  3.4336  0.1192
13649TIP3    H262363   2.332   5.302   0.489 -0.1511 -0.3107  2.9702
13650TIP3   OH262364   5.768   3.603   6.216 -0.0161  0.1564  0.3534
13650TIP3    H162365   5.738   3.660   6.287  0.4416 -0.5708  1.1408
13650TIP3    H262366   5.773   3.516   6.255 -0.0583 -0.3167 -0.6609
13651TIP3   OH262367   2.685   4.011   6.866  0.0223  0.2984 -0.3977
13651TIP3    H162368   2.746   3.937   6.869  1.1717  1.1131 -2.1785
13651TIP3    H262369   2.601   3.972   6.842 -0.5224 -0.9685  2.9611
13652TIP3   OH262370   0.821   0.193  11.603  0.6279 -0.2528  0.7068
13652TIP3    H162371   0.780   0.267  11.648 -0.6443 -0.7227  0.3542
13652TIP3    H262372   0.887   0.233  11.546 -1.3483  0.8137 -0.9406
13653TIP3   OH262373   4.597   5.231  16.106 -0.1134  0.8975 -0.1675
13653TIP3    H162374   4.646   5.296  16.055  0.4487  0.9699  0.4539
13653TIP3    H262375   4.661   5.196  16.168 -0.5546  0.1537 -0.1177
13654TIP3   OH262376   0.735   0.018   2.467 -0.0423 -0.4850  0.3228
13654TIP3    H162377   0.759  -0.071   2.443  0.9957 -0.5542  1.5323
13654TIP3    H262378   0.814   0.070   2.454 -0.5828  0.2488 -0.1912
13655TIP3   OH262379   2.301   4.594   3.783 -0.1861  0.0487  0.3321
13655TIP3    H162380   2.376   4.606   3.842 -0.2931  0.5789  0.3622
13655TIP3    H262381   2.341   4.576   3.698 -0.0083  1.4172  0.1142
13656TIP3   OH262382   3.904   3.822   3.558  0.0519  0.1697 -0.3899
13656TIP3    H162383   3.932   3.913   3.564 -1.0062  0.4570  0.3779
13656TIP3    H262384   3.906   3.803   3.465  0.6582  0.8523 -0.5278
13657TIP3   OH262385   4.974   1.381   5.675 -0.1792 -0.5329 -0.7199
13657TIP3    H162386   5.047   1.329   5.641  0.7705  1.0568 -1.2645
13657TIP3    H262387   4.917   1.318   5.718  1.3122 -1.9001 -0.6391
13658TIP3   OH262388   0.122   5.731   5.132 -0.3664 -0.5156 -0.0906
13658TIP3    H162389   0.187   5.710   5.065  0.4208  2.6237 -0.4994
13658TIP3    H262390   0.174   5.752   5.209 -1.1442 -1.7056  0.7848
13659TIP3   OH262391   0.497   2.632  15.743 -0.5203  0.0462  0.6123
13659TIP3    H162392   0.512   2.605  15.653  0.0394  0.1244  0.6783
13659TIP3    H262393   0.489   2.728  15.738  0.8580  0.1876  0.8126
13660TIP3   OH262394   0.156   4.208   3.780  0.5709 -0.1014  0.0649
13660TIP3    H162395   0.233   4.265   3.779  1.0913 -0.7096 -2.4956
13660TIP3    H262396   0.081   4.267   3.772  1.0805  0.3420 -2.0705
13661TIP3   OH262397   4.807   1.813   0.787 -0.5721 -0.1781 -0.5042
13661TIP3    H162398   4.883   1.842   0.736  1.3085 -2.4581  0.7843
13661TIP3    H262399   4.770   1.741   0.736 -0.6520 -0.3404 -0.2214
13662TIP3   OH262400   4.023   2.633   0.813 -0.2819  0.4542  0.1540
13662TIP3    H162401   3.944   2.581   0.829  0.9382 -1.7298 -0.4139
13662TIP3    H262402   4.090   2.591   0.868  0.0218  3.8484  2.6780
13663TIP3   OH262403   1.917   5.450  12.803  0.0617 -0.2613  0.1513
13663TIP3    H162404   1.841   5.509  12.806  1.0266  1.0330  0.0896
13663TIP3    H262405   1.949   5.456  12.713  2.0631  1.6878  0.8923
13664TIP3   OH262406   2.072   5.519  15.158 -0.3184  0.0771 -0.3106
13664TIP3    H162407   2.153   5.473  15.133  0.3628  1.1691 -0.1813
13664TIP3    H262408   2.097   5.611  15.161 -1.5138  0.4061  0.0081
13665TIP3   OH262409   5.759   1.877  16.907 -0.7336 -0.1269  0.3071
13665TIP3    H162410   5.720   1.796  16.941 -1.3227  0.3212  0.7150
13665TIP3    H262411   5.768   1.861  16.813  2.2267 -1.9280  0.7801
13666TIP3   OH262412   3.278   2.636   2.434  0.0478 -0.0167  0.1496
13666TIP3    H162413   3.222   2.560   2.417  2.9511 -2.1090 -0.8849
13666TIP3    H262414   3.245   2.703   2.375 -1.2284 -1.2253 -0.5895
13667TIP3   OH262415   5.005   2.299   1.754  0.5923 -0.3908  0.2109
13667TIP3    H162416   5.016   2.355   1.677  0.4015 -0.4783  0.1189
13667TIP3    H262417   4.960   2.355   1.818 -1.0975 -0.9109 -0.4537
13668TIP3   OH262418   6.746   0.878   5.124  0.6405 -0.0553 -0.0175
13668TIP3    H162419   6.787   0.840   5.201  0.9818 -0.7313 -0.5219
13668TIP3    H262420   6.793   0.959   5.108  1.4626 -0.5737 -0.2916
13669TIP3   OH262421   2.093   5.551   3.828 -0.1353  0.4506  0.2138
13669TIP3    H162422   2.023   5.569   3.765 -2.8845 -0.6206  2.7323
13669TIP3    H262423   2.131   5.637   3.846 -2.6263  1.5697  0.6365
13670TIP3   OH262424   5.576   1.402  12.109  0.0960 -0.3227  0.1309
13670TIP3    H162425   5.635   1.417  12.034  1.1686  0.9678  1.1866
13670TIP3    H262426   5.498   1.364  12.070  0.5389  0.5121 -1.6886
13671TIP3   OH262427   2.733   3.118  16.731  0.0600 -0.0712  0.2234
13671TIP3    H162428   2.684   3.188  16.689 -0.6309 -0.1349  0.8978
13671TIP3    H262429   2.668   3.071  16.783  0.5986 -0.9309  0.1496
13672TIP3   OH262430   2.624   3.891   2.048  1.7039  0.1915 -0.1609
13672TIP3    H162431   2.684   3.851   2.111  1.7365  0.7415  0.1625
13672TIP3    H262432   2.589   3.817   1.998  1.9528 -0.2181  0.2606
13673TIP3   OH262433   2.197   5.323   2.609 -1.1688  0.4524  0.1743
13673TIP3    H162434   2.221   5.238   2.646  0.1010  1.0799  0.8417
13673TIP3    H262435   2.244   5.387   2.663 -0.5457  1.4825 -1.5304
13674TIP3   OH262436   1.433   4.299  16.600 -0.4990 -0.2672  0.5092
13674TIP3    H162437   1.444   4.357  16.675 -1.2128  1.2459 -0.5213
13674TIP3    H262438   1.523   4.283  16.570 -0.3145  3.1867 -1.2681
13675TIP3   OH262439   6.562   5.838  12.231  0.0601 -0.4658  0.0282
13675TIP3    H162440   6.617   5.917  12.237  0.1954 -0.5029 -0.5645
13675TIP3    H262441   6.551   5.809  12.321  2.6786 -1.5813  0.0920
13676TIP3   OH262442   4.694   5.464  11.600  0.2230  0.0717 -0.3760
13676TIP3    H162443   4.714   5.509  11.518  0.4590  0.3911 -0.1441
13676TIP3    H262444   4.728   5.376  11.588 -0.7230 -0.2249 -1.0422
13677TIP3   OH262445   3.789   3.592  16.226  0.2828 -0.2114 -0.1628
13677TIP3    H162446   3.859   3.530  16.247 -0.1304 -1.2326 -1.6954
13677TIP3    H262447   3.737   3.549  16.158 -0.5127  1.4698 -0.6783
13678TIP3   OH262448   3.570   6.351  15.833 -0.5941 -0.3817  0.1292
13678TIP3    H162449   3.616   6.278  15.791 -0.0740 -0.4574  0.8127
13678TIP3    H262450   3.591   6.342  15.926 -0.2613  0.8239  0.1812
13679TIP3   OH262451   4.741   2.402  17.269 -0.1814 -0.1802  0.5332
13679TIP3    H162452   4.686   2.387  17.345 -1.7269  0.4334 -0.4161
13679TIP3    H262453   4.778   2.489  17.282 -1.0435  0.2392  0.2565
13680TIP3   OH262454   2.798   1.907   0.078 -0.3793  0.3170  0.5215
13680TIP3    H162455   2.708   1.892   0.051 -0.4201  1.3125  0.0784
13680TIP3    H262456   2.850   1.848   0.023 -0.5396  1.6428 -1.1514
13681TIP3   OH262457   4.883   1.629  10.698 -0.3660  0.5968  0.5460
13681TIP3    H162458   4.836   1.561  10.650  0.0442  0.2629  0.6135
13681TIP3    H262459   4.907   1.588  10.781  1.0414  0.3858  0.0578
13682TIP3   OH262460   4.878   0.044   1.134 -0.5359  0.0381 -0.1702
13682TIP3    H162461   4.799   0.011   1.175 -0.8762  3.1285  2.0689
13682TIP3    H262462   4.944  -0.023   1.150 -1.5711 -0.4561  2.3896
13683TIP3   OH262463   5.282   6.263   3.607 -0.2223 -0.0334 -0.6119
13683TIP3    H162464   5.277   6.298   3.518  1.1283 -1.0969 -1.1445
13683TIP3    H262465   5.192   6.267   3.639 -0.6364  0.9377 -1.7903
13684TIP3   OH262466   4.241   1.641  15.959 -0.5610  0.4831  0.2337
13684TIP3    H162467   4.186   1.636  16.038  0.4327  0.5341  0.9466
13684TIP3    H262468   4.272   1.732  15.957  0.8693  0.0323  0.8140
13685TIP3   OH262469   3.137   2.021  16.242  0.3040  0.0561  0.1552
13685TIP3    H162470   3.178   2.018  16.329  0.4324  1.5624  0.1646
13685TIP3    H262471   3.118   1.929  16.222  1.2731 -0.4267  1.2954
13686TIP3   OH262472   5.791   4.538   4.921  0.1154 -0.1584  0.0587
13686TIP3    H162473   5.867   4.590   4.947 -0.1835  2.2603 -3.1988
13686TIP3    H262474   5.716   4.594   4.939 -0.6408 -1.2559  0.4042
13687TIP3   OH262475   4.424   3.573  15.361 -0.5484  0.4061 -0.6077
13687TIP3    H162476   4.361   3.533  15.302 -1.3038  2.0134 -0.9500
13687TIP3    H262477   4.496   3.600  15.304 -0.5092  0.4616 -0.5316
13688TIP3   OH262478   2.514   5.783  16.624  0.3520 -0.4135  0.4605
13688TIP3    H162479   2.566   5.734  16.688  0.0493 -2.2513 -0.6044
13688TIP3    H262480   2.424   5.777  16.656  0.2118 -1.2622 -0.0460
13689TIP3   OH262481   4.800   1.732   6.914  0.7343  0.1490 -0.3744
13689TIP3    H162482   4.892   1.739   6.888  0.6882 -0.1128 -0.6035
13689TIP3    H262483   4.752   1.772   6.842  0.5744 -1.0102 -0.9153
13690TIP3   OH262484   3.322   3.141   6.276 -0.0968  0.9850 -0.5910
13690TIP3    H162485   3.377   3.072   6.314  0.0747  0.9789 -0.8473
13690TIP3    H262486   3.276   3.179   6.351  1.6400  2.2400 -0.1042
13691TIP3   OH262487   5.058   0.164  13.959 -0.2820 -0.5260  0.0919
13691TIP3    H162488   4.968   0.146  13.985  0.0124  1.0013  2.4382
13691TIP3    H262489   5.109   0.097  14.004 -0.1192 -0.4116  0.0784
13692TIP3   OH262490   3.413   1.921  12.863 -0.1449 -0.1091  0.1036
13692TIP3    H162491   3.321   1.946  12.875 -0.6440 -0.0799 -2.9763
13692TIP3    H262492   3.455   2.002  12.834  0.3984 -0.5700 -0.4171
13693TIP3   OH262493   5.573   1.375  15.855  0.5584  0.1473 -0.2786
13693TIP3    H162494   5.493   1.344  15.899  0.6661 -0.7091 -0.6680
13693TIP3    H262495   5.568   1.470  15.860  0.7494  0.0960  1.9485
13694TIP3   OH262496   2.980   5.471   4.345 -0.0038 -0.1973 -0.0302
13694TIP3    H162497   3.050   5.406   4.352 -0.8897 -1.1592  0.1041
13694TIP3    H262498   2.908   5.424   4.303 -0.5257  0.8152 -0.2851
13695TIP3   OH262499   3.945   3.867   3.267  0.0127 -0.0534 -0.4982
13695TIP3    H162500   4.033   3.898   3.291 -0.6940  2.1095 -0.4770
13695TIP3    H262501   3.956   3.833   3.178  1.3405 -2.2047  0.3937
13696TIP3   OH262502   4.064   4.648   4.158  0.0321 -0.1243  0.0119
13696TIP3    H162503   4.022   4.634   4.072  0.2327  0.2845 -0.1554
13696TIP3    H262504   4.132   4.714   4.141 -1.8689  2.2711  1.0445
13697TIP3   OH262505   2.508   0.893  14.311  0.1967  0.5354  0.0459
13697TIP3    H162506   2.439   0.910  14.374 -0.8908  1.4095 -1.3180
13697TIP3    H262507   2.525   0.799  14.317 -1.5029  0.2074  0.0336
13698TIP3   OH262508   1.410   1.055   0.175  0.0084 -0.2980 -0.1710
13698TIP3    H162509   1.475   1.120   0.149  0.9501 -0.2509  2.0864
13698TIP3    H262510   1.327   1.091   0.143  0.6896  1.2862 -0.2727
13699TIP3   OH262511   0.495   2.377   6.752 -0.3294  0.0655 -0.9382
13699TIP3    H162512   0.564   2.432   6.789 -0.0835 -0.7691 -0.1116
13699TIP3    H262513   0.414   2.423   6.774 -0.1428 -0.0144 -0.0317
13700TIP3   OH262514   2.859   6.402   5.293 -0.0848  0.2064  0.2857
13700TIP3    H162515   2.887   6.382   5.203  0.8831  2.5306  0.0023
13700TIP3    H262516   2.940   6.426   5.338 -0.7932  0.7869  1.2783
13701TIP3   OH262517   4.489   3.923  17.099 -0.2097  0.3978 -0.3509
13701TIP3    H162518   4.506   3.913  17.006  0.9885  1.0981 -0.2215
13701TIP3    H262519   4.526   4.008  17.122  2.4369 -1.0543  1.3783
13702TIP3   OH262520   4.776   0.881  16.840  0.1693  0.2527 -0.2121
13702TIP3    H162521   4.728   0.964  16.843  0.8421  0.6863 -0.9323
13702TIP3    H262522   4.732   0.831  16.771  0.2568  0.3240 -0.3188
13703TIP3   OH262523   5.629   3.734  11.974 -0.2019 -0.0875 -0.0307
13703TIP3    H162524   5.645   3.725  11.880 -0.2511  0.5055 -0.1010
13703TIP3    H262525   5.596   3.649  12.001 -0.9051 -0.0346 -0.6949
13704TIP3   OH262526   2.068   3.309   0.940 -0.4727 -0.0444 -0.1566
13704TIP3    H162527   1.982   3.269   0.953 -1.6952  2.4527  0.2058
13704TIP3    H262528   2.087   3.352   1.024  1.4451 -1.0332 -0.0297
13705TIP3   OH262529   3.314   2.856  14.164 -0.4698 -0.7595  0.4049
13705TIP3    H162530   3.334   2.946  14.139  1.9206 -1.3334  0.0199
13705TIP3    H262531   3.346   2.803  14.091 -3.8842 -1.8729 -0.4318
13706TIP3   OH262532   0.597   0.494   0.594  0.7866  0.3201  0.3863
13706TIP3    H162533   0.590   0.401   0.573 -0.9797  0.3244  0.7820
13706TIP3    H262534   0.658   0.497   0.668  0.0762 -0.6490  1.0422
13707TIP3   OH262535   0.446   3.325   4.976  0.3128  0.0672 -0.1309
13707TIP3    H162536   0.405   3.359   4.897  0.4282 -1.7330 -0.9991
13707TIP3    H262537   0.407   3.377   5.047 -1.5321  0.1650 -1.1470
13708TIP3   OH262538   0.179   5.336   0.326 -0.0124 -0.1631 -0.0200
13708TIP3    H162539   0.122   5.287   0.385 -0.7848  0.7046 -0.0299
13708TIP3    H262540   0.240   5.270   0.292  0.3478 -0.7135  1.5930
13709TIP3   OH262541   2.048   4.407   2.557  0.0354 -0.1038  0.2136
13709TIP3    H162542   1.961   4.431   2.526 -0.5518 -0.1088  1.7535
13709TIP3    H262543   2.092   4.491   2.570 -0.4746 -0.0023  1.3863
13710TIP3   OH262544   4.088   6.461  17.342  0.2786  0.1453 -0.1167
13710TIP3    H162545   4.064   6.450  17.250 -1.1259  1.9062 -0.0264
13710TIP3    H262546   4.176   6.498  17.341  0.7934 -1.0558 -0.6864
13711TIP3   OH262547   0.660   2.535  14.930  0.6470 -0.0323  0.7037
13711TIP3    H162548   0.612   2.600  14.878  1.9017 -0.1901 -0.7323
13711TIP3    H262549   0.610   2.528  15.012 -0.1573  1.8724  0.4310
13712TIP3   OH262550   3.650   4.424   3.047  0.6926  0.6572 -0.2600
13712TIP3    H162551   3.678   4.337   3.018  1.3961  0.4466  0.9754
13712TIP3    H262552   3.612   4.409   3.134 -1.3165  1.2672 -0.9792
13713TIP3   OH262553   3.292   1.832  12.591 -0.0648 -0.1446  0.2363
13713TIP3    H162554   3.228   1.878  12.645 -0.6156 -1.4438  0.7308
13713TIP3    H262555   3.370   1.825  12.647 -0.3103 -0.6420  0.5281
13714TIP3   OH262556   1.368   0.272   4.963  0.0010 -0.4669 -0.0616
13714TIP3    H162557   1.292   0.218   4.983  0.0576 -0.2107  0.8925
13714TIP3    H262558   1.436   0.209   4.937 -0.3205 -0.7446 -0.2392
13715TIP3   OH262559   1.554   4.028   2.504  0.2284 -0.0034 -0.3165
13715TIP3    H162560   1.602   4.082   2.566  1.7264 -0.8672 -0.6714
13715TIP3    H262561   1.618   4.006   2.437 -1.2826  0.7118 -2.0733
13716TIP3   OH262562   1.673   5.107   3.057 -0.0365  0.1060  0.4433
13716TIP3    H162563   1.745   5.147   3.009 -1.7738  0.6584 -1.8754
13716TIP3    H262564   1.688   5.013   3.052  0.1014  0.1873 -0.7496
13717TIP3   OH262565   4.451   0.351  15.855 -0.1902 -0.8556  0.0999
13717TIP3    H162566   4.358   0.365  15.875  0.4492  2.9435  1.0998
13717TIP3    H262567   4.470   0.264  15.890 -2.8658 -0.8419  1.8850
13718TIP3   OH262568   2.984   2.756   4.110 -0.6370  0.1475 -0.5691
13718TIP3    H162569   2.969   2.668   4.075 -0.8582  0.1601 -0.5066
13718TIP3    H262570   3.066   2.784   4.069 -0.2637 -0.3143 -0.1413
13719TIP3   OH262571   0.993   4.324  11.896 -0.1069 -0.0861 -0.1614
13719TIP3    H162572   1.036   4.258  11.842 -2.2072 -1.4559 -0.2700
13719TIP3    H262573   1.062   4.358  11.952  1.4736 -0.8448 -1.5788
13720TIP3   OH262574   5.111   4.241  15.760  0.2127 -0.0316  0.0480
13720TIP3    H162575   5.112   4.324  15.712 -0.4662 -1.0686 -1.8806
13720TIP3    H262576   5.120   4.174  15.692 -0.9390 -1.5948  1.3585
13721TIP3   OH262577   3.110   5.677   2.102  0.3872 -0.9390 -0.0992
13721TIP3    H162578   3.085   5.596   2.146 -2.6476 -0.7277 -1.2483
13721TIP3    H262579   3.029   5.727   2.094  1.8006  1.3853 -1.1899
13722TIP3   OH262580   3.394   2.359  16.437 -0.4657  0.4754  0.4552
13722TIP3    H162581   3.380   2.284  16.495 -0.3545  0.2786  0.2326
13722TIP3    H262582   3.472   2.334  16.386 -0.2944  0.8389  0.5383
13723TIP3   OH262583   3.412   3.009  12.947 -0.2649  0.1708  0.1325
13723TIP3    H162584   3.372   3.042  12.867 -1.4063  3.0773  1.7778
13723TIP3    H262585   3.489   3.065  12.960 -0.9111  0.7219  1.7779
13724TIP3   OH262586   5.230   3.108  11.482 -0.0067 -0.4196 -0.1491
13724TIP3    H162587   5.230   3.023  11.525 -1.3248 -0.5921 -0.4527
13724TIP3    H262588   5.320   3.141  11.494  0.5382 -1.8606 -0.0884
13725TIP3   OH262589   2.874   3.114   2.295  0.4576 -0.5306  0.4383
13725TIP3    H162590   2.855   3.021   2.285  0.4225 -0.5964  1.0723
13725TIP3    H262591   2.802   3.148   2.347  0.1062  0.0018 -0.3902
13726TIP3   OH262592   2.023   4.452  14.068 -0.6556 -0.1432 -0.0702
13726TIP3    H162593   2.076   4.510  14.014 -0.8103 -0.7322 -0.8708
13726TIP3    H262594   2.079   4.430  14.142 -0.0239 -0.2204 -0.5672
13727TIP3   OH262595   5.163   0.202  17.200  0.1924 -0.8188 -0.5138
13727TIP3    H162596   5.206   0.174  17.281  0.3221  0.5602 -0.0838
13727TIP3    H262597   5.235   0.218  17.139  0.2980  0.9656  0.0365
13728TIP3   OH262598   3.910   3.787   6.487  0.4377 -0.1365  0.0643
13728TIP3    H162599   3.944   3.866   6.447 -0.7622  0.5715  0.3958
13728TIP3    H262600   3.951   3.715   6.438  0.5113  0.6901 -1.1208
13729TIP3   OH262601   6.482   6.369  15.428  0.0723  0.2272 -0.0630
13729TIP3    H162602   6.451   6.385  15.339 -0.1937 -1.4613 -0.3044
13729TIP3    H262603   6.403   6.379  15.482  0.2144  1.1562 -0.0136
13730TIP3   OH262604   1.287   5.795  13.426  0.1697 -0.0523  0.0043
13730TIP3    H162605   1.237   5.746  13.361  0.4472  0.2885 -0.4691
13730TIP3    H262606   1.270   5.750  13.509  1.6261 -1.8979 -0.6337
13731TIP3   OH262607   2.589   5.950   4.588 -0.3261 -0.3171 -0.4577
13731TIP3    H162608   2.571   5.912   4.503  1.0132 -1.5244 -0.2422
13731TIP3    H262609   2.506   5.945   4.635 -0.9901  0.0492 -1.5454
13732TIP3   OH262610   6.711   6.693   4.719  0.4572 -0.2853  0.5454
13732TIP3    H162611   6.728   6.773   4.769  1.1360  0.4082 -0.7468
13732TIP3    H262612   6.794   6.674   4.675  0.6510 -2.3688  1.6984
13733TIP3   OH262613   1.046   4.609   2.547  0.0080  0.2557  0.2756
13733TIP3    H162614   1.126   4.617   2.495  1.2294 -0.6855  1.9067
13733TIP3    H262615   1.039   4.515   2.566 -1.4311  0.3378  0.2727
13734TIP3   OH262616   1.998   3.064   5.757  0.5832 -0.0495 -0.2084
13734TIP3    H162617   1.997   3.013   5.676  0.8535  0.3065 -0.4403
13734TIP3    H262618   2.042   3.146   5.733 -1.1041  0.8912 -0.1997
13735TIP3   OH262619   4.192   1.713   2.226  0.2308  0.3566  0.1529
13735TIP3    H162620   4.192   1.675   2.138 -0.7627  0.2420  0.1853
13735TIP3    H262621   4.281   1.746   2.238  0.8856 -1.1852 -0.2142
13736TIP3   OH262622   3.719   3.455   2.315  0.4532  0.5256  0.0811
13736TIP3    H162623   3.688   3.482   2.401  0.0004  2.9751 -0.7743
13736TIP3    H262624   3.780   3.523   2.288  1.4410 -0.7546 -1.1176
13737TIP3   OH262625   2.644   4.921   3.482  0.0180 -0.6250 -0.1449
13737TIP3    H162626   2.634   4.971   3.401 -2.0929 -0.9255 -0.1165
13737TIP3    H262627   2.645   4.987   3.551 -0.5686 -0.4872 -0.2622
13738TIP3   OH262628   4.024   0.986   0.854 -0.2487  0.0351 -0.2624
13738TIP3    H162629   3.989   1.003   0.941  1.4084 -1.6679  0.8237
13738TIP3    H262630   4.077   1.063   0.834 -1.3860  0.8628 -0.2355
13739TIP3   OH262631   4.514   6.150  16.680 -0.4678 -0.0759 -0.2234
13739TIP3    H162632   4.508   6.057  16.703  0.7310 -0.0907  0.1304
13739TIP3    H262633   4.519   6.151  16.585  0.0836 -0.4317 -0.2072
13740TIP3   OH262634   6.683   2.048   1.337  0.3806  1.0524 -0.0476
13740TIP3    H162635   6.673   2.020   1.428  2.2108 -0.5991 -0.2751
13740TIP3    H262636   6.774   2.076   1.331  1.2952 -1.8559 -2.0142
13741TIP3   OH262637   5.545   2.384  14.420  1.0436  0.0447 -0.3333
13741TIP3    H162638   5.534   2.296  14.456  1.9725 -0.0459 -0.2458
13741TIP3    H262639   5.476   2.436  14.461  1.5141 -0.2598  0.8951
13742TIP3   OH262640   3.121   4.283  14.363  0.1735 -0.4864  0.3687
13742TIP3    H162641   3.174   4.344  14.311  0.1744 -0.0255  0.8928
13742TIP3    H262642   3.035   4.285  14.323  0.6501 -1.5918 -0.7790
13743TIP3   OH262643   5.538   3.050   0.904  0.0251  0.1726  0.5889
13743TIP3    H162644   5.557   3.083   0.816  0.7456 -0.4038  0.5144
13743TIP3    H262645   5.566   3.120   0.963 -0.2555  0.4725  0.3667
13744TIP3   OH262646   4.514   4.150   2.429 -0.9930 -0.0773 -0.0409
13744TIP3    H162647   4.541   4.206   2.356 -0.2319 -0.0859  0.2194
13744TIP3    H262648   4.470   4.209   2.490  0.0074  0.3055  0.3392
13745TIP3   OH262649   1.907   4.023   0.459 -0.3592  0.3282  0.0429
13745TIP3    H162650   1.823   4.007   0.417  0.4237 -1.3141 -1.0145
13745TIP3    H262651   1.902   3.975   0.542 -0.1808 -0.4933 -0.4099
13746TIP3   OH262652   2.869   2.326  16.170  0.6690  0.4430 -0.3712
13746TIP3    H162653   2.778   2.304  16.190  1.1730 -0.3747  1.1330
13746TIP3    H262654   2.899   2.254  16.114  0.9682 -0.3849  0.8127
13747TIP3   OH262655   2.986   4.753  11.719  0.4174 -0.1419 -0.2334
13747TIP3    H162656   3.055   4.733  11.783 -0.1649 -0.5432  0.2870
13747TIP3    H262657   2.966   4.669  11.678 -0.4273 -0.2183  0.3061
13748TIP3   OH262658   1.744   6.490   3.644  0.1336  0.2716 -0.1954
13748TIP3    H162659   1.756   6.419   3.707  1.1214  0.6984  0.1202
13748TIP3    H262660   1.661   6.470   3.601  0.1512 -0.8085  0.2311
13749TIP3   OH262661   1.617   5.839   0.084 -0.1220  0.1605 -0.5137
13749TIP3    H162662   1.614   5.929   0.050 -1.9999  0.7331  0.9595
13749TIP3    H262663   1.692   5.840   0.144 -1.3826  1.4900  1.1707
13750TIP3   OH262664   3.973   3.661   3.920 -0.6788 -0.6032  0.6283
13750TIP3    H162665   4.052   3.619   3.885 -0.5174  0.0222  0.2409
13750TIP3    H262666   3.923   3.588   3.958  0.3602 -0.9377  1.4367
13751TIP3   OH262667   0.026   3.282  12.656  0.0031 -0.1630  0.0574
13751TIP3    H162668   0.091   3.237  12.711 -0.1979  0.4323  0.7993
13751TIP3    H262669  -0.045   3.219  12.647  0.2004 -0.4059  0.1666
13752TIP3   OH262670   0.020   1.517   3.998  0.3495  0.2260 -0.3454
13752TIP3    H162671  -0.070   1.539   4.021  0.3234 -0.7370  0.5667
13752TIP3    H262672   0.013   1.436   3.948  0.5998  1.0496 -1.7731
13753TIP3   OH262673   6.176   0.513  12.078 -0.4128 -0.0185  0.4468
13753TIP3    H162674   6.140   0.550  11.997 -0.8792 -0.4793  0.4361
13753TIP3    H262675   6.269   0.500  12.059 -0.4288  0.3086  0.1415
13754TIP3   OH262676   3.851   4.707   3.285 -1.1011 -1.0366  0.0324
13754TIP3    H162677   3.834   4.619   3.319 -0.5792 -1.1130  0.1057
13754TIP3    H262678   3.811   4.766   3.348  0.5234 -1.1443  1.2181
13755TIP3   OH262679   5.080   4.522  14.319  0.4072  0.1195 -0.0621
13755TIP3    H162680   5.071   4.539  14.413  1.8303  1.1529 -0.0830
13755TIP3    H262681   4.991   4.534  14.284 -0.0501  0.1705  1.0723
13756TIP3   OH262682   2.653   0.729   2.323  0.1846 -0.7297 -0.5873
13756TIP3    H162683   2.576   0.785   2.309  1.0380  0.1470 -2.0603
13756TIP3    H262684   2.626   0.643   2.290 -0.3599 -0.5799 -0.5444
13757TIP3   OH262685   3.099   0.781  11.520  0.4027 -0.6705  0.1459
13757TIP3    H162686   3.106   0.740  11.433 -2.3515 -0.5602 -0.1919
13757TIP3    H262687   3.101   0.875  11.502  0.5187 -0.6431  0.2976
13758TIP3   OH262688   6.044   3.525  12.211 -0.3421 -0.2369  0.0985
13758TIP3    H162689   6.045   3.512  12.306 -1.1053 -0.7947  0.0431
13758TIP3    H262690   6.112   3.468  12.178  1.1902  1.3125  0.4383
13759TIP3   OH262691   2.198   3.841  12.562 -0.1905 -0.4736  0.0821
13759TIP3    H162692   2.187   3.753  12.527 -0.5398 -0.6601  0.6404
13759TIP3    H262693   2.260   3.831  12.634 -0.8632 -0.4142  0.6828
13760TIP3   OH262694   3.969   1.446   4.192  0.4659  0.5203  0.3060
13760TIP3    H162695   3.899   1.499   4.230  0.1735  0.2826  0.0943
13760TIP3    H262696   3.964   1.463   4.098  0.6006  0.3873  0.2748
13761TIP3   OH262697   1.383   1.855  14.566  0.2071  0.1246  0.8017
13761TIP3    H162698   1.384   1.937  14.517  1.8765  1.7072  3.2454
13761TIP3    H262699   1.317   1.869  14.634 -1.8160 -1.8795 -0.6036
13762TIP3   OH262700   1.141   6.376  14.475  0.8617  0.0720 -0.2558
13762TIP3    H162701   1.082   6.332  14.536  1.5537 -1.0926 -0.4103
13762TIP3    H262702   1.141   6.467  14.504 -0.7419  0.0428 -0.0457
13763TIP3   OH262703   1.808   0.785  13.066 -0.5646  0.1016  0.2352
13763TIP3    H162704   1.884   0.764  13.011 -0.1705  1.6517  0.1314
13763TIP3    H262705   1.835   0.760  13.154 -0.0450  0.3538  0.1520
13764TIP3   OH262706   4.580   0.170  13.563  0.2398 -0.0210  0.0930
13764TIP3    H162707   4.545   0.232  13.627 -0.7572 -2.1063  1.6580
13764TIP3    H262708   4.516   0.172  13.491 -0.6417 -0.3996  0.8536
13765TIP3   OH262709   3.143   2.492   3.407 -0.0081 -0.0477 -0.1786
13765TIP3    H162710   3.056   2.512   3.441  0.1892  0.1850  0.2003
13765TIP3    H262711   3.177   2.575   3.374  0.2213 -0.0558  0.0293
13766TIP3   OH262712   2.625   6.561  15.357 -0.1597  0.2609  0.4229
13766TIP3    H162713   2.573   6.642  15.353  1.3938  1.2883  0.2313
13766TIP3    H262714   2.615   6.532  15.448 -1.3162  0.2549  0.3087
13767TIP3   OH262715   2.570   6.153   1.244 -0.5755 -0.2378  0.6737
13767TIP3    H162716   2.481   6.127   1.220 -0.6341  0.3654  0.2369
13767TIP3    H262717   2.571   6.248   1.235 -0.1280 -0.1520  1.4924
13768TIP3   OH262718   4.045   1.452  16.972 -0.3152  0.3802  0.0787
13768TIP3    H162719   3.966   1.501  16.950 -0.7681  0.3585  1.5770
13768TIP3    H262720   4.072   1.487  17.057  0.0728 -1.0918  0.5905
13769TIP3   OH262721   0.910   1.394  15.709  0.5170 -0.2193  0.6046
13769TIP3    H162722   0.917   1.324  15.774 -0.5046 -0.8733  0.0384
13769TIP3    H262723   0.909   1.348  15.625  0.9669  0.5557  0.1670
13770TIP3   OH262724   4.478   2.350  14.635 -0.5611  0.4151  0.4693
13770TIP3    H162725   4.459   2.283  14.701  0.0617 -0.5141 -0.2753
13770TIP3    H262726   4.405   2.411  14.642 -1.0420 -0.2269  1.3034
13771TIP3   OH262727   2.278   0.716  13.555  0.1575 -0.0812  0.0431
13771TIP3    H162728   2.236   0.787  13.507  1.3321  0.4264 -0.2858
13771TIP3    H262729   2.210   0.650  13.566 -1.2074  1.4079  1.0401
13772TIP3   OH262730   5.497   3.698  11.503  0.2783  0.2349 -0.1066
13772TIP3    H162731   5.578   3.647  11.504  0.2122  0.1238 -0.4718
13772TIP3    H262732   5.524   3.787  11.481  0.4248  0.4220  0.7660
13773TIP3   OH262733   2.448   4.250   4.299  0.8746 -0.7899 -0.2557
13773TIP3    H162734   2.543   4.237   4.297  0.8754 -0.7006 -1.4502
13773TIP3    H262735   2.435   4.320   4.363  1.7619  0.1788 -1.0837
13774TIP3   OH262736   5.805   1.951   3.622  0.1613 -0.2302 -0.2111
13774TIP3    H162737   5.886   1.901   3.627 -0.8351 -1.9201 -0.4842
13774TIP3    H262738   5.788   1.980   3.711  0.7800 -0.2931 -0.0690
13775TIP3   OH262739   3.020   5.675   3.978  0.1619 -0.3997 -0.5180
13775TIP3    H162740   3.040   5.584   3.953  0.8543 -0.7002  1.0199
13775TIP3    H262741   3.037   5.726   3.899  1.1678 -1.4410 -1.0036
13776TIP3   OH262742   6.511   4.220  13.073 -0.3143 -0.5090 -0.2901
13776TIP3    H162743   6.595   4.215  13.119  0.6800 -0.0041 -1.9725
13776TIP3    H262744   6.512   4.306  13.030 -2.2319  0.0243  0.5970
13777TIP3   OH262745   3.957   3.211  14.090 -0.3061 -0.1679 -0.2104
13777TIP3    H162746   4.038   3.162  14.073  0.0393 -0.0543  1.0124
13777TIP3    H262747   3.887   3.151  14.063  0.1747 -0.4878 -0.7556
13778TIP3   OH262748   4.593   4.585   0.871 -0.2827  0.3927  0.3924
13778TIP3    H162749   4.657   4.598   0.801 -0.6474  0.8302  0.1333
13778TIP3    H262750   4.553   4.501   0.851  0.6087 -0.1550  0.8795
13779TIP3   OH262751   5.291   4.333  12.512  0.0116 -0.4305  0.5347
13779TIP3    H162752   5.325   4.251  12.550  4.7015  1.4688  1.1352
13779TIP3    H262753   5.285   4.393  12.586  3.0451  1.4781 -0.5601
13780TIP3   OH262754   5.842   2.643  14.345 -0.1838  0.2867 -0.1401
13780TIP3    H162755   5.794   2.656  14.263 -0.4997 -1.6184 -0.3054
13780TIP3    H262756   5.887   2.560  14.334 -0.0065  0.1246  1.5061
13781TIP3   OH262757   0.298   6.600   1.807 -0.0676 -0.0840  0.1784
13781TIP3    H162758   0.374   6.591   1.750 -0.6877 -0.6601 -0.5702
13781TIP3    H262759   0.325   6.664   1.873  0.3270  1.3258 -1.3009
13782TIP3   OH262760   2.420   6.280  11.959 -0.3003 -0.3188 -0.1702
13782TIP3    H162761   2.363   6.278  11.882  0.3965 -0.3571 -0.6897
13782TIP3    H262762   2.493   6.337  11.934 -0.3292  0.0936  0.6494
13783TIP3   OH262763   0.775   2.935   2.880  0.3732  0.0861 -0.1437
13783TIP3    H162764   0.763   2.844   2.853 -0.4714 -0.1915  1.0559
13783TIP3    H262765   0.864   2.937   2.916  0.6538 -0.0859 -0.8108
13784TIP3   OH262766   5.499   3.341   3.309  0.1437 -0.0738 -0.1720
13784TIP3    H162767   5.506   3.302   3.396 -0.9676  0.4100  0.1533
13784TIP3    H262768   5.406   3.337   3.288  0.3150  0.3765 -1.0834
13785TIP3   OH262769   6.759   6.458   4.330 -0.2322  0.4440 -0.7025
13785TIP3    H162770   6.688   6.395   4.319 -0.4988  0.4889  0.5692
13785TIP3    H262771   6.839   6.408   4.318 -0.4135 -0.3908  1.3001
13786TIP3   OH262772   0.420   6.085   3.445 -0.2476  0.9316 -0.4207
13786TIP3    H162773   0.383   6.125   3.366  1.1783 -0.6007 -1.9417
13786TIP3    H262774   0.514   6.092   3.432  0.0233  1.4293  1.6042
13787TIP3   OH262775   0.090   3.291  17.010 -0.1357  0.2849  0.4976
13787TIP3    H162776   0.022   3.227  17.027  1.6882 -1.2677  2.5700
13787TIP3    H262777   0.069   3.364  17.068 -0.7073  0.3766  0.1812
13788TIP3   OH262778   1.612   3.669   5.382 -0.2719 -1.3889 -0.6060
13788TIP3    H162779   1.694   3.619   5.384 -0.8956 -2.4129 -0.0296
13788TIP3    H262780   1.556   3.626   5.446 -0.7246  0.2672  0.1883
13789TIP3   OH262781   3.057   5.784   4.740  0.3854  0.2328  0.1133
13789TIP3    H162782   3.062   5.698   4.699 -1.1646  0.0083  0.3383
13789TIP3    H262783   3.002   5.836   4.681  1.2621  1.0726  0.0005
13790TIP3   OH262784   0.865   6.566  14.339  0.7190  0.1247 -0.3934
13790TIP3    H162785   0.796   6.619  14.381  0.0558 -1.0129 -0.0076
13790TIP3    H262786   0.859   6.481  14.381  3.1621  0.3169  0.4705
13791TIP3   OH262787   6.305   1.448  17.179  0.7970 -0.8101  0.4598
13791TIP3    H162788   6.275   1.538  17.192  1.1723 -0.2812 -1.8544
13791TIP3    H262789   6.365   1.432  17.252  0.6404  0.7770  0.9751
13792TIP3   OH262790   3.186   4.140  12.855  0.1593 -0.5445  0.2190
13792TIP3    H162791   3.162   4.137  12.762 -1.7016  2.7509  0.4452
13792TIP3    H262792   3.280   4.159  12.854 -0.2652  2.0062 -1.1587
13793TIP3   OH262793   5.474   2.843  14.843  0.0829  0.0047 -0.0108
13793TIP3    H162794   5.434   2.887  14.767  2.4019  1.5136 -0.4973
13793TIP3    H262795   5.560   2.885  14.851  2.8386 -4.7476 -0.7845
13794TIP3   OH262796   0.776   5.865   0.703 -0.0572  0.5969  0.1214
13794TIP3    H162797   0.688   5.827   0.699  0.5221 -0.6769 -1.4829
13794TIP3    H262798   0.763   5.958   0.684 -1.1474  0.6525  0.9989
13795TIP3   OH262799   2.260   2.590  13.495  0.2833 -0.3440 -0.4363
13795TIP3    H162800   2.176   2.623  13.526  0.5161 -1.6119  1.7723
13795TIP3    H262801   2.277   2.512  13.549  2.3217 -0.8163 -1.6305
13796TIP3   OH262802   4.978   4.224   5.556  0.0163  0.0961  0.2907
13796TIP3    H162803   4.903   4.264   5.510  0.0616  0.5919  0.6351
13796TIP3    H262804   5.055   4.260   5.512  0.0983  1.9123  1.7913
13797TIP3   OH262805   0.316   5.407   4.758  0.0998  0.4393  0.0617
13797TIP3    H162806   0.226   5.418   4.726  0.7160  0.7744 -1.6475
13797TIP3    H262807   0.366   5.474   4.713  1.4586 -0.6032 -0.0476
13798TIP3   OH262808   2.685   4.583  17.076  0.3221  0.3090  0.4871
13798TIP3    H162809   2.716   4.493  17.071  1.7480  0.4550  3.8003
13798TIP3    H262810   2.665   4.607  16.986  2.0426 -2.5607 -0.8002
13799TIP3   OH262811   4.577   0.048   1.715  0.6291  0.2617  0.9908
13799TIP3    H162812   4.668   0.025   1.734  1.6837  2.4097 -0.9710
13799TIP3    H262813   4.567   0.137   1.749 -0.7018  0.1334  0.9943
13800TIP3   OH262814   4.970   4.186   0.486 -0.3092 -0.5439 -0.1194
13800TIP3    H162815   4.977   4.165   0.392 -1.0125 -0.8493 -0.1105
13800TIP3    H262816   4.935   4.106   0.525 -0.0257 -0.4127  0.4050
13801TIP3   OH262817   3.954   5.263  16.874 -0.0004 -0.0513  0.0473
13801TIP3    H162818   4.047   5.259  16.894  0.2403  0.4361 -0.9212
13801TIP3    H262819   3.918   5.324  16.938  0.5849  0.7621 -0.3808
13802TIP3   OH262820   1.473   6.367  16.526 -0.0574  0.0107 -0.6564
13802TIP3    H162821   1.513   6.281  16.530 -0.9318 -0.4017 -0.4465
13802TIP3    H262822   1.541   6.424  16.490  0.7799 -0.6026 -0.0660
13803TIP3   OH262823   5.634   3.366  13.793 -0.4230  0.6770 -0.4085
13803TIP3    H162824   5.601   3.278  13.806  1.0394  0.1692  0.0210
13803TIP3    H262825   5.695   3.358  13.719  2.1073  0.6362  1.5746
13804TIP3   OH262826   4.771   5.068  15.476 -0.0291 -0.2363  0.0153
13804TIP3    H162827   4.767   5.155  15.515  1.3300 -1.0055  2.0043
13804TIP3    H262828   4.682   5.053  15.442 -2.0655 -0.2480  4.6423
13805TIP3   OH262829   5.141   2.169   2.296  0.1988 -0.5120  0.0051
13805TIP3    H162830   5.189   2.174   2.378  0.3749 -2.0803  0.0297
13805TIP3    H262831   5.053   2.139   2.321 -0.6324  1.6194 -0.1172
13806TIP3   OH262832   0.930   0.850  15.986  0.4045  0.2253 -0.1013
13806TIP3    H162833   0.965   0.865  15.898 -2.1990 -0.5710 -1.3834
13806TIP3    H262834   0.837   0.828  15.971 -0.1809  0.3212  2.8735
13807TIP3   OH262835   1.856   0.986   1.301 -0.4231  0.2981  0.5555
13807TIP3    H162836   1.890   1.010   1.215  1.9597  0.8352  1.5737
13807TIP3    H262837   1.780   0.931   1.283  0.9586 -0.9439 -1.9027
13808TIP3   OH262838   4.470   3.727   4.790  0.1612  0.0622  0.0856
13808TIP3    H162839   4.442   3.663   4.855 -0.6773  0.8382  0.5059
13808TIP3    H262840   4.465   3.812   4.835  2.5393  0.3400 -0.0347
13809TIP3   OH262841   0.126   5.737  16.452  0.2590  0.2472  0.4742
13809TIP3    H162842   0.121   5.754  16.357  1.5915 -1.6360  0.0169
13809TIP3    H262843   0.137   5.643  16.459  0.6024  0.3979  2.5192
13810TIP3   OH262844   0.106   3.617  16.883  0.4482  0.8013  0.8406
13810TIP3    H162845   0.157   3.591  16.806  1.3194  2.5231  0.7972
13810TIP3    H262846   0.016   3.593  16.861  0.9673 -0.7196  0.2014
13811TIP3   OH262847   0.611   3.951  14.328  0.4078  0.1867 -0.4616
13811TIP3    H162848   0.703   3.973  14.338  0.1018  1.0602  0.7121
13811TIP3    H262849   0.574   3.962  14.415 -0.9174  0.4041 -1.0249
13812TIP3   OH262850   3.466   1.427  15.541 -0.5691  0.2812 -0.0473
13812TIP3    H162851   3.526   1.500  15.553  1.1604 -0.7014 -2.0724
13812TIP3    H262852   3.427   1.413  15.628  1.1174  1.8257  1.0223
13813TIP3   OH262853   2.717   2.588  16.754  0.1099  0.4080  0.0919
13813TIP3    H162854   2.690   2.662  16.808 -0.3483 -0.4387  1.0628
13813TIP3    H262855   2.636   2.546  16.729  0.3858 -1.3457  1.8700
13814TIP3   OH262856   2.007   3.321  12.901 -0.6238 -0.2721  0.0770
13814TIP3    H162857   2.037   3.329  12.991  0.8398  0.3889 -0.4494
13814TIP3    H262858   1.911   3.322  12.908 -0.5801 -2.0918  1.7629
13815TIP3   OH262859   3.897   1.024   3.862  0.3878  0.2074  0.4443
13815TIP3    H162860   3.837   0.973   3.916  0.7159 -0.0096  0.6141
13815TIP3    H262861   3.965   1.054   3.924  0.3439  0.6234  0.2975
13816TIP3   OH262862   6.079   4.717  13.042  0.1284 -0.0981  0.1428
13816TIP3    H162863   5.988   4.698  13.063 -0.5047  1.4765 -0.9556
13816TIP3    H262864   6.105   4.648  12.982 -0.8339  0.2587 -0.7060
13817TIP3   OH262865   6.382   5.345  11.247 -0.0206  0.0390  0.6284
13817TIP3    H162866   6.386   5.440  11.243  1.2717  0.0066  0.5340
13817TIP3    H262867   6.292   5.323  11.224 -0.4759  1.2542  1.1814
13818TIP3   OH262868   1.771   0.754   5.421  0.1550 -0.2172 -0.3015
13818TIP3    H162869   1.796   0.833   5.468  1.7323  0.6076 -2.3770
13818TIP3    H262870   1.687   0.776   5.381  0.5394  0.3868 -0.7900
13819TIP3   OH262871   5.126   0.383  14.907 -0.3041 -0.1530 -0.7077
13819TIP3    H162872   5.075   0.360  14.830 -0.5063 -1.0186 -0.3283
13819TIP3    H262873   5.194   0.443  14.875 -1.3560  0.7623 -1.2689
13820TIP3   OH262874   2.877   1.901   1.611 -0.4349 -0.8540  0.0455
13820TIP3    H162875   2.881   1.886   1.517 -1.0231  0.0210 -0.1272
13820TIP3    H262876   2.823   1.829   1.644  1.3528 -2.2959  0.0069
13821TIP3   OH262877   1.068   5.245  16.333 -0.3100 -0.1118  0.1418
13821TIP3    H162878   1.069   5.331  16.376 -1.4060  0.8612 -1.6187
13821TIP3    H262879   1.008   5.193  16.385  0.9336 -0.1015  1.6741
13822TIP3   OH262880   3.283   0.309  16.070  0.3615  0.6302  0.4821
13822TIP3    H162881   3.303   0.402  16.064 -1.1671  1.0488  1.1806
13822TIP3    H262882   3.187   0.305  16.062  0.2458 -0.7032  1.9884
13823TIP3   OH262883   1.468   0.746  12.384 -0.2583 -0.0129 -0.2700
13823TIP3    H162884   1.541   0.799  12.352 -1.1518  1.4758  0.0886
13823TIP3    H262885   1.409   0.739  12.309 -0.4661  0.0865 -0.1160
13824TIP3   OH262886   6.645   0.243   3.184  0.0541  0.7679  0.3157
13824TIP3    H162887   6.620   0.333   3.162  0.9201  0.4079 -2.4475
13824TIP3    H262888   6.627   0.193   3.105  0.3565 -1.3874  1.5231
13825TIP3   OH262889   0.666   0.210   0.560 -0.1740  0.0270 -0.2267
13825TIP3    H162890   0.629   0.122   0.556 -1.2107  0.4904 -2.5992
13825TIP3    H262891   0.760   0.196   0.567 -0.4231 -1.2053  1.4389
13826TIP3   OH262892   6.510   4.070  13.310 -0.0357 -0.2513  0.3910
13826TIP3    H162893   6.514   4.040  13.219 -0.5324 -0.6410  0.4886
13826TIP3    H262894   6.567   4.147  13.313 -0.5107  0.1434 -0.3999
13827TIP3   OH262895   6.352   0.471  15.211  0.1759 -0.4671  0.3928
13827TIP3    H162896   6.411   0.422  15.154 -0.6683 -0.2851 -0.6754
13827TIP3    H262897   6.358   0.426  15.296  1.8381 -0.4300  0.3243
13828TIP3   OH262898   3.364   4.911  13.101 -0.5718 -0.7478 -0.3794
13828TIP3    H162899   3.370   4.881  13.010  0.1000 -2.7239  0.2773
13828TIP3    H262900   3.450   4.948  13.120 -0.1443 -1.8606 -0.0676
13829TIP3   OH262901   5.288   1.979   1.433 -0.0764  0.1770  0.0015
13829TIP3    H162902   5.239   1.898   1.420 -0.2142 -0.0566  1.6944
13829TIP3    H262903   5.240   2.045   1.383 -0.2441 -0.6744 -0.9935
13830TIP3   OH262904   2.373   4.320   4.844 -0.0563  0.2933 -0.0977
13830TIP3    H162905   2.413   4.338   4.759 -0.5691 -0.8270 -0.5995
13830TIP3    H262906   2.433   4.260   4.887  0.3690  1.1236  0.4821
13831TIP3   OH262907   6.460   2.819   3.282  0.6952 -0.6300  0.0944
13831TIP3    H162908   6.430   2.761   3.212  1.2214 -2.2044  1.1048
13831TIP3    H262909   6.433   2.775   3.362  0.3072  1.0219  0.9142
13832TIP3   OH262910   1.454   5.416   2.218 -0.5204 -0.1101  0.5765
13832TIP3    H162911   1.421   5.337   2.261 -0.6238 -0.5375 -0.2715
13832TIP3    H262912   1.505   5.383   2.144  1.3837  0.5422  1.5274
13833TIP3   OH262913   0.884   5.833   3.231 -0.2753  0.2608 -0.2433
13833TIP3    H162914   0.901   5.759   3.172 -0.1338  0.3264 -0.2846
13833TIP3    H262915   0.842   5.793   3.307 -0.2618  0.1462 -0.2954
13834TIP3   OH262916   3.202   6.150   0.152  0.0845 -0.2550  0.4939
13834TIP3    H162917   3.283   6.196   0.173  0.2544 -0.7395  0.9004
13834TIP3    H262918   3.140   6.179   0.220 -0.0358 -0.0241  0.2885
13835TIP3   OH262919   5.912   2.776   2.530 -0.0067 -0.4472 -0.6018
13835TIP3    H162920   5.867   2.737   2.605  2.0816  0.5358  1.2757
13835TIP3    H262921   5.911   2.870   2.548  1.4383 -0.2821 -1.2481
13836TIP3   OH262922   4.121   0.191  11.521  0.0244  1.0020  0.1815
13836TIP3    H162923   4.199   0.143  11.550 -1.2608  0.3907  2.9408
13836TIP3    H262924   4.094   0.147  11.440  0.1034 -1.6676  1.5005
13837TIP3   OH262925   1.966   1.935   6.529 -0.3184  0.0942 -0.1721
13837TIP3    H162926   1.895   1.875   6.551  0.3759 -0.5205  0.4568
13837TIP3    H262927   1.922   2.016   6.502 -1.2547  0.6615  2.7124
13838TIP3   OH262928   5.765   2.381  14.267 -0.2669  0.4438  0.5557
13838TIP3    H162929   5.687   2.423  14.303  0.1875 -0.4423  2.6979
13838TIP3    H262930   5.731   2.310  14.212 -0.9863  0.2485  1.2430
13839TIP3   OH262931   1.468   3.468   2.936 -0.0416  0.4138  0.7610
13839TIP3    H162932   1.460   3.439   3.027 -0.4052 -0.7065  0.3929
13839TIP3    H262933   1.481   3.563   2.941 -1.3083  0.5474  1.9335
13840TIP3   OH262934   4.811   2.210   5.580 -0.1582  0.1407  0.3655
13840TIP3    H162935   4.852   2.292   5.607  0.0568  0.3309 -0.5151
13840TIP3    H262936   4.884   2.151   5.562 -0.2449  0.4258 -1.0360
13841TIP3   OH262937   4.995   4.655   6.214 -0.0138  0.2401  0.0487
13841TIP3    H162938   4.936   4.627   6.285 -0.6296 -1.1279 -0.9360
13841TIP3    H262939   4.938   4.659   6.137  0.3002  3.2448 -0.1414
13842TIP3   OH262940   0.394   6.293   0.422  0.2421 -0.2286  0.2646
13842TIP3    H162941   0.440   6.365   0.378  1.5541 -0.2483  1.5270
13842TIP3    H262942   0.452   6.218   0.411 -1.2093 -1.2148 -1.2146
13843TIP3   OH262943   2.883   2.023   2.802 -0.0590  0.4111  0.4139
13843TIP3    H162944   2.974   2.050   2.793 -0.1610  0.5159 -0.3850
13843TIP3    H262945   2.886   1.940   2.850  0.4049  0.7317  0.9513
13844TIP3   OH262946   6.655   1.567  12.870 -0.5158 -0.4366 -0.5354
13844TIP3    H162947   6.605   1.543  12.948  1.1572  1.2608  1.1594
13844TIP3    H262948   6.598   1.628  12.823 -0.0593  1.7406  1.5461
13845TIP3   OH262949   0.799   2.701  16.316 -0.5616  0.5982 -0.1631
13845TIP3    H162950   0.890   2.711  16.287 -0.5984  4.3890  0.5454
13845TIP3    H262951   0.805   2.640  16.390  0.8919 -1.4470 -1.8312
13846TIP3   OH262952   6.052   3.224   4.135  0.1109 -0.0569 -0.3502
13846TIP3    H162953   6.062   3.178   4.219 -1.3306 -2.4611 -1.3806
13846TIP3    H262954   6.140   3.223   4.096 -0.0868 -3.8294 -1.1284
13847TIP3   OH262955   6.367   0.782  16.472  0.6479  0.4192  0.0201
13847TIP3    H162956   6.399   0.748  16.388 -1.8243  0.6701 -1.1161
13847TIP3    H262957   6.384   0.876  16.467  0.6377  0.4130 -0.1538
13848TIP3   OH262958   2.594   3.118  12.661  0.1491 -0.0095 -0.2722
13848TIP3    H162959   2.687   3.099  12.658  0.1480 -0.4866  1.5393
13848TIP3    H262960   2.552   3.032  12.667 -0.2686  0.2468  0.8327
13849TIP3   OH262961   5.137   3.894  15.075  0.2733 -0.4847 -0.4169
13849TIP3    H162962   5.200   3.871  15.143 -0.7588  0.3754  0.8600
13849TIP3    H262963   5.177   3.968  15.030  0.1482  0.1212  0.4518
13850TIP3   OH262964   0.622   6.505  13.051 -0.1493  0.4724 -0.3425
13850TIP3    H162965   0.603   6.592  13.085  0.3996  0.6282 -0.4117
13850TIP3    H262966   0.540   6.476  13.011 -1.1097 -0.1197  1.9122
13851TIP3   OH262967   2.997   4.891   4.794  0.1825  0.2156  0.2218
13851TIP3    H162968   2.972   4.964   4.851  2.0048  0.0913  1.2688
13851TIP3    H262969   2.948   4.816   4.828  0.6657  0.3116  1.1718
13852TIP3   OH262970   2.125   6.758  11.970 -0.3744  0.1933  0.3213
13852TIP3    H162971   2.192   6.827  11.964  0.1670 -0.2406  1.1365
13852TIP3    H262972   2.149   6.696  11.902  0.9831 -0.7122  1.5472
13853TIP3   OH262973   2.056   5.044  14.257 -0.0797  0.0508  0.0680
13853TIP3    H162974   2.103   5.043  14.340  0.5434  0.0216 -0.2760
13853TIP3    H262975   1.967   5.069  14.280  0.4514  1.6467  0.5772
13854TIP3   OH262976   0.617   5.084  11.202 -0.0408 -0.1899  0.6072
13854TIP3    H162977   0.548   5.113  11.142  2.7690  0.7808 -2.4691
13854TIP3    H262978   0.639   4.996  11.172  2.6604  0.9883 -1.2794
13855TIP3   OH262979   1.875   3.672  14.165 -0.3963  0.1725  0.5616
13855TIP3    H162980   1.816   3.609  14.125 -2.0414 -0.1470  3.2280
13855TIP3    H262981   1.963   3.642  14.140 -1.1944 -2.1812  0.3475
13856TIP3   OH262982   0.679   0.185  11.200  0.1554 -0.2191 -0.2302
13856TIP3    H162983   0.769   0.216  11.210 -0.7330  1.9948  1.8536
13856TIP3    H262984   0.664   0.127  11.274 -0.8393  1.5073  1.0099
13857TIP3   OH262985   4.625   3.871   3.645  0.3214 -0.4154 -0.0834
13857TIP3    H162986   4.674   3.893   3.566 -0.3840 -1.3026 -0.7873
13857TIP3    H262987   4.541   3.838   3.613  0.4337 -1.8343  0.9886
13858TIP3   OH262988   3.389   4.071   0.837  0.1702  0.3409  0.8548
13858TIP3    H162989   3.421   4.008   0.772  1.1524  1.6989 -0.0313
13858TIP3    H262990   3.449   4.145   0.830 -1.3016  1.6507  1.4285
13859TIP3   OH262991   1.473   1.406  15.559  0.3390 -0.1899  0.0295
13859TIP3    H162992   1.486   1.331  15.618 -1.0840 -0.3208  0.2128
13859TIP3    H262993   1.499   1.482  15.611 -0.6119 -0.3350  0.7614
13860TIP3   OH262994   1.228   2.494   5.326 -0.3693  0.2700 -0.7772
13860TIP3    H162995   1.250   2.584   5.303 -0.3744  0.2628 -0.8093
13860TIP3    H262996   1.311   2.456   5.356 -0.2579  0.1273 -1.2680
13861TIP3   OH262997   4.277   4.160   0.762 -0.7561  0.1360 -0.3341
13861TIP3    H162998   4.202   4.143   0.820 -0.7089  0.7508 -0.0863
13861TIP3    H262999   4.256   4.112   0.682 -0.3145 -1.6183  0.5665
13862TIP3   OH263000   4.164   6.584   5.338 -0.1102 -0.1942 -0.1839
13862TIP3    H163001   4.216   6.660   5.311 -0.4292 -0.0472 -0.3922
13862TIP3    H263002   4.075   6.607   5.313 -0.1193 -0.9028 -0.8410
13863TIP3   OH263003   4.941   1.769   6.322 -0.3928  0.0423  0.2925
13863TIP3    H163004   4.848   1.787   6.311 -0.0420  1.9663  0.1375
13863TIP3    H263005   4.949   1.738   6.412 -1.2591 -0.9300  0.0611
13864TIP3   OH263006   1.478   6.264  11.785 -0.2524  0.3590  0.6940
13864TIP3    H163007   1.443   6.214  11.858 -1.4392 -3.6492 -2.2674
13864TIP3    H263008   1.562   6.222  11.765  0.3490  1.7791  0.1108
13865TIP3   OH263009   4.211   2.419  14.114 -0.0969 -0.1249 -0.5709
13865TIP3    H163010   4.220   2.473  14.192 -2.0810  0.6001 -0.7837
13865TIP3    H263011   4.287   2.441  14.061  0.3923  0.6408  0.4151
13866TIP3   OH263012   1.981   5.598   2.751  0.3530 -0.0945 -0.0720
13866TIP3    H163013   1.927   5.604   2.672  0.3363  1.8616  0.0412
13866TIP3    H263014   1.919   5.576   2.821 -0.2471  1.5103 -0.0524
13867TIP3   OH263015   0.600   4.937  15.762 -0.0879 -0.1319  0.5930
13867TIP3    H163016   0.577   5.024  15.794 -1.4803 -0.8373  1.6315
13867TIP3    H263017   0.518   4.903  15.726  1.0141 -0.0539 -2.2748
13868TIP3   OH263018   4.445   3.899  13.215  0.7175  0.4164  0.5294
13868TIP3    H163019   4.422   3.969  13.276  1.8685  0.6526  0.7189
13868TIP3    H263020   4.519   3.855  13.256  0.7485 -0.1752 -0.1418
13869TIP3   OH263021   0.775   3.413  16.475  0.3424  0.0766 -0.3124
13869TIP3    H163022   0.811   3.443  16.391  0.0794  1.2763 -0.0260
13869TIP3    H263023   0.686   3.385  16.455  1.5399 -3.5756 -1.1551
13870TIP3   OH263024   1.996   4.298  14.676 -0.0317  0.4641 -0.1100
13870TIP3    H163025   1.936   4.336  14.740 -1.8563  0.6756 -1.8327
13870TIP3    H263026   2.083   4.313  14.712 -0.9505  1.0994  1.9944
13871TIP3   OH263027   3.774   4.173   0.186  0.2375  0.1489  0.0489
13871TIP3    H163028   3.823   4.234   0.241 -1.6326  1.0245  0.8550
13871TIP3    H263029   3.682   4.192   0.206 -0.4436 -1.4654 -1.3113
13872TIP3   OH263030   6.066   0.260  17.333 -0.1114  0.0982 -0.2442
13872TIP3    H163031   5.990   0.234  17.385 -1.3620  1.0021 -1.5296
13872TIP3    H263032   6.070   0.356  17.342  0.7650  0.0830 -0.3424
13873TIP3   OH263033   4.651   5.231   2.835 -0.4269 -0.0625 -0.1595
13873TIP3    H163034   4.611   5.293   2.896 -0.1551  1.0127 -1.0347
13873TIP3    H263035   4.591   5.229   2.761  0.1461  0.0606 -0.6372
13874TIP3   OH263036   6.419   2.080   3.524 -0.2385 -0.3217 -0.0478
13874TIP3    H163037   6.353   2.116   3.465 -1.7239 -2.1621  0.3893
13874TIP3    H263038   6.502   2.088   3.477 -0.6969  2.1954 -0.5474
13875TIP3   OH263039   1.624   3.521  10.444 -0.1492 -0.1830  0.5913
13875TIP3    H163040   1.654   3.576  10.517 -1.6375  0.0549  1.0645
13875TIP3    H263041   1.671   3.438  10.456 -0.5311 -0.2288  1.9752
13876TIP3   OH263042   5.526   0.752  11.880 -0.4399  0.9181  0.3390
13876TIP3    H163043   5.486   0.689  11.939  1.6276 -1.2135 -0.3716
13876TIP3    H263044   5.518   0.711  11.793  0.8294  1.6998 -0.1667
13877TIP3   OH263045   5.128   2.904  12.753  0.3729 -0.3330  0.3847
13877TIP3    H163046   5.132   2.927  12.660  0.6944  0.6691  0.6272
13877TIP3    H263047   5.183   2.970  12.796 -2.6855  1.6149  1.6905
13878TIP3   OH263048   6.296   6.057   3.919  0.2119 -0.1063 -0.0953
13878TIP3    H163049   6.257   6.109   3.989  2.0661  2.2817 -0.7101
13878TIP3    H263050   6.357   5.998   3.965 -0.4438 -0.3548  0.4713
13879TIP3   OH263051   1.638   4.463  14.288  0.1949 -0.0988  0.2147
13879TIP3    H163052   1.590   4.461  14.205  2.8784 -2.5903 -1.4722
13879TIP3    H263053   1.621   4.377  14.328  0.2267  0.4616  1.4835
13880TIP3   OH263054   0.610   3.982  14.008 -0.2345 -0.2231  0.3143
13880TIP3    H163055   0.660   3.919  13.957 -0.5126 -0.7406  0.6781
13880TIP3    H263056   0.627   3.959  14.099 -1.4683 -0.6869  0.4452
13881TIP3   OH263057   5.912   1.267   0.221 -0.6506 -0.1096 -0.1174
13881TIP3    H163058   5.952   1.320   0.290 -0.3496  1.6848 -1.6098
13881TIP3    H263059   5.855   1.206   0.268 -1.7105  2.1003  1.6337
13882TIP3   OH263060   2.120   4.014   4.799  0.0935  0.5531  0.3108
13882TIP3    H163061   2.139   3.942   4.860 -1.5031 -0.9334 -0.8324
13882TIP3    H263062   2.205   4.035   4.760  0.3238 -2.4219 -1.0595
13883TIP3   OH263063   5.253   3.898   0.327 -0.2061  0.5723  0.6493
13883TIP3    H163064   5.267   3.915   0.421  2.5335 -1.2744  0.6828
13883TIP3    H263065   5.257   3.985   0.287  1.0172  1.2048  2.0196
13884TIP3   OH263066   2.035   6.744   3.993  0.3734 -0.4696  0.2742
13884TIP3    H163067   2.033   6.678   3.924 -1.2831 -0.2340  0.0445
13884TIP3    H263068   1.943   6.769   4.004  0.8470  0.9904  1.1266
13885TIP3   OH263069   0.974   3.668  15.397 -0.0063 -0.4775  0.3871
13885TIP3    H163070   0.973   3.760  15.424 -2.2947 -0.5995  0.9176
13885TIP3    H263071   0.989   3.620  15.478  0.0256 -0.6224  0.2945
13886TIP3   OH263072   4.502   1.908  15.194 -0.3803 -0.2059  0.4844
13886TIP3    H163073   4.446   1.898  15.271  0.6257 -0.3334  1.2240
13886TIP3    H263074   4.587   1.932  15.230 -0.0306  0.2816 -0.6336
13887TIP3   OH263075   5.955   2.367   5.698 -0.1955  0.2133  0.2161
13887TIP3    H163076   5.964   2.285   5.649  2.8917  1.1151 -1.0189
13887TIP3    H263077   5.988   2.348   5.785 -1.5841 -0.3437  0.6419
13888TIP3   OH263078   0.331   5.010   3.837 -0.3547  0.3097  0.2669
13888TIP3    H163079   0.369   5.019   3.750  0.9013  1.5119  0.9118
13888TIP3    H263080   0.311   5.100   3.864 -1.1456 -0.0829  1.0528
13889TIP3   OH263081   1.242   1.334  14.424  0.1605  0.2090  0.6206
13889TIP3    H163082   1.249   1.328  14.328 -1.9581 -1.1499  0.4942
13889TIP3    H263083   1.307   1.272  14.456  0.3770  0.1345  0.0549
13890TIP3   OH263084   4.710   5.565   2.178  0.0533  0.4282 -0.1555
13890TIP3    H163085   4.724   5.557   2.273 -1.9583  1.4979  0.2805
13890TIP3    H263086   4.795   5.594   2.144  0.1824  2.4828  1.6987
13891TIP3   OH263087   2.170   1.961  12.276  0.1269 -0.1884  0.1846
13891TIP3    H163088   2.264   1.976  12.280  0.1424  0.2875 -1.5665
13891TIP3    H263089   2.160   1.877  12.231 -0.2792 -0.9448  1.5974
13892TIP3   OH263090   1.399   0.477   1.314  0.2762 -0.0942  0.1523
13892TIP3    H163091   1.433   0.520   1.393  1.3173  0.4328 -0.5610
13892TIP3    H263092   1.475   0.470   1.256 -0.2517 -1.3657 -0.4325
13893TIP3   OH263093   2.117   4.950   1.122 -0.3837  0.2248  0.8113
13893TIP3    H163094   2.172   4.873   1.109 -0.5639  0.1699  0.3450
13893TIP3    H263095   2.151   5.015   1.060 -1.0175  0.0933  0.3108
13894TIP3   OH263096   0.608   3.080   3.372  0.0932  0.3166  0.3098
13894TIP3    H163097   0.658   3.033   3.306 -1.6422  0.7900 -1.4349
13894TIP3    H263098   0.532   3.024   3.390 -1.7722  2.0689 -1.4848
13895TIP3   OH263099   5.494   1.442   4.301  0.2264  0.2837  0.1687
13895TIP3    H163100   5.589   1.437   4.295  0.2400  0.2688  0.3796
13895TIP3    H263101   5.469   1.507   4.235  0.4565  0.8851  0.6696
13896TIP3   OH263102   2.594   4.745  15.620 -0.6558 -0.3976 -0.0112
13896TIP3    H163103   2.662   4.762  15.555 -0.2524 -1.6957  0.0357
13896TIP3    H263104   2.642   4.724  15.700 -1.1416  2.2186  1.0642
13897TIP3   OH263105   5.923   2.642   5.592 -0.2645  0.1361  0.1196
13897TIP3    H163106   5.942   2.697   5.667 -0.3258 -0.6780  0.7402
13897TIP3    H263107   5.923   2.552   5.626  2.1854 -0.5094 -1.2784
13898TIP3   OH263108   4.610   1.098   2.339 -0.0138 -0.3622 -0.0537
13898TIP3    H163109   4.573   1.100   2.251 -1.0275  1.2992  0.3525
13898TIP3    H263110   4.576   1.178   2.380 -0.4353 -1.6307  2.1949
13899TIP3   OH263111   6.690   6.319  16.672  0.1747  0.3704 -0.4050
13899TIP3    H163112   6.632   6.357  16.605  0.2746 -0.4784 -0.9827
13899TIP3    H263113   6.720   6.395  16.722 -2.6800  0.7613  0.9763
13900TIP3   OH263114   5.956   4.899   3.273 -0.4013  0.0067 -0.0831
13900TIP3    H163115   5.983   4.868   3.187 -1.5888 -0.1118 -0.4320
13900TIP3    H263116   5.961   4.994   3.267 -1.3316  0.0359 -0.5936
13901TIP3   OH263117   6.198   5.998   5.430 -0.0464 -0.0023 -0.1945
13901TIP3    H163118   6.253   5.952   5.493  1.2060  1.1089 -0.4300
13901TIP3    H263119   6.240   5.982   5.345  0.3293  1.4195 -0.2929
13902TIP3   OH263120   5.567   6.438   2.486  0.0037  0.1482 -0.3133
13902TIP3    H163121   5.551   6.344   2.479 -2.2633  0.5569 -1.6265
13902TIP3    H263122   5.607   6.462   2.403  1.0658  0.3230  0.2163
13903TIP3   OH263123   6.534   1.138  11.760 -0.0937 -0.2952 -0.1902
13903TIP3    H163124   6.540   1.066  11.824 -0.1049 -1.0326 -0.9988
13903TIP3    H263125   6.617   1.133  11.712 -0.2753 -0.0226 -0.5311
13904TIP3   OH263126   4.953   0.509   2.422  0.2466 -0.0292  0.2597
13904TIP3    H163127   4.956   0.566   2.498  0.5056 -0.4810  0.5892
13904TIP3    H263128   4.869   0.463   2.430 -0.8057  1.5779 -0.9445
13905TIP3   OH263129   5.047   1.239   1.521  0.3131  0.2702  0.0591
13905TIP3    H163130   4.967   1.237   1.574  0.1950  0.2264 -0.1181
13905TIP3    H263131   5.068   1.332   1.513  0.0863  0.3029 -0.1781
13906TIP3   OH263132   6.247   5.511   0.174  0.7590 -0.3338 -0.4924
13906TIP3    H163133   6.185   5.468   0.115  0.3198 -1.0835  0.4730
13906TIP3    H263134   6.323   5.454   0.176  0.6739 -0.4375 -0.1515
13907TIP3   OH263135   5.352   2.275   6.029 -0.4659 -0.6172  0.0047
13907TIP3    H163136   5.363   2.361   5.987 -0.1510 -0.8058 -0.2986
13907TIP3    H263137   5.441   2.247   6.050 -0.5762 -0.8294  0.1955
13908TIP3   OH263138   3.494   0.710   3.248 -0.2293 -0.5850  0.5239
13908TIP3    H163139   3.418   0.653   3.255  0.2184 -1.2751 -0.0740
13908TIP3    H263140   3.458   0.798   3.238 -0.9227 -0.6725  2.0933
13909TIP3   OH263141   2.688   6.056  12.981  0.1646  0.1456 -0.0376
13909TIP3    H163142   2.733   6.136  13.008 -0.7041  0.3602  0.7959
13909TIP3    H263143   2.748   6.016  12.917  1.1822  0.8117  0.4693
13910TIP3   OH263144   5.155   2.115  14.860 -0.2291  0.2210  0.2115
13910TIP3    H163145   5.082   2.062  14.830 -0.6523  1.0712 -0.3090
13910TIP3    H263146   5.232   2.062  14.842 -0.7342 -0.9389  1.2983
13911TIP3   OH263147   6.387   0.899  14.836 -0.1445 -0.4578 -0.2505
13911TIP3    H163148   6.291   0.897  14.835 -0.2074  1.2171 -0.9454
13911TIP3    H263149   6.413   0.832  14.773 -0.9510  0.9041 -2.1075
13912TIP3   OH263150   4.662   6.452  13.263 -0.5079  0.2466 -0.5322
13912TIP3    H163151   4.656   6.494  13.177 -0.3894  0.0028 -0.6584
13912TIP3    H263152   4.697   6.520  13.321 -0.8281  0.4906 -0.6203
13913TIP3   OH263153   3.789   0.226  15.405  0.8388 -0.6177 -0.1278
13913TIP3    H163154   3.810   0.250  15.495 -0.0523  1.0941 -0.3429
13913TIP3    H263155   3.700   0.258  15.391  0.2301 -2.5119 -1.0561
13914TIP3   OH263156   3.741   1.389   6.067 -0.4791 -0.1100  0.4746
13914TIP3    H163157   3.679   1.432   6.007 -0.6979 -1.3877 -0.2554
13914TIP3    H263158   3.702   1.303   6.084  0.6483 -0.5836  0.7406
13915TIP3   OH263159   4.405   6.349   2.275  0.4306 -0.7311 -0.2523
13915TIP3    H163160   4.444   6.335   2.189  0.5956  1.1402 -0.5015
13915TIP3    H263161   4.468   6.402   2.322 -0.5889  0.0445  0.2782
13916TIP3   OH263162   4.164   2.925  10.686 -0.5598  0.3601 -0.2566
13916TIP3    H163163   4.213   2.869  10.746  0.7899  1.5245 -0.1904
13916TIP3    H263164   4.072   2.907  10.704 -0.2702  1.6660  3.1909
13917TIP3   OH263165   2.622   6.038  16.554  0.0340  0.0825 -0.6264
13917TIP3    H163166   2.578   6.113  16.594  0.1793 -0.3161  0.3224
13917TIP3    H263167   2.593   5.963  16.607  0.6339 -0.3956 -0.9608
13918TIP3   OH263168   1.499   3.502   0.460  0.3325  0.2108 -0.2140
13918TIP3    H163169   1.547   3.511   0.542 -1.7387 -0.2416  1.1454
13918TIP3    H263170   1.415   3.462   0.486 -1.5899  2.6900 -2.0989
13919TIP3   OH263171   1.997   5.954  17.098  0.2573  0.4731  0.0989
13919TIP3    H163172   2.045   6.000  17.029  0.4485 -2.8241 -2.2233
13919TIP3    H263173   2.062   5.896  17.137 -1.0737 -2.1580 -1.2987
13920TIP3   OH263174   6.659   6.373   2.790  0.5121  0.3714 -0.7257
13920TIP3    H163175   6.612   6.290   2.781  1.0983  0.0455 -0.8256
13920TIP3    H263176   6.603   6.427   2.846  1.3268 -1.0353  1.5631
13921TIP3   OH263177   4.191   2.838   4.932 -0.3184 -0.5497  0.4186
13921TIP3    H163178   4.278   2.798   4.930 -0.2447 -0.4265 -2.1664
13921TIP3    H263179   4.134   2.773   4.892 -0.5893  0.9791 -1.8402
13922TIP3   OH263180   5.682   4.698   0.398 -0.1181  0.6706  0.0874
13922TIP3    H163181   5.709   4.610   0.423 -1.5896 -0.3858 -1.7924
13922TIP3    H263182   5.599   4.712   0.443 -0.6579  0.4532 -0.8207
13923TIP3   OH263183   2.945   4.883  12.275  0.0070  0.0383  0.2238
13923TIP3    H163184   2.943   4.790  12.298  0.1440  0.2513  1.1518
13923TIP3    H263185   2.853   4.906  12.264 -0.0486 -0.1330  0.3149
13924TIP3   OH263186   5.109   2.202  11.745 -0.1265 -0.3417 -0.0815
13924TIP3    H163187   5.028   2.175  11.789 -0.6803  2.2680  0.6832
13924TIP3    H263188   5.078   2.243  11.663  0.3897  0.6905  0.2267
13925TIP3   OH263189   6.136   6.653   4.536 -0.1304  0.1744 -0.3952
13925TIP3    H163190   6.046   6.666   4.566  0.5381  0.4639  1.6755
13925TIP3    H263191   6.162   6.737   4.500  0.0021  0.7931  1.0747
13926TIP3   OH263192   6.510   3.100   3.250  0.5523 -0.1481  0.0530
13926TIP3    H163193   6.586   3.093   3.192 -0.1313  1.5403 -1.1036
13926TIP3    H263194   6.486   3.009   3.268  1.3863 -0.7224 -1.5094
13927TIP3   OH263195   5.868   2.139  16.875  0.0415 -0.0884 -0.8293
13927TIP3    H163196   5.877   2.129  16.780  1.0967 -1.2356 -0.6313
13927TIP3    H263197   5.798   2.078  16.898 -0.0440  0.0063 -0.8391
13928TIP3   OH263198   1.395   4.655  17.337 -0.0007  0.0484 -0.0238
13928TIP3    H163199   1.462   4.699  17.284 -0.5307  2.2075  1.0164
13928TIP3    H263200   1.444   4.601  17.398  0.7436  0.6935 -0.0448
13929TIP3   OH263201   0.012   1.736  16.701 -0.3139  0.1078  0.5490
13929TIP3    H163202  -0.071   1.691  16.711 -0.9386  0.3097 -2.6740
13929TIP3    H263203   0.077   1.665  16.699 -0.6570 -0.2234  0.9134
13930TIP3   OH263204   3.201   5.810  12.698  0.0835  0.3649  0.1583
13930TIP3    H163205   3.116   5.848  12.676 -0.2005 -0.7862 -0.8265
13930TIP3    H263206   3.182   5.717  12.711  1.1810  0.1178  0.0192
13931TIP3   OH263207   1.081   2.466  14.359  0.1449  0.1970  0.6916
13931TIP3    H163208   1.003   2.478  14.414 -1.0463  0.1861 -0.9479
13931TIP3    H263209   1.143   2.421  14.416 -1.8304 -1.8158  1.3915
13932TIP3   OH263210   5.842   5.294   1.233  0.3964  0.3470 -0.1113
13932TIP3    H163211   5.931   5.329   1.241  0.5253  0.6742 -2.4817
13932TIP3    H263212   5.804   5.341   1.159 -2.0762  0.7868  1.3380
13933TIP3   OH263213   4.445   5.488  15.670 -0.3915  0.4267  0.3497
13933TIP3    H163214   4.525   5.498  15.619 -1.4195 -1.5202 -1.8525
13933TIP3    H263215   4.469   5.514  15.759  2.2340  1.3568 -0.5475
13934TIP3   OH263216   2.398   5.037  11.383 -0.1931 -0.9529  0.2818
13934TIP3    H163217   2.457   4.995  11.445  1.5957  0.5939 -0.2785
13934TIP3    H263218   2.317   5.051  11.432  1.7737  2.1300  3.1288
13935TIP3   OH263219   6.194   3.312  11.351 -0.3601  0.6169 -0.0208
13935TIP3    H163220   6.206   3.280  11.441  0.9560 -0.0966 -0.4233
13935TIP3    H263221   6.279   3.350  11.328 -1.5462  3.5684  0.0664
13936TIP3   OH263222   5.081   6.631  15.311 -0.5676 -0.6933  0.4399
13936TIP3    H163223   5.151   6.566  15.301  0.3606  0.2288  0.7492
13936TIP3    H263224   5.009   6.582  15.350 -0.8843 -2.1612 -1.7934
13937TIP3   OH263225   0.566   6.701   0.532  0.3153 -0.4255  0.1801
13937TIP3    H163226   0.504   6.661   0.592  0.3087 -1.5057 -0.5217
13937TIP3    H263227   0.549   6.658   0.448  1.5652 -0.2763 -0.1668
13938TIP3   OH263228   2.073   1.225  15.712 -0.4114 -0.3516 -0.1345
13938TIP3    H163229   2.130   1.220  15.636  0.6643 -0.8265  0.6729
13938TIP3    H263230   1.989   1.257  15.678  0.6560  1.4485 -1.1640
13939TIP3   OH263231   0.595   2.301  12.134  0.0248 -0.0805 -0.0762
13939TIP3    H163232   0.646   2.289  12.215  1.5544  3.2504 -0.3994
13939TIP3    H263233   0.659   2.290  12.064 -0.8458 -0.8092 -0.7831
13940TIP3   OH263234   3.037   5.328   3.475 -0.6642 -0.4208  0.3087
13940TIP3    H163235   3.012   5.242   3.510 -1.1154 -0.3759  0.1140
13940TIP3    H263236   3.121   5.347   3.515 -0.4996 -1.0127  0.2551
13941TIP3   OH263237   4.456   2.516  13.435  0.3535  0.3124 -0.4270
13941TIP3    H163238   4.439   2.609  13.447  1.2116  0.5680 -1.0681
13941TIP3    H263239   4.369   2.476  13.429 -0.0222  1.1673 -0.8343
13942TIP3   OH263240   1.195   5.696  16.672  0.0105 -0.6467  0.1234
13942TIP3    H163241   1.285   5.674  16.649 -0.5689 -1.1566 -1.8572
13942TIP3    H263242   1.166   5.624  16.729  1.2836  0.3074  2.0974
13943TIP3   OH263243   4.986   0.918   0.147 -0.1404  0.6800 -0.1716
13943TIP3    H163244   4.993   0.972   0.226  2.6365  1.1132 -0.5980
13943TIP3    H263245   5.029   0.835   0.170 -1.9283 -0.3529 -0.3748
13944TIP3   OH263246   2.604   6.498  11.567 -0.0875  0.6060  0.1545
13944TIP3    H163247   2.622   6.575  11.621 -1.0370  2.2042 -1.6693
13944TIP3    H263248   2.509   6.486  11.573 -0.3178  1.2229 -1.5773
13945TIP3   OH263249   5.090   3.974   5.521  0.1512 -0.1793 -0.3748
13945TIP3    H163250   5.163   4.009   5.572  0.4974 -1.4758  0.0638
13945TIP3    H263251   5.028   4.046   5.514  0.5521  0.3256  1.0444
13946TIP3   OH263252   0.571   5.531  16.728  0.1187  0.4138  0.7549
13946TIP3    H163253   0.491   5.541  16.780 -0.4994 -2.0416  0.3815
13946TIP3    H263254   0.618   5.460  16.771  0.8178  0.0409 -0.5931
13947TIP3   OH263255   5.343   5.199   3.172  0.4305  0.0723 -0.0175
13947TIP3    H163256   5.431   5.199   3.135 -0.2389 -1.7944 -1.8272
13947TIP3    H263257   5.309   5.286   3.154  0.6699 -0.3059 -2.6453
13948TIP3   OH263258   4.736   2.423  11.636  0.4044  0.1498 -0.6730
13948TIP3    H163259   4.815   2.403  11.586  1.5646  1.4372  0.5798
13948TIP3    H263260   4.665   2.408  11.574  1.7238  0.5615 -2.3592
13949TIP3   OH263261   3.364   5.445  10.925  0.3808 -0.0117 -0.1788
13949TIP3    H163262   3.408   5.365  10.897 -0.5559 -1.1670  1.5009
13949TIP3    H263263   3.308   5.418  10.998 -1.4456  1.8084 -0.8088
13950TIP3   OH263264   3.069   2.345  14.529 -0.0240  0.2376 -0.4794
13950TIP3    H163265   3.064   2.254  14.498 -0.1389  0.4679 -1.1542
13950TIP3    H263266   3.118   2.391  14.461  0.6577  0.5410  0.2060
13951TIP3   OH263267   5.896   1.809   5.432 -0.3148  0.6586 -0.1631
13951TIP3    H163268   5.825   1.863   5.396 -0.3614 -0.0492 -1.1489
13951TIP3    H263269   5.975   1.845   5.393  0.0391  2.1279  1.7332
13952TIP3   OH263270   3.395   4.713   4.215 -0.5370  0.3211  0.4618
13952TIP3    H163271   3.424   4.643   4.274  0.1605 -1.5447 -1.9063
13952TIP3    H263272   3.470   4.728   4.157 -2.4829 -1.0952 -2.6839
13953TIP3   OH263273   4.612   1.741  11.709  0.2072 -0.2758 -0.1379
13953TIP3    H163274   4.536   1.722  11.764  0.5826  0.3487  0.6203
13953TIP3    H263275   4.661   1.659  11.707  0.5430 -0.1226  1.0392
13954TIP3   OH263276   2.190   1.234   0.332 -0.4268 -0.0805  0.2456
13954TIP3    H163277   2.198   1.271   0.244  2.7141  0.4531  0.6239
13954TIP3    H263278   2.139   1.300   0.381  0.3468  1.0819 -0.4632
13955TIP3   OH263279   4.411   6.189   4.795  0.0335  0.1004 -0.3353
13955TIP3    H163280   4.335   6.174   4.852 -1.5511 -1.9296 -2.7267
13955TIP3    H263281   4.465   6.111   4.807  1.7465  1.4574  1.2188
13956TIP3   OH263282   3.601   3.750   5.248  0.0282 -0.1377 -0.3468
13956TIP3    H163283   3.620   3.774   5.157  2.1389  0.8287  0.3006
13956TIP3    H263284   3.686   3.747   5.291 -0.8782 -1.0293  1.5266
13957TIP3   OH263285   6.491   5.476   5.411 -0.1033 -1.0046 -0.4285
13957TIP3    H163286   6.560   5.424   5.452 -0.1316 -1.1657 -0.5867
13957TIP3    H263287   6.536   5.529   5.346  0.2615  0.7329  1.1510
13958TIP3   OH263288   4.509   0.534  16.126  0.1314  0.0806  0.3601
13958TIP3    H163289   4.529   0.484  16.047  0.9881 -1.0573  1.2608
13958TIP3    H263290   4.589   0.582  16.145 -0.2510  0.7797  0.2523
13959TIP3   OH263291   2.891   2.691   0.085 -0.0821  0.4550 -0.1169
13959TIP3    H163292   2.968   2.732   0.124  0.1694  0.7560 -0.9278
13959TIP3    H263293   2.925   2.615   0.038 -0.3720  0.1708  0.1248
13960TIP3   OH263294   5.277   5.241   3.803 -0.0411 -0.5164  0.5676
13960TIP3    H163295   5.234   5.326   3.804  0.5546 -0.1387 -1.5024
13960TIP3    H263296   5.319   5.236   3.717  0.4852 -2.6318  0.8876
13961TIP3   OH263297   5.129   4.701   1.546  0.1629 -0.2865  0.0908
13961TIP3    H163298   5.042   4.679   1.513  0.3597 -0.5172 -0.2939
13961TIP3    H263299   5.115   4.776   1.603 -0.1110  0.5344 -1.0117
13962TIP3   OH263300   5.175   4.584   4.117  0.8013 -0.7659  0.3162
13962TIP3    H163301   5.103   4.574   4.055  0.5460 -0.4950  0.5661
13962TIP3    H263302   5.155   4.523   4.187  0.5749 -0.3627  0.6059
13963TIP3   OH263303   2.144   2.831  16.821  0.6387  0.2667  0.1827
13963TIP3    H163304   2.229   2.815  16.861 -0.5381 -2.2928  1.9458
13963TIP3    H263305   2.128   2.753  16.767 -1.7275 -0.7619  2.1792
13964TIP3   OH263306   4.177   1.478  11.630  0.1805  0.5019 -0.0716
13964TIP3    H163307   4.119   1.436  11.567  0.5910  0.9771 -0.7688
13964TIP3    H263308   4.221   1.547  11.581  1.8409 -0.2791  0.2642
13965TIP3   OH263309   0.629   1.755   1.452  0.3073  0.9539  0.3918
13965TIP3    H163310   0.684   1.702   1.394 -0.1054  1.9967 -1.0109
13965TIP3    H263311   0.649   1.724   1.540  0.8511 -0.7899 -0.3115
13966TIP3   OH263312   2.880   0.505  13.873  0.0100 -0.3228 -0.2550
13966TIP3    H163313   2.850   0.535  13.787 -3.0419 -0.1969  0.7397
13966TIP3    H263314   2.824   0.430  13.893 -1.2495  1.2207  2.6471
13967TIP3   OH263315   5.856   5.282   4.638  0.3958 -0.0626 -0.4135
13967TIP3    H163316   5.766   5.261   4.662 -0.4478 -0.5614 -3.5221
13967TIP3    H263317   5.909   5.239   4.704 -1.5721  1.2753  2.2538
13968TIP3   OH263318   2.376   2.273   1.457 -0.2723 -0.0490  0.1250
13968TIP3    H163319   2.397   2.367   1.456  1.8377 -0.4741 -0.1923
13968TIP3    H263320   2.335   2.260   1.543 -1.3007  1.2740 -0.1221
13969TIP3   OH263321   2.793   6.224   5.483 -0.2732 -0.2859 -0.3902
13969TIP3    H163322   2.799   6.288   5.413 -0.2101 -2.5142 -2.5271
13969TIP3    H263323   2.878   6.228   5.527 -0.9315  2.4039  0.8699
13970TIP3   OH263324   5.438   3.771   3.684  0.1964 -0.3291  0.1424
13970TIP3    H163325   5.496   3.721   3.741  1.6682 -0.8503 -1.7327
13970TIP3    H263326   5.387   3.704   3.638 -0.6410  0.0789  0.4445
13971TIP3   OH263327   6.371   1.999  15.469  0.7480 -0.0342 -0.2147
13971TIP3    H163328   6.327   1.948  15.538  1.6377 -3.2484 -1.8056
13971TIP3    H263329   6.461   1.967  15.470  1.3934  1.6239 -1.3310
13972TIP3   OH263330   5.997   6.302   5.180  0.0658 -0.0971  0.3340
13972TIP3    H163331   6.044   6.288   5.261  0.5805 -0.9936 -0.1103
13972TIP3    H263332   5.904   6.301   5.205  0.2163 -0.4914  0.8783
13973TIP3   OH263333   2.864   4.485   5.374  0.0557  0.0284 -0.4894
13973TIP3    H163334   2.885   4.537   5.452 -0.6596 -1.3414  0.6731
13973TIP3    H263335   2.921   4.409   5.380 -0.0648 -0.1288 -1.2815
13974TIP3   OH263336   3.169   5.583  11.456  0.6504  0.4996 -0.3284
13974TIP3    H163337   3.223   5.621  11.386 -0.8102  2.3389 -0.5232
13974TIP3    H263338   3.080   5.586  11.421 -0.0072  0.6821  1.2913
13975TIP3   OH263339   4.663   3.986   1.304  0.0228  0.0197  0.2697
13975TIP3    H163340   4.751   3.948   1.303  0.3223  0.6278  1.7352
13975TIP3    H263341   4.621   3.950   1.226  1.1998 -1.1436  0.1341
13976TIP3   OH263342   2.608   1.057  11.965 -0.1381  0.1190  0.1641
13976TIP3    H163343   2.590   1.149  11.982 -0.0093  0.0498  0.6788
13976TIP3    H263344   2.534   1.010  12.003  1.2630 -0.1996  2.6957
13977TIP3   OH263345   0.182   6.107   4.541  0.0921 -0.2623  1.1471
13977TIP3    H163346   0.187   6.045   4.468 -1.5483  2.0031 -1.0679
13977TIP3    H263347   0.247   6.075   4.603  0.9811 -2.8322 -0.8826
13978TIP3   OH263348   0.371   2.580  14.829  0.0993  0.7113  0.2588
13978TIP3    H163349   0.328   2.559  14.912 -0.6086  0.1072 -0.2463
13978TIP3    H263350   0.396   2.672  14.838 -0.1021  0.6942  1.0847
13979TIP3   OH263351   4.061   0.924   6.230  0.0866 -0.3726 -1.0729
13979TIP3    H163352   4.048   0.920   6.325 -1.6529 -1.0560 -1.2937
13979TIP3    H263353   4.155   0.938   6.219  0.5069 -1.4315  0.7411
13980TIP3   OH263354   3.093   1.141  16.677  0.5382  0.3347 -0.3797
13980TIP3    H163355   3.080   1.098  16.592 -0.9726  1.8357 -0.9705
13980TIP3    H263356   3.142   1.221  16.655  1.9565 -0.2690  0.4796
13981TIP3   OH263357   0.873   0.754   4.369  0.6512  0.8034 -0.2254
13981TIP3    H163358   0.948   0.762   4.427  0.9857  1.7870 -0.7724
13981TIP3    H263359   0.799   0.785   4.422 -0.1320 -3.4360  1.5841
13982TIP3   OH263360   4.751   0.621  16.160 -0.0468 -0.2293 -0.3838
13982TIP3    H163361   4.808   0.698  16.160  0.0933 -0.3319  0.3685
13982TIP3    H263362   4.783   0.567  16.231 -1.0745 -0.3012  0.0418
13983TIP3   OH263363   0.113   2.800  11.138 -0.3469 -0.6659 -0.1036
13983TIP3    H163364   0.108   2.803  11.234  2.6342 -0.1151  0.1184
13983TIP3    H263365   0.196   2.756  11.119  0.3971  1.4754 -2.3726
13984TIP3   OH263366   3.224   0.500  16.441  0.5591 -0.1725 -0.1631
13984TIP3    H163367   3.143   0.502  16.389  0.0900 -1.6680  0.4536
13984TIP3    H263368   3.255   0.409  16.433  2.7230  0.5932 -1.1768
13985TIP3   OH263369   4.787   0.379  14.128  0.0734  0.1279  0.1198
13985TIP3    H163370   4.876   0.365  14.158 -0.1812  1.3555  1.5896
13985TIP3    H263371   4.793   0.384  14.032  1.5617  0.2197  0.2085
13986TIP3   OH263372   6.747   2.440   2.489  0.1811 -0.1783 -0.3956
13986TIP3    H163373   6.817   2.455   2.427 -0.5716  3.0260 -0.6510
13986TIP3    H263374   6.715   2.352   2.469  2.3656 -0.6809 -2.0052
13987TIP3   OH263375   0.664   4.967   3.030 -0.2602  0.2930 -0.1659
13987TIP3    H163376   0.742   4.914   3.014 -0.2167 -0.2370  1.5928
13987TIP3    H263377   0.591   4.908   3.008 -0.1956  0.5981 -1.2588
13988TIP3   OH263378   3.611   5.777  11.851 -0.1073  0.5011 -0.6467
13988TIP3    H163379   3.618   5.705  11.789 -0.7979  0.4494 -0.6669
13988TIP3    H263380   3.552   5.839  11.809 -1.0492  0.2053  0.2017
13989TIP3   OH263381   1.536   6.506   0.048  0.1646  0.2263 -0.3190
13989TIP3    H163382   1.527   6.598   0.073 -0.7973 -0.4513  2.0616
13989TIP3    H263383   1.595   6.469   0.112  0.8598 -0.7633 -1.4953
13990TIP3   OH263384   5.856   6.294  11.337  0.1248 -0.2412  0.0521
13990TIP3    H163385   5.928   6.269  11.279 -0.3496 -0.7048 -0.3359
13990TIP3    H263386   5.777   6.276  11.287 -0.2962 -0.8303  0.9202
13991TIP3   OH263387   4.935   3.165  13.213 -0.1503  0.4314 -0.2838
13991TIP3    H163388   4.899   3.087  13.255 -1.0380  0.4187 -1.0385
13991TIP3    H263389   4.939   3.143  13.120  1.6057  0.5272 -0.2609
13992TIP3   OH263390   2.787   2.490   2.097 -0.1832 -0.1196  0.0605
13992TIP3    H163391   2.788   2.424   2.028 -0.3147 -0.0668  0.0068
13992TIP3    H263392   2.856   2.551   2.073  2.1680 -1.9155  1.7732
13993TIP3   OH263393   3.872   4.988   3.885 -0.0346  0.2781  0.6032
13993TIP3    H163394   3.846   4.902   3.854 -0.3338  0.9490 -1.0768
13993TIP3    H263395   3.790   5.038   3.889 -0.0487  0.1804  2.7145
13994TIP3   OH263396   5.746   1.577   4.395 -0.7664 -0.1289 -0.0173
13994TIP3    H163397   5.697   1.657   4.376  1.2553  1.5877  1.4596
13994TIP3    H263398   5.721   1.554   4.485 -0.3943 -0.4138  0.0156
13995TIP3   OH263399   1.877   4.435   4.179 -0.0013 -0.4021 -0.3790
13995TIP3    H163400   1.883   4.441   4.274  1.6417 -0.0874 -0.4860
13995TIP3    H263401   1.783   4.440   4.161 -0.2684  0.6824  1.1482
13996TIP3   OH263402   5.807   2.824   0.931  0.8286  0.0232 -0.2097
13996TIP3    H163403   5.767   2.789   1.012  2.0876 -0.0632  0.3973
13996TIP3    H263404   5.792   2.755   0.866  0.2011 -0.1110  0.0680
13997TIP3   OH263405   2.348   1.340   5.279  0.2325 -0.2374  0.5015
13997TIP3    H163406   2.439   1.311   5.279 -0.2847 -2.1570 -1.4077
13997TIP3    H263407   2.299   1.264   5.248 -1.8350  1.2348 -0.0487
13998TIP3   OH263408   5.584   0.241   6.113 -0.8262 -0.0373 -0.3986
13998TIP3    H163409   5.519   0.247   6.183 -0.3990  0.4559 -0.0334
13998TIP3    H263410   5.634   0.322   6.120 -0.7444 -0.0097 -1.2459
13999TIP3   OH263411   4.436   5.106   4.515 -0.5531  0.5891  0.8348
13999TIP3    H163412   4.480   5.058   4.585 -1.0892 -0.6802  0.3324
13999TIP3    H263413   4.428   5.196   4.549  2.0620  0.8091  1.0834
14000TIP3   OH263414   3.866   5.809   5.935  0.4492  0.2085 -0.0898
14000TIP3    H163415   3.853   5.741   6.000 -0.3727  0.7601  0.3405
14000TIP3    H263416   3.950   5.787   5.894  0.0937 -1.1814 -0.1299
14001TIP3   OH263417   1.578   6.012   2.690 -0.5573 -0.7800  0.0279
14001TIP3    H163418   1.543   6.098   2.669 -1.8437 -0.9804  1.1803
14001TIP3    H263419   1.673   6.023   2.688 -0.6875  0.3553 -0.9776
14002TIP3   OH263420   0.595   5.799   0.140  0.2932  0.5391 -0.7794
14002TIP3    H163421   0.645   5.746   0.202  1.3736  0.8806 -1.3431
14002TIP3    H263422   0.506   5.763   0.145  0.1949  0.9146  1.3897
14003TIP3   OH263423   0.470   6.476   5.398  0.1600 -0.6426 -0.3964
14003TIP3    H163424   0.494   6.496   5.488  0.9410 -0.0412 -0.7277
14003TIP3    H263425   0.474   6.561   5.353  1.4943 -1.2015 -1.3861
14004TIP3   OH263426   0.472   4.848  15.382  0.2758 -0.4989  0.1840
14004TIP3    H163427   0.445   4.843  15.474 -1.8306  0.1713 -0.3337
14004TIP3    H263428   0.566   4.864  15.386 -0.1679  2.5905  2.3489
14005TIP3   OH263429   0.704   4.912   1.889 -0.0050 -0.2374  0.0307
14005TIP3    H163430   0.727   4.973   1.819 -1.8108  0.0643 -0.3669
14005TIP3    H263431   0.752   4.832   1.867 -0.2209 -0.0215 -1.3545
14006TIP3   OH263432   5.579   1.655  14.189  0.8251  0.0078 -0.1859
14006TIP3    H163433   5.569   1.654  14.094 -0.1109  0.0802 -0.0981
14006TIP3    H263434   5.605   1.745  14.210  4.3856 -0.7942 -0.6514
14007TIP3   OH263435   4.428   2.265  16.125 -0.0123 -0.1987 -0.4511
14007TIP3    H163436   4.449   2.359  16.120  0.6595 -0.2220  1.2457
14007TIP3    H263437   4.335   2.262  16.144 -0.2094  0.0882 -1.3201
14008TIP3   OH263438   2.892   4.074   1.873  0.1692 -0.1878 -0.3166
14008TIP3    H163439   2.983   4.043   1.868  0.3704  0.1796  0.8529
14008TIP3    H263440   2.846   4.025   1.805  0.8440 -1.7779  0.3273
14009TIP3   OH263441   3.385   6.602  12.675  0.1068  0.7317  0.0412
14009TIP3    H163442   3.479   6.616  12.663  0.2437  0.5420  0.8758
14009TIP3    H263443   3.350   6.603  12.586  0.8312  1.2529 -0.2483
14010TIP3   OH263444   4.540   5.909  16.819  0.1489 -0.1929 -0.4095
14010TIP3    H163445   4.625   5.937  16.853 -0.4340 -0.5212  1.4082
14010TIP3    H263446   4.558   5.824  16.779  0.5908 -0.5059  0.4257
14011TIP3   OH263447   3.361   6.064  12.326  0.3735  0.2262  0.1243
14011TIP3    H163448   3.408   5.994  12.372  2.2307  1.5936  0.4033
14011TIP3    H263449   3.308   6.106  12.394  1.0480  0.5349  0.4712
14012TIP3   OH263450   2.842   5.075   1.367 -0.4661  0.7646 -0.4032
14012TIP3    H163451   2.909   5.082   1.435  1.0485  1.9550 -1.9419
14012TIP3    H263452   2.881   5.018   1.301 -0.9059  1.5648 -1.3753
14013TIP3   OH263453   0.914   1.737  14.148  0.1724  0.2372  0.2104
14013TIP3    H163454   0.923   1.760  14.241 -1.5885 -2.8807  1.3180
14013TIP3    H263455   0.861   1.807  14.111 -0.1227  0.9421  1.8763
14014TIP3   OH263456   3.812   4.807  15.159 -0.2070 -0.4448 -0.1177
14014TIP3    H163457   3.846   4.896  15.165  1.3729 -0.9078 -1.6861
14014TIP3    H263458   3.723   4.813  15.196 -1.6420  2.6064 -3.4891
14015TIP3   OH263459   4.318   2.944   3.250  0.2972 -0.0577  0.3112
14015TIP3    H163460   4.291   2.895   3.328 -1.4880 -0.1057 -0.3055
14015TIP3    H263461   4.394   2.896   3.217  1.2176  0.0617  2.0884
14016TIP3   OH263462   2.155   1.220   1.805 -0.0691  0.4757  0.1749
14016TIP3    H163463   2.248   1.215   1.784 -0.1085 -0.9809  0.1946
14016TIP3    H263464   2.148   1.180   1.892 -0.5782  1.6229  0.6874
14017TIP3   OH263465   1.387   0.288  10.960 -0.3954 -0.0721  0.0390
14017TIP3    H163466   1.311   0.251  10.913 -1.4292  1.1276  0.7087
14017TIP3    H263467   1.419   0.357  10.903 -2.1629  1.9489  1.3599
14018TIP3   OH263468   3.291   6.726  11.565  0.1733 -0.0632 -0.2833
14018TIP3    H163469   3.255   6.639  11.584  1.0090 -0.6220 -1.1795
14018TIP3    H263470   3.381   6.721  11.596 -0.1642  0.9693  0.9437
14019TIP3   OH263471   3.608   3.646  13.021 -0.5251 -0.4816  0.4985
14019TIP3    H163472   3.560   3.727  13.006 -0.9994 -0.6179  1.2819
14019TIP3    H263473   3.542   3.583  13.047  0.0173 -0.7743  1.1881
14020TIP3   OH263474   5.740   3.650  13.980  0.4102  0.0300 -0.2950
14020TIP3    H163475   5.724   3.623  14.070 -2.4438  0.1939 -0.6581
14020TIP3    H263476   5.776   3.572  13.938  0.4411 -0.4867  0.6621
14021TIP3   OH263477   4.865   1.376  13.141  0.3734  0.1556  0.3194
14021TIP3    H163478   4.932   1.326  13.095  1.2654  0.9875  0.6675
14021TIP3    H263479   4.854   1.455  13.088 -0.2918  0.0538  0.3002
14022TIP3   OH263480   0.688   2.581   5.121  0.0008 -0.3631 -0.2446
14022TIP3    H163481   0.728   2.570   5.035  0.0989 -0.6259 -0.1654
14022TIP3    H263482   0.597   2.557   5.109 -0.6187  2.0108 -0.8722
14023TIP3   OH263483   3.879   3.589  15.879 -0.2905 -0.3599  0.2078
14023TIP3    H163484   3.966   3.550  15.889 -0.4400 -0.4424  1.2062
14023TIP3    H263485   3.877   3.619  15.788  0.4675 -1.1217 -0.0665
14024TIP3   OH263486   1.630   1.659   1.879 -0.1618  0.0886 -0.7661
14024TIP3    H163487   1.663   1.620   1.798  2.7351 -0.5408  0.5682
14024TIP3    H263488   1.560   1.601   1.908  1.7698 -2.3129 -0.5907
14025TIP3   OH263489   1.107   2.917  13.649  0.5318  1.0435  0.4851
14025TIP3    H163490   1.178   2.891  13.591  0.5942  0.3776  0.8615
14025TIP3    H263491   1.140   2.996  13.693  0.2994  1.8482 -0.7228
14026TIP3   OH263492   4.095   0.682  12.862 -0.2949 -0.5003  0.0178
14026TIP3    H163493   4.034   0.748  12.828  0.1580 -0.7118 -1.2819
14026TIP3    H263494   4.171   0.732  12.891  0.1106 -0.4406 -1.1068
14027TIP3   OH263495   2.530   1.784  12.910 -0.0392  0.0369  0.0591
14027TIP3    H163496   2.549   1.877  12.892 -0.2991  0.4624  1.7699
14027TIP3    H263497   2.541   1.741  12.826  0.5750  1.5479 -0.6850
14028TIP3   OH263498   3.456   2.798   3.419  0.3671  0.4475 -0.1301
14028TIP3    H163499   3.533   2.801   3.363  1.4681  2.8636  1.3265
14028TIP3    H263500   3.418   2.885   3.412 -0.4399  0.2737  1.5059
14029TIP3   OH263501   0.071   2.369   3.893 -0.1771 -0.2911  0.2957
14029TIP3    H163502   0.158   2.389   3.928  0.1267 -1.4345  0.2199
14029TIP3    H263503   0.011   2.418   3.949  0.5083  0.6051  0.2792
14030TIP3   OH263504   3.022   5.159   1.075  0.5469  0.1980 -0.0533
14030TIP3    H163505   3.112   5.189   1.060  0.4108  0.3034 -0.6764
14030TIP3    H263506   2.976   5.237   1.106  0.3433  0.4985 -1.0743
14031TIP3   OH263507   1.902   5.322   0.577  0.0355  0.2922 -0.5482
14031TIP3    H163508   1.979   5.326   0.634 -0.6856 -1.7116  0.7104
14031TIP3    H263509   1.866   5.411   0.579 -0.1832  0.2564  2.5759
14032TIP3   OH263510   1.703   5.544   3.696 -0.1272  0.3501  0.6042
14032TIP3    H163511   1.638   5.565   3.762 -1.1341 -1.2366  0.1620
14032TIP3    H263512   1.657   5.553   3.612 -0.0980 -1.6655  0.3203
14033TIP3   OH263513   1.613   4.840  16.550  0.2742  0.5245  0.2953
14033TIP3    H163514   1.565   4.768  16.509  0.3129  0.5928  0.1324
14033TIP3    H263515   1.690   4.799  16.589 -0.4763  0.2259  1.5388
14034TIP3   OH263516   2.383   1.240   2.997 -0.0985  0.2249 -0.3534
14034TIP3    H163517   2.470   1.260   3.032 -0.1096  0.6085 -0.5383
14034TIP3    H263518   2.391   1.152   2.959  0.3593  0.4831 -0.8680
14035TIP3   OH263519   3.454   3.419  12.110 -0.2306 -0.1887  0.4830
14035TIP3    H163520   3.493   3.506  12.110 -0.3750 -0.0721 -1.9390
14035TIP3    H263521   3.406   3.414  12.028 -2.6227 -1.5369  1.8641
14036TIP3   OH263522   0.305   5.689  13.280 -0.2406  0.1628  0.3269
14036TIP3    H163523   0.332   5.645  13.200  2.0107 -1.1198  1.6906
14036TIP3    H263524   0.219   5.726  13.259 -0.2162 -1.0361 -2.2974
14037TIP3   OH263525   0.323   4.834   2.185  0.0723  0.0155 -0.1626
14037TIP3    H163526   0.397   4.793   2.141  0.9090 -0.4758  1.6258
14037TIP3    H263527   0.282   4.763   2.234  0.5110  0.9327  1.5984
14038TIP3   OH263528   2.950   0.303   2.353  0.1070  0.2461 -0.5276
14038TIP3    H163529   2.984   0.368   2.415  1.1663 -1.3978  0.7222
14038TIP3    H263530   2.901   0.242   2.408  0.5109 -0.8887 -1.3940
14039TIP3   OH263531   5.836   2.838  16.399  0.6491  0.4392  0.5056
14039TIP3    H163532   5.904   2.783  16.361  1.4579  1.1633  0.8618
14039TIP3    H263533   5.858   2.927  16.369 -0.0246  0.7107  0.7885
14040TIP3   OH263534   5.851   6.405   0.812 -0.3721  0.3432  0.2844
14040TIP3    H163535   5.813   6.456   0.740  0.7625  1.0858  0.1934
14040TIP3    H263536   5.938   6.379   0.780  0.4930  1.3840  1.6888
14041TIP3   OH263537   2.593   1.277   6.019  0.0528 -0.1762 -0.2010
14041TIP3    H163538   2.645   1.268   6.099 -1.6059  0.6352  1.0239
14041TIP3    H263539   2.652   1.319   5.957  1.7677 -1.9170  0.1421
14042TIP3   OH263540   5.013   4.505   2.379 -0.1568 -0.4087  0.3850
14042TIP3    H163541   5.091   4.519   2.326  1.2486 -3.8069  1.3082
14042TIP3    H263542   4.964   4.437   2.332 -2.2227  1.0200  0.2872
14043TIP3   OH263543   3.923   1.814   5.677  0.5185  0.3029  0.3545
14043TIP3    H163544   3.869   1.738   5.657 -0.0503  0.5835  0.7965
14043TIP3    H263545   4.012   1.787   5.654  0.0133  0.3835 -1.9469
14044TIP3   OH263546   2.596   5.973   3.915 -0.4010 -0.2164  0.7943
14044TIP3    H163547   2.666   6.027   3.878 -0.0494 -1.6590 -0.8010
14044TIP3    H263548   2.641   5.911   3.973 -0.2068 -1.4585 -0.5978
14045TIP3   OH263549   4.182   1.179   0.783 -0.4034  0.0218 -0.5508
14045TIP3    H163550   4.205   1.224   0.702 -0.4763 -0.4506 -0.8338
14045TIP3    H263551   4.262   1.134   0.810 -0.7133 -0.8245 -1.0187
14046TIP3   OH263552   3.459   1.012  12.495 -0.2795 -0.2116 -0.5664
14046TIP3    H163553   3.392   1.048  12.553  0.0993  0.3319 -0.4605
14046TIP3    H263554   3.530   1.075  12.499 -0.0660 -0.4063 -1.2710
14047TIP3   OH263555   0.342   4.757   0.775 -0.1301  0.1584 -0.0772
14047TIP3    H163556   0.431   4.729   0.799 -0.1503 -1.1337 -1.3667
14047TIP3    H263557   0.334   4.845   0.811  2.7495  1.5482 -2.3783
14048TIP3   OH263558   2.590   0.391   1.418 -0.1845 -0.1948  0.1239
14048TIP3    H163559   2.632   0.381   1.333 -1.8237 -0.9597 -0.6439
14048TIP3    H263560   2.497   0.399   1.398 -0.4066  2.4660  1.6614
14049TIP3   OH263561   0.893   3.971  14.952 -0.3352  0.8724 -0.0273
14049TIP3    H163562   0.945   4.052  14.955  0.4473  0.3689  0.1338
14049TIP3    H263563   0.812   3.997  14.909  0.8548  1.2293 -2.1696
14050TIP3   OH263564   3.291   4.591   4.550 -0.8058  0.3380 -0.2195
14050TIP3    H163565   3.229   4.518   4.547  0.6607 -1.2594  3.2301
14050TIP3    H263566   3.237   4.667   4.569 -1.8784 -1.0113  2.7321
14051TIP3   OH263567   1.886   3.154  14.315  0.1116  0.1326 -0.4683
14051TIP3    H163568   1.915   3.080  14.369 -1.5166  0.4004  0.8645
14051TIP3    H263569   1.963   3.212  14.311  0.4205 -0.0874  1.2709
14052TIP3   OH263570   6.454   0.947  15.396  0.2406  0.3236  0.3877
14052TIP3    H163571   6.405   0.972  15.318 -0.6710  1.0061  1.1528
14052TIP3    H263572   6.528   1.008  15.398  0.2798  0.2911  0.0565
14053TIP3   OH263573   0.672   6.611  16.456 -0.7042  0.5222  0.4237
14053TIP3    H163574   0.751   6.585  16.504 -0.1214  0.5010 -0.5020
14053TIP3    H263575   0.705   6.633  16.368 -1.6785  0.9270  0.1513
14054TIP3   OH263576   3.497   4.514   0.535 -0.7308  0.0219  0.1153
14054TIP3    H163577   3.438   4.460   0.587  0.6336 -0.0439  1.6507
14054TIP3    H263578   3.445   4.591   0.512 -1.6880 -0.4588  0.6268
14055TIP3   OH263579   6.620   5.527  17.091  0.4430  0.2805 -0.5169
14055TIP3    H163580   6.671   5.602  17.121  0.9268  0.3303 -1.4478
14055TIP3    H263581   6.531   5.561  17.082  0.0834  0.0659  1.6005
14056TIP3   OH263582   3.187   4.582  15.633 -0.3402  0.4236  0.1376
14056TIP3    H163583   3.272   4.596  15.675 -0.2252  2.9073 -0.7417
14056TIP3    H263584   3.208   4.558  15.543 -0.5747 -0.1100  0.2237
14057TIP3   OH263585   3.931   6.339   3.325 -0.6336  0.2443 -0.1339
14057TIP3    H163586   3.841   6.313   3.306 -0.0616 -1.2575 -0.9461
14057TIP3    H263587   3.941   6.425   3.283 -1.4192  0.0240 -0.7871
14058TIP3   OH263588   6.055   5.220   5.805 -0.1970  0.4391  0.0418
14058TIP3    H163589   6.064   5.315   5.792  0.9246  0.3390  0.0467
14058TIP3    H263590   6.096   5.204   5.890 -2.0367  0.1988  0.9313
14059TIP3   OH263591   0.738   3.748   6.026  0.0282 -0.6658  0.0200
14059TIP3    H163592   0.753   3.769   6.118 -3.9224 -0.0738  0.7286
14059TIP3    H263593   0.784   3.816   5.977 -1.9475  2.2170  1.8365
14060TIP3   OH263594   6.742   0.804   1.085 -0.2379  0.4661 -0.1163
14060TIP3    H163595   6.759   0.751   1.007 -0.1179 -0.1445  0.3189
14060TIP3    H263596   6.678   0.754   1.134  0.5479  0.2801  0.7410
14061TIP3   OH263597   0.533   0.631   5.112  0.5144  0.0614  0.3041
14061TIP3    H163598   0.553   0.663   5.024  1.4701 -1.3397 -0.0208
14061TIP3    H263599   0.619   0.607   5.148 -0.0549 -1.0543  0.9444
14062TIP3   OH263600   6.144   5.932  15.319 -0.0887  0.7511 -0.7667
14062TIP3    H163601   6.151   5.882  15.238  0.0994 -0.9395  0.2406
14062TIP3    H263602   6.051   5.935  15.338 -0.0381 -0.1322 -0.3164
14063TIP3   OH263603   2.444   4.820  12.189 -0.1009  0.2866  0.0619
14063TIP3    H163604   2.443   4.793  12.097 -0.3184 -0.2627  0.2247
14063TIP3    H263605   2.391   4.755  12.234  0.9246 -0.0989  0.7619
14064TIP3   OH263606   5.571   6.555  13.724 -0.6533 -0.2623  0.4702
14064TIP3    H163607   5.502   6.571  13.660 -0.4184  0.6057  0.4207
14064TIP3    H263608   5.632   6.627  13.712  0.6134 -1.3668  0.0644
14065TIP3   OH263609   6.397   1.369  10.979  0.4187  0.2344  0.0294
14065TIP3    H163610   6.375   1.361  10.886 -0.3154  1.0798  0.1085
14065TIP3    H263611   6.361   1.290  11.019 -0.1718  0.3548 -0.2545
14066TIP3   OH263612   3.303   5.855  15.903  0.3762 -0.2990 -0.5691
14066TIP3    H163613   3.315   5.943  15.868 -0.4091  0.4158  0.8668
14066TIP3    H263614   3.219   5.827  15.866  0.6921 -0.5031 -1.1353
14067TIP3   OH263615   4.670   0.245   5.453 -0.4504 -0.8834 -0.2768
14067TIP3    H163616   4.639   0.162   5.417 -1.1559 -0.4559 -0.6739
14067TIP3    H263617   4.693   0.225   5.544  0.7464 -1.8285 -0.7794
14068TIP3   OH263618   5.101   5.514   0.164 -0.1326  0.1510  0.2186
14068TIP3    H163619   5.141   5.515   0.251 -1.2555  0.0800  0.7483
14068TIP3    H263620   5.062   5.601   0.154 -1.9318 -0.5495  0.7276
14069TIP3   OH263621   2.031   4.058  13.325  0.4001  0.0061 -0.5068
14069TIP3    H163622   2.091   3.991  13.357 -1.2757 -0.2837  2.2622
14069TIP3    H263623   2.079   4.140  13.336  2.9904 -0.5512 -5.1274
14070TIP3   OH263624   5.485   0.847   1.139  0.0965 -0.1800 -0.3867
14070TIP3    H163625   5.421   0.805   1.083 -0.2139 -1.5575  0.9179
14070TIP3    H263626   5.485   0.795   1.219  0.9755  1.3160  0.6572
14071TIP3   OH263627   1.746   5.546  14.314 -0.6199  0.0165 -0.7080
14071TIP3    H163628   1.752   5.485  14.387 -0.7505  0.9918  0.1408
14071TIP3    H263629   1.809   5.615  14.336 -1.6570  1.0261 -0.8141
14072TIP3   OH263630   6.087   3.671  14.658  0.0873  0.1034 -0.5443
14072TIP3    H163631   6.127   3.687  14.743  0.2506 -0.6185 -0.4783
14072TIP3    H263632   5.994   3.657  14.677  0.4374 -2.0775 -0.2168
14073TIP3   OH263633   6.247   4.522   4.971  0.9040  0.5583  0.2800
14073TIP3    H163634   6.227   4.474   5.051  1.0198  1.5240  0.9046
14073TIP3    H263635   6.343   4.526   4.968  0.9640 -1.0063 -0.8541
14074TIP3   OH263636   4.343   0.010   5.566 -0.1744 -0.0522 -0.3121
14074TIP3    H163637   4.254  -0.020   5.585 -0.2661  0.3473 -0.0936
14074TIP3    H263638   4.347   0.099   5.602  0.7462 -0.5598  0.8962
14075TIP3   OH263639   1.347   3.516  17.322  0.2792 -0.6631  0.1176
14075TIP3    H163640   1.294   3.457  17.375  1.1435 -0.5741  1.1257
14075TIP3    H263641   1.331   3.602  17.359  0.6995 -0.5676  0.0810
14076TIP3   OH263642   3.256   2.832  17.076  0.0050  0.4572 -0.1150
14076TIP3    H163643   3.229   2.884  17.000 -0.7775  0.3305  0.0599
14076TIP3    H263644   3.243   2.891  17.151  3.4963  1.6164 -0.2490
14077TIP3   OH263645   5.734   0.433  16.773 -0.7674 -0.1706 -0.0735
14077TIP3    H163646   5.806   0.429  16.710 -0.8832 -0.3948 -0.1933
14077TIP3    H263647   5.740   0.521  16.810  0.2198 -0.5362  0.6882
14078TIP3   OH263648   3.432   0.775   1.858 -0.0345 -0.5221 -0.1873
14078TIP3    H163649   3.348   0.803   1.895  1.1394  1.5145  1.1408
14078TIP3    H263650   3.409   0.735   1.774 -2.1269  3.2439 -1.6580
14079TIP3   OH263651   5.512   2.554   3.007 -0.7625  0.5736  0.4333
14079TIP3    H163652   5.448   2.579   3.074 -0.5268  2.1347  0.1082
14079TIP3    H263653   5.576   2.501   3.054 -2.1990 -0.9456  0.7896
14080TIP3   OH263654   4.300   1.613  15.651 -0.2754 -0.4153  0.6861
14080TIP3    H163655   4.207   1.608  15.669 -0.5557  0.7212 -0.3238
14080TIP3    H263656   4.333   1.683  15.708 -0.6304  1.2017 -0.9850
14081TIP3   OH263657   6.481   4.451   6.656  0.4518  0.0298  0.5543
14081TIP3    H163658   6.557   4.462   6.599  2.3516 -1.1949  2.7148
14081TIP3    H263659   6.445   4.539   6.664  0.6371  0.3858 -1.7460
14082TIP3   OH263660   3.575   4.828   0.334  0.2606 -0.1588 -0.0094
14082TIP3    H163661   3.614   4.881   0.264  1.7329 -0.4332  0.5591
14082TIP3    H263662   3.502   4.881   0.366  1.6467  1.5629  0.5068
14083TIP3   OH263663   4.434   0.236   3.159  0.5065  0.2023 -0.3339
14083TIP3    H163664   4.347   0.269   3.134  0.5469  0.8192  0.3288
14083TIP3    H263665   4.419   0.143   3.180 -0.4446  0.7972  1.9041
14084TIP3   OH263666   6.634   3.919  12.563  0.5821 -0.3601  0.2056
14084TIP3    H163667   6.702   3.926  12.630  0.3054  0.3182  0.4230
14084TIP3    H263668   6.663   3.975  12.492  0.0231  0.3135  0.5009
14085TIP3   OH263669   1.297   6.704  16.569  0.1845 -0.3418 -0.1272
14085TIP3    H163670   1.392   6.700  16.560  0.2402 -1.9113  0.7624
14085TIP3    H263671   1.283   6.709  16.664 -0.6162 -3.3833  0.0383
14086TIP3   OH263672   6.423   0.652  14.687  0.1814  0.1014  0.1659
14086TIP3    H163673   6.413   0.557  14.691  0.8378 -0.0288 -1.0654
14086TIP3    H263674   6.502   0.670  14.738  1.5617 -0.3048 -1.7419
14087TIP3   OH263675   4.251   5.733  15.200  0.3648 -0.0020  0.3662
14087TIP3    H163676   4.223   5.710  15.289  0.4840  0.3875  0.5067
14087TIP3    H263677   4.342   5.759  15.209  0.4147 -0.0774  0.1058
14088TIP3   OH263678   6.244   2.736   2.615  0.0333 -0.2191 -0.5928
14088TIP3    H163679   6.314   2.708   2.674 -1.4509  0.2580  1.5034
14088TIP3    H263680   6.290   2.778   2.542  1.9496 -0.9792  0.1042
14089TIP3   OH263681   6.463   1.231   1.694  0.3364  0.0336  0.1260
14089TIP3    H163682   6.430   1.173   1.626  0.0031  0.6007 -0.2106
14089TIP3    H263683   6.408   1.310   1.686 -0.6929 -0.4391  2.0062
14090TIP3   OH263684   6.595   3.183   4.395 -0.1089 -0.2866 -0.7700
14090TIP3    H163685   6.687   3.204   4.413 -0.2486  0.1193 -0.4972
14090TIP3    H263686   6.549   3.266   4.408 -0.3461 -0.1633 -2.1999
14091TIP3   OH263687   1.203   0.932  15.497  0.4140  0.2416  0.1431
14091TIP3    H163688   1.216   0.990  15.572  0.2897 -0.2320  0.5288
14091TIP3    H263689   1.270   0.864  15.507 -0.7342 -0.8147  0.7859
14092TIP3   OH263690   0.057   5.872   1.539  0.0404  0.3240 -0.4337
14092TIP3    H163691   0.084   5.811   1.471 -0.4159 -1.8190  1.1899
14092TIP3    H263692   0.080   5.958   1.505  0.6067 -0.7197 -2.8927
14093TIP3   OH263693   6.076   3.352   0.389 -0.5292  0.0133 -0.2905
14093TIP3    H163694   6.002   3.301   0.355  0.0501 -1.1138  0.0633
14093TIP3    H263695   6.035   3.422   0.440 -1.4099  1.6683 -3.0766
14094TIP3   OH263696   0.278   2.467  16.039 -0.1709 -0.0141  0.0071
14094TIP3    H163697   0.219   2.446  16.111 -0.0063  0.7976  0.3870
14094TIP3    H263698   0.317   2.383  16.014 -0.1828 -0.2874  0.9019
14095TIP3   OH263699   5.407   3.280  16.138 -0.2296  0.2016  0.3156
14095TIP3    H163700   5.320   3.298  16.102  1.1195 -2.4267 -5.2194
14095TIP3    H263701   5.463   3.348  16.101  0.6303  0.0496  1.2844
14096TIP3   OH263702   1.875   2.170   6.226  0.0476 -0.1756  0.1089
14096TIP3    H163703   1.797   2.116   6.239  0.4305 -0.4285  1.5264
14096TIP3    H263704   1.846   2.259   6.249  0.1182 -0.2359  0.4368
14097TIP3   OH263705   1.239   1.809  13.098 -0.4348  0.1936 -0.3423
14097TIP3    H163706   1.324   1.835  13.062 -0.3553 -1.1994 -1.2507
14097TIP3    H263707   1.181   1.808  13.022 -0.8806 -0.3640  0.0008
14098TIP3   OH263708   5.188   2.581  15.514 -0.0168 -0.1410  0.2123
14098TIP3    H163709   5.175   2.675  15.517 -0.1038 -0.0108 -2.3550
14098TIP3    H263710   5.280   2.570  15.490  0.3391 -0.7737  1.7367
14099TIP3   OH263711   0.056   1.779  11.337 -0.0483 -0.6654  0.3347
14099TIP3    H163712   0.040   1.803  11.245  1.8418  0.5433  0.2797
14099TIP3    H263713   0.086   1.688  11.332 -0.4849 -0.7878 -0.1876
14100TIP3   OH263714   2.239   3.526   2.789  0.7737 -0.4261  0.5743
14100TIP3    H163715   2.330   3.524   2.816  1.0937  2.0336 -0.0767
14100TIP3    H263716   2.209   3.614   2.811 -0.9173 -0.5718 -0.8709
14101TIP3   OH263717   0.243   4.050   5.595  0.8213 -0.4165  0.1912
14101TIP3    H163718   0.217   3.962   5.569  0.2683 -0.1918 -0.0261
14101TIP3    H263719   0.329   4.038   5.635  0.1760 -1.2403  1.3979
14102TIP3   OH263720   0.613   1.934   0.029  0.3362  0.0030  0.0440
14102TIP3    H163721   0.698   1.896   0.007  0.6701  0.7619 -0.0202
14102TIP3    H263722   0.603   1.919   0.123 -1.1351 -3.3379 -0.5179
14103TIP3   OH263723   0.478   4.695   5.476  0.1251  0.0949  0.2953
14103TIP3    H163724   0.571   4.675   5.485 -0.0900 -0.0505  3.0877
14103TIP3    H263725   0.435   4.610   5.488 -0.4064  0.1629 -0.9830
14104TIP3   OH263726   5.400   4.806   6.370  0.0330 -0.5529  0.5054
14104TIP3    H163727   5.489   4.838   6.384  0.6117 -0.9948 -1.8026
14104TIP3    H263728   5.394   4.726   6.423  1.3949 -1.1169 -0.1625
14105TIP3   OH263729   3.312   2.955  15.089  0.4844 -0.3330 -0.5761
14105TIP3    H163730   3.382   2.941  15.153  1.0652 -0.5145 -1.2286
14105TIP3    H263731   3.237   2.983  15.140  0.3738 -2.2527  0.4031
14106TIP3   OH263732   3.807   5.337   2.698 -0.4133  0.6528  0.0134
14106TIP3    H163733   3.802   5.339   2.602 -2.9476  0.1527  0.0759
14106TIP3    H263734   3.750   5.265   2.724  1.7502 -0.5226  1.8845
14107TIP3   OH263735   4.171   2.980   0.245  0.3196  0.0202  0.2798
14107TIP3    H163736   4.230   2.996   0.172 -1.3327 -1.8200 -1.5783
14107TIP3    H263737   4.113   3.056   0.247  0.1567 -0.0750 -0.5747
14108TIP3   OH263738   4.383   4.559   2.317  0.0105 -0.7810  1.0129
14108TIP3    H163739   4.398   4.489   2.254  0.9475  0.5316 -0.3011
14108TIP3    H263740   4.408   4.521   2.402  1.1504 -1.8207  0.2459
14109TIP3   OH263741   2.084   0.380  17.357 -0.1863  0.4926 -0.0838
14109TIP3    H163742   2.044   0.364  17.442 -1.9850  2.0001 -0.5618
14109TIP3    H263743   2.122   0.468  17.364  0.7647  0.1206 -0.4616
14110TIP3   OH263744   0.842   5.181   4.787 -0.2832  0.0712  0.0060
14110TIP3    H163745   0.926   5.207   4.827  0.3667 -1.8212 -0.0129
14110TIP3    H263746   0.786   5.161   4.862 -0.9068  1.7943  0.0288
14111TIP3   OH263747   2.968   2.935  12.539  0.6690 -0.3041  0.3378
14111TIP3    H163748   3.015   2.859  12.574 -0.6326 -0.6862  1.3417
14111TIP3    H263749   2.886   2.899  12.506 -0.7941  0.8248  2.4609
14112TIP3   OH263750   2.612   6.742  14.213  0.2965  0.4676  0.7447
14112TIP3    H163751   2.683   6.720  14.154 -0.3452  1.3159 -0.3863
14112TIP3    H263752   2.534   6.747  14.157 -0.1443  2.4125  1.4303
14113TIP3   OH263753   2.834   5.472  17.165 -0.1820 -0.3330 -0.3122
14113TIP3    H163754   2.842   5.506  17.254 -0.2704 -1.3660  0.1065
14113TIP3    H263755   2.740   5.466  17.150 -0.2495 -2.4281  0.4753
14114TIP3   OH263756   4.866   5.588   6.014  0.7133 -0.6515 -0.1018
14114TIP3    H163757   4.777   5.558   6.032  0.0574 -0.2438 -2.3629
14114TIP3    H263758   4.871   5.673   6.059 -0.0387 -0.6677  0.0385
14115TIP3   OH263759   5.749   2.110  13.575 -0.0364 -0.4706 -0.1572
14115TIP3    H163760   5.670   2.068  13.610 -1.0005 -0.1806 -1.8642
14115TIP3    H263761   5.780   2.166  13.647 -2.5907  1.0021 -0.0835
14116TIP3   OH263762   6.375   3.062   2.836  0.5601  0.5944 -0.0733
14116TIP3    H163763   6.337   3.138   2.880  1.6316  0.1182  1.7974
14116TIP3    H263764   6.313   3.042   2.765 -1.3046  1.3694  1.2511
14117TIP3   OH263765   2.290   0.287   2.053  0.8848  0.2780 -0.3968
14117TIP3    H163766   2.247   0.288   2.139  1.9023 -0.3409  0.1423
14117TIP3    H263767   2.314   0.195   2.040 -1.0041 -0.0351 -2.2664
14118TIP3   OH263768   2.743   2.434  11.625 -0.1792 -0.1860 -0.3323
14118TIP3    H163769   2.834   2.431  11.596  0.1414 -1.9020  0.7217
14118TIP3    H263770   2.694   2.393  11.553 -0.0356  0.0864 -0.5879
14119TIP3   OH263771   3.765   1.244   2.611 -0.6549 -0.0423  0.1229
14119TIP3    H163772   3.738   1.153   2.600  1.0112 -0.3181 -2.4378
14119TIP3    H263773   3.854   1.239   2.647 -0.5656  0.5687  0.0027
14120TIP3   OH263774   4.293   1.069   3.804  0.5617 -0.4575  0.7722
14120TIP3    H163775   4.314   0.978   3.825 -2.0900 -1.2479  0.4233
14120TIP3    H263776   4.240   1.099   3.878 -2.1608 -0.6577 -0.9559
14121TIP3   OH263777   6.580   2.587  14.003 -0.1384  0.1702 -0.0241
14121TIP3    H163778   6.665   2.595  13.959 -0.2480  1.8253 -0.0125
14121TIP3    H263779   6.592   2.634  14.086 -0.9146 -0.0116  0.1941
14122TIP3   OH263780   4.579   1.752  14.365  0.4002  0.4568  0.1597
14122TIP3    H163781   4.554   1.836  14.325 -0.8690  1.2804  2.4585
14122TIP3    H263782   4.581   1.771  14.459  0.4218 -2.0202  0.7093
14123TIP3   OH263783   6.198   1.494   5.767 -0.0438 -0.3464 -0.2229
14123TIP3    H163784   6.132   1.553   5.801 -0.2912 -0.9292  0.3331
14123TIP3    H263785   6.150   1.413   5.746  0.3587 -0.5083 -0.5519
14124TIP3   OH263786   1.235   3.931   5.800 -0.2463 -0.4484 -0.0104
14124TIP3    H163787   1.294   3.998   5.769  0.1133 -1.2345 -1.0739
14124TIP3    H263788   1.277   3.897   5.880 -0.5684  0.7424  0.6856
14125TIP3   OH263789   5.075   3.465   0.667 -0.1075 -0.4605 -0.1969
14125TIP3    H163790   5.033   3.400   0.610  0.2063 -2.1626  1.3962
14125TIP3    H263791   5.003   3.510   0.710 -0.3193 -0.3194 -0.6921
14126TIP3   OH263792   4.317   4.288   3.257 -0.0484  0.5871 -0.2788
14126TIP3    H163793   4.375   4.354   3.294  0.4045 -0.5534  1.1009
14126TIP3    H263794   4.232   4.307   3.296  0.0837  0.3407  0.1259
14127TIP3   OH263795   1.841   1.667  12.867  0.0615  0.2956 -0.2636
14127TIP3    H163796   1.934   1.666  12.845  0.3396  0.2487  0.8264
14127TIP3    H263797   1.803   1.594  12.818  0.6473  0.1754 -0.5419
14128TIP3   OH263798   1.644   2.525   5.850 -0.1696 -0.4951 -0.4560
14128TIP3    H163799   1.557   2.511   5.886  0.6594  0.8960  2.3761
14128TIP3    H263800   1.690   2.442   5.865 -0.3587 -0.5010  0.1171
14129TIP3   OH263801   1.492   6.007   5.508  0.0475 -0.2608  0.5873
14129TIP3    H163802   1.478   5.913   5.516 -0.5371 -0.1549  0.8632
14129TIP3    H263803   1.404   6.045   5.510  0.3208  0.3872  1.8596
14130TIP3   OH263804   3.763   3.079   3.163  0.0877 -0.2572  0.3580
14130TIP3    H163805   3.857   3.062   3.154  0.1154  0.3101 -0.6399
14130TIP3    H263806   3.726   3.058   3.077 -0.0824  3.0210 -0.5395
14131TIP3   OH263807   3.645   5.546   1.153 -0.7116 -0.3351 -0.0691
14131TIP3    H163808   3.610   5.619   1.204  0.3090 -0.7728  1.3234
14131TIP3    H263809   3.672   5.585   1.070  3.5505  1.8730  2.0236
14132TIP3   OH263810   4.680   3.408  15.523  0.5522 -1.0357 -0.1157
14132TIP3    H163811   4.748   3.408  15.456  0.4693  0.6678 -0.2571
14132TIP3    H263812   4.606   3.363  15.483  0.9451 -1.1950 -0.6710
14133TIP3   OH263813   1.991   3.162  12.050  0.4770 -0.0844 -0.4134
14133TIP3    H163814   1.996   3.078  12.006  0.2963  0.3811 -1.3351
14133TIP3    H263815   2.047   3.152  12.128  2.1263 -0.4013 -1.5898
14134TIP3   OH263816   3.700   5.089  16.816 -0.6808  0.4330 -0.0890
14134TIP3    H163817   3.656   5.158  16.866 -0.2830  0.8421 -0.2994
14134TIP3    H263818   3.760   5.135  16.758 -1.0652 -0.0410 -0.8870
14135TIP3   OH263819   3.150   3.179  14.112  0.3722  0.3002 -0.1945
14135TIP3    H163820   3.143   3.267  14.075 -2.7061 -0.1818 -1.0982
14135TIP3    H263821   3.178   3.125  14.038 -0.0477  0.1834 -0.2682
14136TIP3   OH263822   5.020   2.493   5.311 -0.2207 -0.6402  0.3910
14136TIP3    H163823   5.069   2.411   5.321 -0.3417 -0.7380  0.1883
14136TIP3    H263824   4.930   2.470   5.334 -0.5599 -0.9347 -1.1199
14137TIP3   OH263825   2.753   2.712  11.988 -0.1448 -0.4554  0.1728
14137TIP3    H163826   2.725   2.705  11.896  0.9945 -0.4931 -0.1921
14137TIP3    H263827   2.776   2.804  11.999  1.2392 -0.7504 -0.0636
14138TIP3   OH263828   4.669   6.488  17.329 -0.0208 -0.3767 -0.6324
14138TIP3    H163829   4.726   6.478  17.405 -2.2269 -0.4760  1.0882
14138TIP3    H263830   4.629   6.402  17.317  0.9705 -0.6412 -2.5607
14139TIP3   OH263831   4.458   4.496  16.930 -0.3506  0.6108 -0.4994
14139TIP3    H163832   4.407   4.558  16.878 -1.0367 -0.5951 -1.3230
14139TIP3    H263833   4.540   4.542  16.950 -0.2092  1.2333 -2.3579
14140TIP3   OH263834   6.420   4.092  16.294 -0.3214 -0.0187 -0.1375
14140TIP3    H163835   6.502   4.095  16.343 -1.2829  0.8528  1.5093
14140TIP3    H263836   6.413   4.178  16.252  1.5304 -1.4368 -3.7657
14141TIP3   OH263837   0.296   1.570  11.429 -0.5074  0.1614 -0.9043
14141TIP3    H163838   0.219   1.545  11.479 -0.8973 -0.3433 -1.7326
14141TIP3    H263839   0.359   1.599  11.495 -1.5262  0.9338 -0.2362
14142TIP3   OH263840   2.146   3.898  13.581  0.1831 -0.1105  0.4923
14142TIP3    H163841   2.151   3.987  13.616 -1.1401  0.4068 -0.5403
14142TIP3    H263842   2.232   3.882  13.542  0.0714  1.1757 -0.3293
14143TIP3   OH263843   6.220   1.083  11.795  0.0021 -0.0106  0.3040
14143TIP3    H163844   6.268   1.138  11.733 -0.3672  0.7018  0.6318
14143TIP3    H263845   6.282   1.015  11.821 -0.4052 -1.4825 -2.2577
14144TIP3   OH263846   5.008   1.373   4.337 -0.2150 -0.2970 -0.2061
14144TIP3    H163847   4.965   1.450   4.374 -1.6091 -0.3465 -1.6400
14144TIP3    H263848   4.970   1.300   4.386 -0.0488 -0.1932  0.0840
14145TIP3   OH263849   0.483   6.080  14.803  0.1158 -0.5995  0.6036
14145TIP3    H163850   0.389   6.062  14.815 -0.2162 -0.2487 -1.1485
14145TIP3    H263851   0.509   6.025  14.730  0.5820  1.2955 -0.7513
14146TIP3   OH263852   1.684   2.000  10.551  0.2577 -0.0236 -0.2350
14146TIP3    H163853   1.672   2.059  10.477 -2.3551 -2.4475 -1.9723
14146TIP3    H263854   1.763   1.950  10.529  0.2698  0.1973 -0.7186
14147TIP3   OH263855   5.552   5.692   5.082 -0.1309  0.1136 -0.2535
14147TIP3    H163856   5.483   5.680   5.017 -1.6875 -0.0342  1.3369
14147TIP3    H263857   5.598   5.608   5.085  0.9017  0.5664 -2.1224
14148TIP3   OH263858   5.822   4.506   3.030 -0.4825 -0.2114  0.1118
14148TIP3    H163859   5.865   4.579   3.075 -1.4613 -1.7033  3.7758
14148TIP3    H263860   5.847   4.518   2.938  2.8788  2.2885  1.1127
14149TIP3   OH263861   3.091   5.738  15.374 -0.4926  0.1113  0.2639
14149TIP3    H163862   3.158   5.672  15.391 -0.6036  0.4107  2.0668
14149TIP3    H263863   3.138   5.821  15.376 -0.5721  0.1851 -0.6548
14150TIP3   OH263864   1.924   0.226  12.867 -0.2010 -0.6973 -0.1707
14150TIP3    H163865   1.855   0.263  12.812 -0.2673  0.9604  0.9612
14150TIP3    H263866   1.982   0.182  12.805  0.2504  1.8863 -1.7543
14151TIP3   OH263867   2.782   4.572  13.224  0.1485 -0.2367  0.9987
14151TIP3    H163868   2.812   4.648  13.174  0.0954 -1.1715 -0.5130
14151TIP3    H263869   2.708   4.604  13.275 -0.0964  0.6578  0.1091
14152TIP3   OH263870   2.116   3.171   4.544 -0.3286  0.3023 -0.1030
14152TIP3    H163871   2.187   3.227   4.575 -0.4053  0.8404 -0.8883
14152TIP3    H263872   2.088   3.123   4.622  0.8301  0.1545  0.2303
14153TIP3   OH263873   0.845   1.510   1.447  0.2423 -0.6289  0.3728
14153TIP3    H163874   0.783   1.523   1.375  0.3447 -1.1987  0.1788
14153TIP3    H263875   0.849   1.415   1.459 -0.5698 -0.5171  1.8181
14154TIP3   OH263876   5.018   2.933  13.998 -0.1039 -0.0031 -0.2909
14154TIP3    H163877   4.970   2.880  14.062  0.2701  0.6142  0.5287
14154TIP3    H263878   4.968   2.925  13.917 -1.7141  0.7697  0.5731
14155TIP3   OH263879   0.894   2.007   0.878 -0.1735  0.5346  0.7652
14155TIP3    H163880   0.917   1.933   0.822  1.6243  0.6835  1.2567
14155TIP3    H263881   0.874   1.967   0.963 -0.4203  0.5150  0.6983
14156TIP3   OH263882   3.749   1.374  12.324 -0.5229 -0.2684  0.2636
14156TIP3    H163883   3.793   1.382  12.239 -2.8867 -1.4940 -1.2017
14156TIP3    H263884   3.819   1.383  12.388  1.2135  1.8589 -1.7406
14157TIP3   OH263885   2.656   4.846   4.984 -0.1658 -0.3326  0.9817
14157TIP3    H163886   2.652   4.795   4.904  0.5388 -0.5780  1.1004
14157TIP3    H263887   2.749   4.850   5.006 -0.0847  1.7732  0.4795
14158TIP3   OH263888   2.898   3.439   0.614  0.0226  0.2774 -0.0991
14158TIP3    H163889   2.855   3.355   0.629 -0.8083  0.7889  0.4436
14158TIP3    H263890   2.897   3.482   0.699  0.5238  0.8041 -0.3510
14159TIP3   OH263891   4.462   1.596  15.161  0.3998  0.1809  0.1702
14159TIP3    H163892   4.489   1.526  15.101  0.9104  0.0471  0.5451
14159TIP3    H263893   4.544   1.625  15.201 -0.0615 -0.6439  1.7927
14160TIP3   OH263894   3.310   5.233   1.493 -0.4221 -0.1180 -0.4895
14160TIP3    H163895   3.388   5.194   1.453  0.4149 -0.2974  1.2425
14160TIP3    H263896   3.335   5.249   1.584 -2.2372  0.3383 -0.0345
14161TIP3   OH263897   5.920   2.091   0.958  0.0666  0.7633  0.5587
14161TIP3    H163898   5.887   2.001   0.952  0.6306  0.4141  2.2193
14161TIP3    H263899   6.001   2.090   0.908  1.8007 -0.5872  3.1534
14162TIP3   OH263900   0.018   0.958   5.418 -0.5905  0.1118 -0.4043
14162TIP3    H163901   0.042   0.964   5.510 -0.0239 -0.2813 -0.5197
14162TIP3    H263902   0.100   0.974   5.371 -0.4556 -1.6064 -0.8062
14163TIP3   OH263903   4.347   0.040   0.715  0.1313  0.7197  0.2023
14163TIP3    H163904   4.413   0.109   0.711  2.2429 -1.2438 -1.8959
14163TIP3    H263905   4.383  -0.025   0.775  0.5592 -0.7073 -1.5195
14164TIP3   OH263906   0.978   6.398  11.407 -0.4929 -0.2468 -0.8360
14164TIP3    H163907   1.047   6.333  11.419  0.9478  1.0764 -1.5476
14164TIP3    H263908   0.935   6.374  11.325 -0.1133 -0.4129 -0.9858
14165TIP3   OH263909   0.576   3.432   2.783 -0.2396  0.6809 -0.3909
14165TIP3    H163910   0.656   3.461   2.739  0.7156  0.4303  1.0919
14165TIP3    H263911   0.505   3.459   2.725  0.9240  0.7807 -1.8235
14166TIP3   OH263912   6.028   3.846  11.863  0.3733  0.3137  0.3869
14166TIP3    H163913   6.046   3.799  11.782 -1.7057  0.6993 -0.3587
14166TIP3    H263914   6.052   3.937  11.844  0.8522  0.2237  0.5564
14167TIP3   OH263915   3.382   3.605   5.201  0.1350 -0.2856  0.6748
14167TIP3    H163916   3.447   3.669   5.227  0.6072 -0.7831  0.7375
14167TIP3    H263917   3.382   3.541   5.273  0.2077 -0.7487  0.2686
14168TIP3   OH263918   2.245   0.642  12.321  0.0985 -0.4384 -0.0642
14168TIP3    H163919   2.315   0.594  12.364  1.3270  0.7110 -0.7195
14168TIP3    H263920   2.197   0.575  12.271  1.6560 -1.0275 -0.8149
14169TIP3   OH263921   1.839   1.880  14.303 -0.3288  0.6831 -0.2734
14169TIP3    H163922   1.744   1.881  14.291 -0.3039  0.7831 -0.4608
14169TIP3    H263923   1.873   1.932  14.230 -0.2612  2.3611  0.8800
14170TIP3   OH263924   5.321   0.854  10.729 -0.0811 -0.2909 -0.1368
14170TIP3    H163925   5.345   0.838  10.821 -0.9331  2.1291  0.5878
14170TIP3    H263926   5.376   0.928  10.702 -1.8719  0.9680 -0.5586
14171TIP3   OH263927   2.882   1.524  11.913 -0.0008 -0.2029 -0.0511
14171TIP3    H163928   2.802   1.566  11.883 -0.8809 -1.1673  0.8737
14171TIP3    H263929   2.917   1.481  11.835  0.0391  0.8401 -0.6284
14172TIP3   OH263930   3.460   6.350  15.453  0.8715  0.0971 -0.3273
14172TIP3    H163931   3.548   6.353  15.490  0.5394  2.2714  0.3940
14172TIP3    H263932   3.466   6.404  15.374 -0.0094  1.0116  0.2167
14173TIP3   OH263933   2.732   1.406   5.815 -0.6073  0.0547  0.2448
14173TIP3    H163934   2.745   1.350   5.739  0.5708  0.2634  0.2721
14173TIP3    H263935   2.707   1.491   5.778 -0.7429 -0.0347  0.1298
14174TIP3   OH263936   3.518   6.567  13.575  0.1152 -0.2045  0.6192
14174TIP3    H163937   3.534   6.613  13.493  1.5378 -1.7413 -0.0412
14174TIP3    H263938   3.592   6.591  13.631 -0.2020 -0.1164  1.0073
14175TIP3   OH263939   0.445   1.425   2.080 -0.1925  0.3703 -0.6592
14175TIP3    H163940   0.424   1.449   2.170  0.2357 -0.4275 -0.3442
14175TIP3    H263941   0.360   1.409   2.039 -0.3030 -1.8280  0.3232
14176TIP3   OH263942   2.995   6.270  11.377  0.0052  0.0476  0.0328
14176TIP3    H163943   3.020   6.270  11.285  2.0606  2.0552  0.4761
14176TIP3    H263944   2.921   6.331  11.383  0.0767  0.1631 -0.2610
14177TIP3   OH263945   1.190   0.279  17.315  0.3749 -0.2495  0.1871
14177TIP3    H163946   1.253   0.228  17.263  2.3627  1.6289  0.6131
14177TIP3    H263947   1.124   0.306  17.251  1.4423 -0.0498 -0.8860
14178TIP3   OH263948   4.605   6.399  12.784 -0.4166  0.0573 -0.6367
14178TIP3    H163949   4.638   6.405  12.694  1.1067 -0.8694 -0.1874
14178TIP3    H263950   4.520   6.357  12.776  0.6141 -2.0010 -1.5213
14179TIP3   OH263951   0.027   3.206   1.671  0.1283 -0.6196 -0.1966
14179TIP3    H163952   0.105   3.212   1.615 -0.6103  1.4119 -1.1207
14179TIP3    H263953  -0.031   3.145   1.626 -0.9517  1.8649 -2.4359
14180TIP3   OH263954   4.428   4.352   3.964  0.3237  0.3712  0.0323
14180TIP3    H163955   4.453   4.320   3.877  0.2204  0.1278  0.0919
14180TIP3    H263956   4.332   4.351   3.963  0.2915  1.9178 -0.4278
14181TIP3   OH263957   3.511   3.144  12.164  0.1938 -0.2638 -0.4050
14181TIP3    H163958   3.603   3.171  12.165 -0.2613  1.4185  0.0400
14181TIP3    H263959   3.462   3.226  12.173 -1.3667 -1.0824 -1.0184
14182TIP3   OH263960   6.310   1.324  16.414 -0.1780  0.0815  0.6777
14182TIP3    H163961   6.230   1.376  16.408 -0.1110  0.3644  1.9351
14182TIP3    H263962   6.356   1.361  16.490  1.9387  1.0353 -0.9663
14183TIP3   OH263963   3.086   0.648  14.185 -0.6461  0.0889 -0.5034
14183TIP3    H163964   3.079   0.595  14.265 -0.7183  0.3772 -0.3163
14183TIP3    H263965   3.081   0.585  14.114 -0.7050 -0.1595 -0.2805
14184TIP3   OH263966   2.921   1.113  17.148 -0.1772 -0.5128 -0.1814
14184TIP3    H163967   2.903   1.203  17.175  0.1874 -0.3939 -0.3262
14184TIP3    H263968   2.912   1.115  17.052  0.9792 -0.3577 -0.3005
14185TIP3   OH263969   3.150   2.916   3.376  0.4189  0.0433 -0.0714
14185TIP3    H163970   3.200   2.889   3.299  0.6504 -0.8330  0.3707
14185TIP3    H263971   3.214   2.959   3.432  0.6427 -0.8362  0.3732
14186TIP3   OH263972   6.048   5.685  11.358 -0.0860  0.5330  1.0951
14186TIP3    H163973   6.063   5.705  11.450  0.9040 -0.1580  1.0979
14186TIP3    H263974   6.057   5.769  11.313  0.7572  0.6630  1.4836
14187TIP3   OH263975   6.023   4.890   4.006  0.2296  0.3247  0.1013
14187TIP3    H163976   6.108   4.862   3.971 -0.5457 -1.8174 -0.2055
14187TIP3    H263977   6.019   4.850   4.093 -2.1702 -3.5007 -1.4875
14188TIP3   OH263978   5.690   3.217   3.737 -0.2367 -0.1905 -0.2095
14188TIP3    H163979   5.758   3.203   3.671 -0.2513  0.3853 -0.3525
14188TIP3    H263980   5.737   3.257   3.811 -0.1266 -1.2877  0.3345
14189TIP3   OH263981   1.828   6.468  15.561  0.0385 -0.5497  0.0941
14189TIP3    H163982   1.863   6.507  15.481  0.3353 -1.0576 -0.0242
14189TIP3    H263983   1.849   6.375  15.555 -1.8024 -0.9853 -0.2217
14190TIP3   OH263984   4.327   5.876  14.913 -0.3815 -0.1829 -0.3062
14190TIP3    H163985   4.328   5.966  14.947  0.9833 -0.4265  0.3654
14190TIP3    H263986   4.390   5.876  14.842 -0.8185 -0.4803 -0.6999
14191TIP3   OH263987   5.295   0.063  16.531  0.4222 -0.2285  0.5588
14191TIP3    H163988   5.242   0.136  16.500 -0.9373  0.5677  4.2169
14191TIP3    H263989   5.372   0.062  16.474 -1.1706  1.7454 -1.8109
14192TIP3   OH263990   4.819   2.780  11.573  0.4100 -0.2624  0.1181
14192TIP3    H163991   4.799   2.722  11.500  1.8793 -0.9825  0.2424
14192TIP3    H263992   4.803   2.727  11.651  2.3644 -0.7863  0.2249
14193TIP3   OH263993   4.990   1.172   0.756  0.1018  0.6868 -0.2133
14193TIP3    H163994   5.003   1.233   0.829 -0.3963 -1.2109  1.5358
14193TIP3    H263995   4.895   1.167   0.746  0.0915 -0.5965  0.3874
14194TIP3   OH263996   3.579   1.279  15.796  0.5086  0.5415 -0.6064
14194TIP3    H163997   3.538   1.201  15.759  1.1525 -0.6394  1.0536
14194TIP3    H263998   3.670   1.275  15.766  1.2261 -0.8044  1.4851
14195TIP3   OH263999   1.891   6.257   3.720  0.2386 -0.4039 -0.3574
14195TIP3    H164000   1.826   6.205   3.767  1.6410 -1.0086  1.0491
14195TIP3    H264001   1.880   6.233   3.628 -0.7226 -1.3944 -0.0010
14196TIP3   OH264002   3.250   0.101  15.476 -0.6961 -0.0676  0.4698
14196TIP3    H164003   3.343   0.119  15.488 -0.8719  0.3944  1.2058
14196TIP3    H264004   3.238   0.011  15.505  0.3503 -1.9084 -4.0328
14197TIP3   OH264005   4.791   4.000   3.474  0.1599  0.1375 -0.0333
14197TIP3    H164006   4.825   4.048   3.399  1.0278 -0.1930  0.1356
14197TIP3    H264007   4.869   3.963   3.516 -0.3282  0.1962  0.9461
14198TIP3   OH264008   4.985   0.187  13.707  0.7605  0.6048  0.6018
14198TIP3    H164009   5.063   0.154  13.662  0.5884 -1.1059  1.4579
14198TIP3    H264010   5.010   0.192  13.799 -0.2180 -0.3425  0.9520
14199TIP3   OH264011   5.451   0.816  13.585  0.8601 -0.2258 -0.5457
14199TIP3    H164012   5.364   0.828  13.623  1.1298 -1.7541  0.6772
14199TIP3    H264013   5.456   0.879  13.513 -0.0857  2.1190  1.3154
14200TIP3   OH264014   5.154   2.850   5.850  0.1273  0.3512  0.0567
14200TIP3    H164015   5.095   2.920   5.879 -0.0118  0.0274  0.5672
14200TIP3    H264016   5.216   2.840   5.922  0.7607  0.6222 -0.4362
14201TIP3   OH264017   0.628   1.776  11.747 -0.0808 -0.0798  0.2062
14201TIP3    H164018   0.638   1.723  11.827  0.7830  0.4721  0.4779
14201TIP3    H264019   0.534   1.781  11.733 -0.3864  1.5782  2.4002
14202TIP3   OH264020   0.449   5.346   5.062 -0.0845 -0.0745 -0.1979
14202TIP3    H164021   0.483   5.430   5.032 -0.0057 -0.7096 -2.0400
14202TIP3    H264022   0.463   5.347   5.157  1.8062  1.1457 -0.4189
14203TIP3   OH264023   6.287   2.374  13.316 -0.3237  0.7804 -0.1493
14203TIP3    H164024   6.242   2.341  13.394 -0.7263  0.8174 -0.3594
14203TIP3    H264025   6.270   2.468  13.317  0.8933  1.0052  0.4944
14204TIP3   OH264026   0.691   3.333  16.090  0.0785  0.0083 -0.3321
14204TIP3    H164027   0.779   3.299  16.107 -1.0431 -1.9481  2.1153
14204TIP3    H264028   0.666   3.294  16.006  1.2426 -0.0029 -0.6857
14205TIP3   OH264029   4.791   5.140  12.698 -0.3404  0.1382  0.3409
14205TIP3    H164030   4.719   5.090  12.737 -0.5974  0.0642 -0.2190
14205TIP3    H264031   4.766   5.151  12.606  1.1387 -1.3655 -0.3188
14206TIP3   OH264032   5.378   1.256   6.463 -0.4980 -0.4693  0.2361
14206TIP3    H164033   5.327   1.208   6.528 -1.5328  0.5917  0.2361
14206TIP3    H264034   5.458   1.282   6.510  0.4007 -2.6405  0.0716
14207TIP3   OH264035   2.568   5.006  11.597 -0.5750  0.0793 -0.1288
14207TIP3    H164036   2.614   4.974  11.675  3.1460 -0.0792 -2.1410
14207TIP3    H264037   2.611   5.089  11.577 -2.0635  0.5498 -1.5396
14208TIP3   OH264038   0.991   1.403  16.341  0.6099 -0.7190  0.1501
14208TIP3    H164039   0.965   1.479  16.393  1.7992 -0.6099  0.6280
14208TIP3    H264040   1.005   1.438  16.253  0.5384 -0.5051  0.2244
14209TIP3   OH264041   1.821   1.984   0.369 -0.6000 -0.4545  0.0633
14209TIP3    H164042   1.831   2.060   0.425 -2.0509 -0.3279  0.1903
14209TIP3    H264043   1.909   1.947   0.362 -0.0050  0.8196  0.5705
14210TIP3   OH264044   2.553   4.635   4.773  1.2864  0.2711 -0.2166
14210TIP3    H164045   2.605   4.668   4.700  0.9254  0.7205 -0.2762
14210TIP3    H264046   2.463   4.661   4.752  1.1218  0.0402  0.1872
14211TIP3   OH264047   5.237   6.644   5.797  0.3699 -0.0508  0.0651
14211TIP3    H164048   5.273   6.621   5.711 -2.5355 -0.6610 -1.1098
14211TIP3    H264049   5.274   6.729   5.817  0.7716  0.3170 -2.0428
14212TIP3   OH264050   4.496   0.141   0.120 -0.4689 -0.3697 -0.7456
14212TIP3    H164051   4.528   0.076   0.058  0.2146 -0.7022 -0.0652
14212TIP3    H264052   4.556   0.215   0.109  0.6767 -1.0434  0.6256
14213TIP3   OH264053   5.181   3.238  14.392  0.8192 -0.4452 -0.0271
14213TIP3    H164054   5.245   3.309  14.388  1.5563 -1.0313  0.8921
14213TIP3    H264055   5.171   3.209  14.301  0.4904  0.8339 -0.4131
14214TIP3   OH264056   4.980   4.710  13.202  0.7036 -0.7650 -0.5852
14214TIP3    H164057   5.023   4.773  13.260  0.4475 -1.0389 -0.0902
14214TIP3    H264058   4.942   4.764  13.133  0.6313 -0.3825 -0.2542
14215TIP3   OH264059   2.073   1.255  12.910 -0.1446 -0.1652  0.0781
14215TIP3    H164060   2.071   1.187  12.978 -0.3185  0.2972  0.5418
14215TIP3    H264061   2.140   1.225  12.849 -0.7179 -1.1144 -0.1018
14216TIP3   OH264062   3.394   6.693  14.307 -0.1638 -0.2444  0.4642
14216TIP3    H164063   3.460   6.711  14.240 -0.5289 -0.8358 -0.0759
14216TIP3    H264064   3.311   6.709  14.263 -0.3899  1.2551  1.3692
14217TIP3   OH264065   5.911   2.868  13.035  0.3854 -0.3737  0.1783
14217TIP3    H164066   5.896   2.854  12.942  0.9209  0.5090 -0.0571
14217TIP3    H264067   5.990   2.922  13.038  0.2068 -0.1512  1.1331
14218TIP3   OH264068   4.696   2.454  14.866 -0.2553 -0.5440  0.3343
14218TIP3    H164069   4.655   2.382  14.915 -2.0587  1.8719  2.6059
14218TIP3    H264070   4.752   2.497  14.929  1.2337 -0.2159 -1.1565
14219TIP3   OH264071   6.474   6.191  12.724 -0.2891 -1.1624  0.0603
14219TIP3    H164072   6.505   6.248  12.654  0.2780 -1.3645  0.1458
14219TIP3    H264073   6.400   6.238  12.762 -2.0843 -2.0177 -2.0937
14220TIP3   OH264074   5.263   5.613   5.996  0.0966  0.1114 -0.2521
14220TIP3    H164075   5.218   5.570   5.924  1.4682  0.3715 -1.3082
14220TIP3    H264076   5.230   5.570   6.075 -0.3927 -1.1500 -1.1298
14221TIP3   OH264077   0.396   2.470  11.185  0.3308  0.2229 -0.9213
14221TIP3    H164078   0.333   2.401  11.166 -0.4302  1.1170 -1.7820
14221TIP3    H264079   0.444   2.483  11.103  2.2173 -0.9539 -0.0925
14222TIP3   OH264080   4.824   6.048  17.224 -0.4526 -0.2178  0.3250
14222TIP3    H164081   4.862   5.965  17.252 -1.5115 -0.9406 -0.3310
14222TIP3    H264082   4.730   6.039  17.242 -0.8297  0.1817 -1.3185
14223TIP3   OH264083   3.078   3.672  10.599 -0.2831 -0.3872 -0.4011
14223TIP3    H164084   3.055   3.764  10.610  1.2282  0.1167 -1.2081
14223TIP3    H264085   3.062   3.654  10.506 -0.0418 -0.7933 -0.3680
14224TIP3   OH264086   6.683   6.271   1.100 -0.0845 -0.1227 -0.2005
14224TIP3    H164087   6.682   6.211   1.025  1.4736 -1.7494  1.0090
14224TIP3    H264088   6.608   6.245   1.153 -1.0435  0.8718 -1.0013
14225TIP3   OH264089   5.472   0.569   3.845  0.2660  0.2316 -0.4249
14225TIP3    H164090   5.535   0.499   3.828 -1.5998 -1.7497  0.3701
14225TIP3    H264091   5.511   0.620   3.916  1.3852 -0.3884 -0.5801
14226TIP3   OH264092   4.951   2.702  12.781 -0.4856 -0.6509 -0.7313
14226TIP3    H164093   5.007   2.639  12.736 -0.3985 -0.7969 -0.4217
14226TIP3    H264094   5.011   2.770  12.812 -0.4036 -1.0745  0.0567
14227TIP3   OH264095   3.141   4.915   0.184 -0.5029  0.3139  0.0305
14227TIP3    H164096   3.082   4.856   0.137 -0.9270  0.7587 -0.0058
14227TIP3    H264097   3.104   5.002   0.170  0.6033  0.6966 -0.6495
14228TIP3   OH264098   4.713   3.345   5.295  0.1484  0.0790 -0.2825
14228TIP3    H164099   4.752   3.399   5.226 -0.0621 -0.7980 -1.1035
14228TIP3    H264100   4.787   3.302   5.338  0.1921 -0.5343 -0.9538
14229TIP3   OH264101   1.153   1.358   2.017  0.1161 -0.1297 -0.0671
14229TIP3    H164102   1.068   1.324   1.990  0.3170 -0.2616 -0.5548
14229TIP3    H264103   1.150   1.358   2.112  0.0246 -1.3089 -0.0552
14230TIP3   OH264104   2.253   5.560   1.046 -0.2359 -0.2326  0.3583
14230TIP3    H164105   2.208   5.612   1.112 -0.3509 -1.3845  1.2227
14230TIP3    H264106   2.194   5.488   1.028  0.5258 -0.8575  0.2794
14231TIP3   OH264107   6.190   0.825  16.680  0.7233 -0.6455  0.2670
14231TIP3    H164108   6.248   0.781  16.618 -0.0756 -1.5265  0.1057
14231TIP3    H264109   6.157   0.901  16.633 -1.2734 -2.2497 -1.1393
14232TIP3   OH264110   5.178   2.417  15.224 -0.0616  0.5683 -1.0917
14232TIP3    H164111   5.266   2.452  15.241 -0.3487  1.0584 -0.5918
14232TIP3    H264112   5.122   2.494  15.223 -0.3597  0.3543 -2.3380
14233TIP3   OH264113   6.303   6.016   0.583 -0.1132  0.3550 -0.0207
14233TIP3    H164114   6.253   5.972   0.514  2.8179 -1.4175 -1.1916
14233TIP3    H264115   6.293   6.109   0.564 -0.3431 -0.0495 -2.1498
14234TIP3   OH264116   0.629   5.846   1.571 -0.0224  0.8008  1.2277
14234TIP3    H164117   0.622   5.784   1.499 -0.6936  0.6344  1.4271
14234TIP3    H264118   0.627   5.792   1.650 -1.8137  1.1137  1.4465
14235TIP3   OH264119   5.150   0.112  15.178  0.2892  0.2332  0.0592
14235TIP3    H164120   5.106   0.055  15.241 -1.4956  2.0957  0.6109
14235TIP3    H264121   5.099   0.102  15.098  0.7945  0.0351 -0.2367
14236TIP3   OH264122   4.059   0.142  16.068  0.2128 -0.5171  0.0026
14236TIP3    H164123   3.967   0.149  16.095 -0.1585 -2.9188 -0.4422
14236TIP3    H264124   4.074   0.219  16.013 -0.3953  1.9406  2.9658
14237TIP3   OH264125   0.104   2.317   2.244 -0.3211  0.4752 -0.0237
14237TIP3    H164126   0.191   2.356   2.243 -0.1347  0.0838  0.3517
14237TIP3    H264127   0.078   2.312   2.152  0.6980 -0.8048 -0.2780
14238TIP3   OH264128   2.080   0.419   3.331 -0.1726  0.1331 -0.0308
14238TIP3    H164129   2.137   0.370   3.271 -0.8838  0.1899 -0.7766
14238TIP3    H264130   2.020   0.353   3.367 -1.8818  0.5528 -1.9063
14239TIP3   OH264131   6.716   2.062   5.765 -0.4788  0.1148  0.4164
14239TIP3    H164132   6.736   2.073   5.858  1.3170 -0.0393  0.0820
14239TIP3    H264133   6.747   1.974   5.744 -1.0632  0.0674 -0.2920
14240TIP3   OH264134   2.206   4.111   1.243  0.1165 -0.6872 -0.3366
14240TIP3    H164135   2.160   4.195   1.244 -0.5610 -1.0277  1.9703
14240TIP3    H264136   2.139   4.047   1.218 -0.4032 -1.0059  1.7183
14241TIP3   OH264137   3.871   4.547  12.429 -0.2063 -0.7912 -0.1414
14241TIP3    H164138   3.836   4.617  12.483 -1.1265 -1.3841  0.0543
14241TIP3    H264139   3.961   4.534  12.461  0.5901  1.3787 -1.2775
14242TIP3   OH264140   3.335   4.146   4.871 -0.1272  0.2839  0.1446
14242TIP3    H164141   3.294   4.223   4.831 -1.0643 -0.6794 -0.8310
14242TIP3    H264142   3.283   4.131   4.951 -0.0107  0.5992  0.2809
14243TIP3   OH264143   5.651   5.412  11.893 -0.6534 -0.7826 -0.7164
14243TIP3    H164144   5.640   5.470  11.968  0.6801  0.4303 -1.4251
14243TIP3    H264145   5.561   5.387  11.870 -1.0873 -3.5253  2.9519
14244TIP3   OH264146   1.504   3.023   5.223 -0.3874 -0.2801 -0.1260
14244TIP3    H164147   1.525   3.093   5.162  3.3775 -0.7750  0.3824
14244TIP3    H264148   1.477   3.068   5.303 -1.1473  0.4538 -0.7729
14245TIP3   OH264149   6.060   4.595  12.039  0.1430  0.0069 -0.1367
14245TIP3    H164150   6.119   4.572  12.111 -0.0644 -0.1944 -0.0315
14245TIP3    H264151   6.021   4.512  12.013 -0.5963  0.2348  0.2306
14246TIP3   OH264152   3.697   4.680   0.046  0.4455 -0.1524 -0.4679
14246TIP3    H164153   3.619   4.661   0.098 -0.1262  0.9587 -0.8867
14246TIP3    H264154   3.770   4.647   0.099 -0.1139  0.8744  1.0072
14247TIP3   OH264155   1.247   6.208  11.990 -0.1556 -0.1188 -0.5756
14247TIP3    H164156   1.159   6.187  11.958 -0.0149 -1.6040 -0.0414
14247TIP3    H264157   1.251   6.304  11.988 -1.2246 -0.0735 -2.0894
14248TIP3   OH264158   0.163   2.838   3.732 -0.4558  0.0866 -0.2567
14248TIP3    H164159   0.109   2.851   3.654  1.5275  0.7785 -1.6031
14248TIP3    H264160   0.196   2.748   3.724 -0.5563  0.0271 -0.0134
14249TIP3   OH264161   3.137   0.637   5.227 -0.2256  0.1927  0.0113
14249TIP3    H164162   3.046   0.653   5.201 -1.1278  0.2244  2.8006
14249TIP3    H264163   3.150   0.693   5.304  1.5169 -1.2566  0.8476
14250TIP3   OH264164   4.962   5.521   1.622 -0.1371 -0.2104  0.3447
14250TIP3    H164165   4.908   5.449   1.590  0.4108 -1.1087  1.3822
14250TIP3    H264166   4.909   5.566   1.687 -1.2811  1.6645 -1.7190
14251TIP3   OH264167   0.961   0.526  16.070 -0.1530  0.3130 -1.0050
14251TIP3    H164168   1.013   0.594  16.112  0.7432 -2.8156  3.6326
14251TIP3    H264169   1.026   0.468  16.030 -0.2056 -1.3571  1.1531
14252TIP3   OH264170   2.139   6.396  15.477  0.0123  0.4374 -0.2191
14252TIP3    H164171   2.199   6.447  15.531  2.5220 -3.8798  1.5447
14252TIP3    H264172   2.192   6.370  15.401 -0.7057 -0.6146 -0.3821
14253TIP3   OH264173   1.257   3.581  16.425 -0.2212 -0.0653 -0.6779
14253TIP3    H164174   1.200   3.638  16.475 -2.3774 -2.6032  0.0094
14253TIP3    H264175   1.311   3.536  16.490 -0.0631 -0.3708 -1.0094
14254TIP3   OH264176   0.753   3.601  16.694  0.2921  0.0694 -0.1358
14254TIP3    H164177   0.758   3.656  16.615 -0.5431  0.7275  0.2510
14254TIP3    H264178   0.753   3.511  16.660 -0.8498  0.3541 -0.9482
14255TIP3   OH264179   0.443   6.641  14.798 -0.2559 -0.5032 -0.3750
14255TIP3    H164180   0.445   6.722  14.746  0.2300 -1.7271 -2.4022
14255TIP3    H264181   0.497   6.580  14.748 -3.3851 -3.1709 -0.8269
14256TIP3   OH264182   3.703   5.148   4.309  0.1133 -0.4877  0.3506
14256TIP3    H164183   3.794   5.176   4.307 -0.1121  0.4723  1.6676
14256TIP3    H264184   3.706   5.059   4.344  0.6036 -0.8047 -0.4883
14257TIP3   OH264185   4.429   1.965  17.250  0.2942  0.2800 -0.2039
14257TIP3    H164186   4.367   1.914  17.303 -1.0584  1.5481 -0.5200
14257TIP3    H264187   4.505   1.976  17.307 -0.6284  0.5349  1.0122
14258TIP3   OH264188   3.861   1.187  14.836  0.2028  0.2163 -0.1828
14258TIP3    H164189   3.940   1.237  14.816  0.9052 -0.7707  0.0454
14258TIP3    H264190   3.862   1.177  14.931 -0.5677  0.7662 -0.1016
14259TIP3   OH264191   2.946   0.156  16.266 -0.1329 -0.2094 -0.0272
14259TIP3    H164192   2.985   0.215  16.201 -0.6196  0.4739  0.2850
14259TIP3    H264193   2.854   0.183  16.270 -0.1864 -0.4835  0.6772
14260TIP3   OH264194   4.325   0.916   2.634 -0.6332 -0.8512  0.4789
14260TIP3    H164195   4.316   0.958   2.720  0.2491 -0.8186  0.5678
14260TIP3    H264196   4.349   0.826   2.655 -1.8985 -1.2403  0.2794
14261TIP3   OH264197   5.393   0.378   2.597  0.2352 -0.0743 -0.7112
14261TIP3    H164198   5.482   0.351   2.576  0.2907 -0.7088  0.2630
14261TIP3    H264199   5.365   0.430   2.522  1.2467 -0.2770 -1.2450
14262TIP3   OH264200   4.831   1.063  11.779 -0.4183 -0.4068 -0.3966
14262TIP3    H164201   4.756   1.055  11.838  0.7597 -0.9360  1.0780
14262TIP3    H264202   4.882   1.135  11.815  1.1853 -1.8154  0.2813
14263TIP3   OH264203   0.535   4.194  12.314  0.2341  0.1621 -0.8102
14263TIP3    H164204   0.489   4.111  12.316 -2.5532  1.6023  1.0393
14263TIP3    H264205   0.594   4.190  12.390  0.4086 -0.2438 -0.9619
14264TIP3   OH264206   4.117   0.371  10.784  0.1307 -0.3868  0.0141
14264TIP3    H164207   4.206   0.363  10.819  0.8830  0.4742 -1.6124
14264TIP3    H264208   4.128   0.420  10.703 -1.9732  0.6827  0.3282
14265TIP3   OH264209   3.367   3.523  13.523 -0.7751 -0.3918 -0.7192
14265TIP3    H164210   3.286   3.509  13.573 -0.7274  0.1860 -0.4808
14265TIP3    H264211   3.408   3.436  13.521 -0.7138 -0.4078  0.3686
14266TIP3   OH264212   0.011   1.636  13.457 -0.2315  0.4155  0.1686
14266TIP3    H164213   0.104   1.631  13.437 -0.4880 -0.5580 -0.8942
14266TIP3    H264214  -0.008   1.554  13.503 -0.6528  0.3869 -0.0503
14267TIP3   OH264215   5.023   0.170  13.044 -0.2834  0.3763  0.4173
14267TIP3    H164216   5.011   0.084  13.003 -2.2334  0.4517  0.7153
14267TIP3    H264217   4.935   0.196  13.070  0.0436  3.0469 -0.7763
14268TIP3   OH264218   1.080   1.329   4.297 -0.1507 -0.0628 -0.0719
14268TIP3    H164219   1.095   1.328   4.392  2.1359  1.3144 -0.3340
14268TIP3    H264220   1.099   1.419   4.271 -1.3779 -0.2537 -1.7830
14269TIP3   OH264221   0.242   4.322  14.162  0.5675 -0.1425  0.9436
14269TIP3    H164222   0.279   4.408  14.142 -0.7960  0.2606  0.0269
14269TIP3    H264223   0.149   4.332  14.145  0.2137 -1.4696  2.0256
14270TIP3   OH264224   1.349   1.519  12.344 -0.1826 -0.0639  0.1900
14270TIP3    H164225   1.414   1.471  12.396 -0.2897  1.2998  1.6538
14270TIP3    H264226   1.365   1.491  12.254  0.8628 -1.5440  0.7904
14271TIP3   OH264227   5.049   4.971   0.244  0.1208  0.0385  0.3673
14271TIP3    H164228   5.036   4.996   0.152 -0.4661 -2.0041 -0.1486
14271TIP3    H264229   5.101   5.042   0.280 -1.4162  1.9721 -0.9741
14272TIP3   OH264230   5.152   1.303  11.674 -0.2988  0.0517  0.0601
14272TIP3    H164231   5.158   1.381  11.619 -1.4578 -0.7363 -1.2626
14272TIP3    H264232   5.241   1.288  11.704  0.7170 -0.3085 -2.8312
14273TIP3   OH264233   6.000   1.397  17.057  0.0007  0.3962  0.0717
14273TIP3    H164234   6.060   1.440  16.996  0.0841 -0.0642 -0.1777
14273TIP3    H264235   6.038   1.412  17.143  1.2315 -1.0595 -0.1816
14274TIP3   OH264236   4.525   2.129  16.535 -0.0878 -0.1818  0.0126
14274TIP3    H164237   4.541   2.160  16.624 -1.7210 -1.1499  0.6948
14274TIP3    H264238   4.529   2.208  16.481  1.1724  0.3845  0.8927
14275TIP3   OH264239   0.867   4.791  11.399  0.4064  0.2814 -0.7890
14275TIP3    H164240   0.924   4.862  11.369  0.3202  0.4961 -0.4602
14275TIP3    H264241   0.779   4.823  11.382  0.3632  0.3160 -0.5059
14276TIP3   OH264242   4.913   6.064   2.050 -0.3656 -0.0239  0.4166
14276TIP3    H164243   4.879   6.114   1.975  1.5178 -0.5235 -0.8426
14276TIP3    H264244   5.005   6.050   2.029 -0.0720 -1.1973  2.3112
14277TIP3   OH264245   3.139   5.276  13.106 -0.3357 -0.3276 -0.5348
14277TIP3    H164246   3.111   5.185  13.095  0.6927 -0.7497  0.1865
14277TIP3    H264247   3.234   5.271  13.112 -0.3344  0.6752  0.5724
14278TIP3   OH264248   5.255   1.434  14.120  0.0441  0.2234 -0.6213
14278TIP3    H164249   5.230   1.413  14.030  1.1591 -2.3116 -0.4268
14278TIP3    H264250   5.344   1.468  14.113  0.0067  0.3434 -0.5109
14279TIP3   OH264251   6.660   1.016   2.015 -0.0510  0.7981  0.0133
14279TIP3    H164252   6.601   1.061   2.075 -1.6323 -0.4522 -0.5381
14279TIP3    H264253   6.659   0.925   2.044  0.0522  0.3872 -1.2182
14280TIP3   OH264254   1.628   4.857   6.624 -0.2901 -0.5364 -0.5805
14280TIP3    H164255   1.545   4.823   6.658 -0.6852 -0.3609 -1.3552
14280TIP3    H264256   1.656   4.922   6.689  0.1993 -1.9092  0.6403
14281TIP3   OH264257   1.518   5.695   5.696  0.4466 -0.0175  0.2764
14281TIP3    H164258   1.546   5.605   5.679 -1.0360 -0.4121 -0.2068
14281TIP3    H264259   1.578   5.749   5.645  2.0635 -0.6272  1.4419
14282TIP3   OH264260   2.620   0.146   1.558 -0.4774 -0.1994  0.3726
14282TIP3    H164261   2.628   0.233   1.519 -0.2985  0.1321  1.1214
14282TIP3    H264262   2.695   0.097   1.523 -0.7463 -0.1496 -0.2849
14283TIP3   OH264263   0.505   5.243   3.226  0.4237  0.0410  0.2264
14283TIP3    H164264   0.559   5.265   3.150 -0.9140 -0.3899 -0.8931
14283TIP3    H264265   0.482   5.328   3.264  0.2031  0.3252 -0.5154
14284TIP3   OH264266   1.591   0.660  11.621  0.5470  0.2502  0.2808
14284TIP3    H164267   1.548   0.596  11.564 -1.4796  0.2302  1.7283
14284TIP3    H264268   1.677   0.674  11.580  0.9284 -3.0442 -0.3462
14285TIP3   OH264269   2.477   6.752   0.824 -0.2312  0.0042 -0.4445
14285TIP3    H164270   2.454   6.814   0.754  1.7624  0.5005 -0.7317
14285TIP3    H264271   2.542   6.694   0.783  0.5065 -0.0834  0.8050
14286TIP3   OH264272   4.306   5.015  13.053  0.0019  0.0812  0.3945
14286TIP3    H164273   4.229   5.069  13.039  0.9156  1.2802 -0.2532
14286TIP3    H264274   4.295   4.941  12.992 -0.1305  0.8118 -0.4903
14287TIP3   OH264275   3.878   4.340   4.134  0.1089 -0.1505 -0.3520
14287TIP3    H164276   3.890   4.345   4.229  0.1728  0.7577 -0.3989
14287TIP3    H264277   3.843   4.253   4.118  1.2481 -0.7707  0.3855
14288TIP3   OH264278   1.491   2.980  12.567  0.4815  0.3241  0.3545
14288TIP3    H164279   1.479   3.075  12.556 -1.3595  0.2101  1.0230
14288TIP3    H264280   1.429   2.956  12.635 -1.9252 -1.9624 -2.3697
14289TIP3   OH264281   2.294   2.143   6.697  0.4612  0.2110 -0.8739
14289TIP3    H164282   2.308   2.205   6.768 -0.4507 -1.2785  0.6976
14289TIP3    H264283   2.203   2.115   6.708  0.9206 -1.5889 -1.3070
14290TIP3   OH264284   0.954   5.963   4.764 -0.0931 -0.1691 -0.0645
14290TIP3    H164285   0.968   5.949   4.670  1.1585 -2.0926  0.3425
14290TIP3    H264286   0.877   5.911   4.786 -0.0027 -0.2441  0.0814
14291TIP3   OH264287   3.813   0.428  13.831  0.5029  0.4168  0.3200
14291TIP3    H164288   3.785   0.453  13.919 -0.4318  2.6057 -0.5366
14291TIP3    H264289   3.878   0.494  13.806  1.5064 -0.7591 -0.2674
14292TIP3   OH264290   0.174   6.370  14.410 -0.0252  0.2181 -0.5048
14292TIP3    H164291   0.176   6.351  14.316 -0.5438 -3.2230  0.0625
14292TIP3    H264292   0.082   6.381  14.431  0.0565  0.5664 -0.3146
14293TIP3   OH264293   0.071   1.450   1.680 -0.0813 -0.4979 -0.1707
14293TIP3    H164294   0.020   1.410   1.609  0.1359 -1.1131  0.0160
14293TIP3    H264295   0.015   1.441   1.757  0.0700 -0.6543 -0.0801
14294TIP3   OH264296   4.835   4.284   6.096  0.4184 -0.2717  0.4530
14294TIP3    H164297   4.757   4.262   6.147  1.5993 -0.5942  2.2370
14294TIP3    H264298   4.851   4.376   6.115 -0.0404  0.0472 -0.6624
14295TIP3   OH264299   5.264   5.936   1.746 -0.3283 -0.7879 -0.0936
14295TIP3    H164300   5.355   5.951   1.773 -0.6865  1.5623  0.0002
14295TIP3    H264301   5.270   5.913   1.654  0.3965 -1.2469  0.0602
14296TIP3   OH264302   1.658   5.867   5.893  0.0945  0.0165  0.1004
14296TIP3    H164303   1.563   5.871   5.879  0.1757 -1.7122 -1.3276
14296TIP3    H264304   1.671   5.901   5.981 -1.9020 -0.1263  0.4909
14297TIP3   OH264305   4.591   6.363  13.882  0.2927 -0.2363  0.4900
14297TIP3    H164306   4.504   6.386  13.915 -0.3508  0.0805 -1.2932
14297TIP3    H264307   4.608   6.426  13.812  1.2268 -1.3219 -0.3182
14298TIP3   OH264308   6.724   3.390  15.204  0.2977 -0.1996 -0.7366
14298TIP3    H164309   6.764   3.323  15.149 -0.4442  0.7963 -2.5876
14298TIP3    H264310   6.717   3.466  15.147 -0.1539  1.0274  0.8889
14299TIP3   OH264311   4.167   5.772  14.117  0.2731  0.4528 -0.1145
14299TIP3    H164312   4.144   5.758  14.025 -0.9855  0.5984  0.1599
14299TIP3    H264313   4.181   5.684  14.152 -1.0673  0.2697 -0.0070
14300TIP3   OH264314   5.104   4.935   2.331 -0.0262  0.2962 -0.0866
14300TIP3    H164315   5.115   5.027   2.358 -1.0048  0.2419  0.5525
14300TIP3    H264316   5.191   4.896   2.342 -0.2041  0.4465  2.4193
14301TIP3   OH264317   1.568   3.728  13.555  0.0134  0.6262 -0.0422
14301TIP3    H164318   1.660   3.753  13.561  0.5332 -0.2452 -2.8383
14301TIP3    H264319   1.520   3.803  13.589  1.7291  1.6664  0.1746
14302TIP3   OH264320   5.977   3.488   3.282  0.0105 -0.3126  0.0510
14302TIP3    H164321   6.040   3.499   3.353 -1.4774 -0.9589  1.5436
14302TIP3    H264322   5.948   3.577   3.263 -0.3927 -0.2145  1.0543
14303TIP3   OH264323   1.936   2.550   4.873 -0.1907 -0.1804  0.1424
14303TIP3    H164324   1.951   2.590   4.959  1.3448 -2.3831  0.9959
14303TIP3    H264325   1.970   2.461   4.882 -0.8007 -0.7646 -2.5146
14304TIP3   OH264326   0.898   3.093   3.585  0.0335 -0.3343  0.3935
14304TIP3    H164327   0.907   3.087   3.489 -0.5016  0.8712  0.2598
14304TIP3    H264328   0.856   3.010   3.609  0.4707 -0.7966 -0.3644
14305TIP3   OH264329   2.874   1.619   1.059  0.1646  0.0424 -0.4630
14305TIP3    H164330   2.805   1.637   1.122 -1.6729 -2.1254 -1.6880
14305TIP3    H264331   2.891   1.703   1.017 -1.0559  0.8082  0.5097
14306TIP3   OH264332   6.112   3.113  11.091 -0.2403 -0.0642  0.4425
14306TIP3    H164333   6.207   3.118  11.081 -0.2214 -0.1846  0.5617
14306TIP3    H264334   6.088   3.030  11.050 -0.5797  1.0188 -1.7209
14307TIP3   OH264335   0.010   2.362  10.593 -0.5386  0.7449 -0.0275
14307TIP3    H164336  -0.041   2.377  10.673 -1.0905 -0.2055 -0.1921
14307TIP3    H264337  -0.036   2.413  10.526 -0.0607  1.5642  0.2441
14308TIP3   OH264338   6.554   5.828  16.269 -1.2416  0.0080  0.0575
14308TIP3    H164339   6.579   5.919  16.254 -1.7938  0.3305  1.0128
14308TIP3    H264340   6.615   5.778  16.216  0.2233  0.8557  0.8721
14309TIP3   OH264341   4.575   3.276  13.570  0.3299  0.7023 -0.2698
14309TIP3    H164342   4.654   3.268  13.623  0.6163  0.8510 -0.6722
14309TIP3    H264343   4.607   3.280  13.480 -0.1408  0.6850 -0.4381
14310TIP3   OH264344   6.596   0.204  17.323 -0.0224  0.2966 -0.1158
14310TIP3    H164345   6.615   0.199  17.417 -0.6490 -0.2304 -0.0125
14310TIP3    H264346   6.501   0.203  17.317 -0.0030 -1.8089 -0.8395
14311TIP3   OH264347   0.047   2.757   3.994  0.1311 -0.2847  0.0512
14311TIP3    H164348   0.103   2.817   4.043 -1.5526  1.8993 -0.5371
14311TIP3    H264349   0.049   2.791   3.904 -1.8905 -0.2589 -0.0322
14312TIP3   OH264350   2.368   4.182   3.021 -0.2202  0.1394 -0.6269
14312TIP3    H164351   2.366   4.087   3.006 -0.0539  0.2299 -1.2312
14312TIP3    H264352   2.287   4.215   2.982 -1.9256 -0.1228  2.3649
14313TIP3   OH264353   6.148   5.869   1.060  0.0962 -0.2691 -0.2360
14313TIP3    H164354   6.083   5.939   1.059  0.5023  0.1369  0.7244
14313TIP3    H264355   6.123   5.812   0.987 -1.4361 -0.2133  0.2121
14314TIP3   OH264356   5.595   0.883  17.074 -0.1357  0.1613 -0.2318
14314TIP3    H164357   5.600   0.975  17.098  0.0676 -0.1090  0.8078
14314TIP3    H264358   5.583   0.837  17.157  0.0417 -0.7724 -0.7090
14315TIP3   OH264359   4.196   4.682   1.727 -0.3279 -0.2781 -0.6326
14315TIP3    H164360   4.190   4.600   1.777 -2.8147 -1.3911 -2.5201
14315TIP3    H264361   4.279   4.676   1.681  1.2813  0.0600  1.9979
14316TIP3   OH264362   4.673   1.584   5.081  0.1963  0.2006  0.0862
14316TIP3    H164363   4.627   1.585   4.997 -0.7636 -2.4492  0.4680
14316TIP3    H264364   4.719   1.500   5.082  0.5605  0.3813  1.9960
14317TIP3   OH264365   0.258   6.743   4.798 -0.0991 -0.3448  0.0577
14317TIP3    H164366   0.261   6.774   4.889  1.4400  0.3870 -0.2244
14317TIP3    H264367   0.245   6.649   4.806 -2.8124  0.0217  0.9634
14318TIP3   OH264368   5.395   5.335   5.238  0.2946  0.1182 -0.5231
14318TIP3    H164369   5.468   5.394   5.221 -0.2400  1.3669  1.2147
14318TIP3    H264370   5.317   5.386   5.215 -0.1885  0.2781  1.2976
14319TIP3   OH264371   4.575   1.395  15.930  0.0984 -1.2365  0.5489
14319TIP3    H164372   4.484   1.396  15.901 -0.7150 -1.0297  2.8944
14319TIP3    H264373   4.625   1.369  15.852 -1.5095  2.0759 -1.8653
14320TIP3   OH264374   0.603   1.219  13.386  0.0450  0.3581  0.9249
14320TIP3    H164375   0.688   1.216  13.344  0.4888  0.8106  1.7632
14320TIP3    H264376   0.587   1.312  13.402 -1.4510  0.4713 -0.8641
14321TIP3   OH264377   1.916   1.786  11.537 -0.2367  0.0768 -0.6499
14321TIP3    H164378   1.856   1.712  11.527  2.3239 -2.0950 -1.4059
14321TIP3    H264379   1.958   1.795  11.452  1.9519  0.0593  0.3517
14322TIP3   OH264380   6.001   1.545  11.269 -0.3157  0.2820 -0.2108
14322TIP3    H164381   6.087   1.587  11.273 -0.7298  1.1820 -0.3527
14322TIP3    H264382   6.018   1.453  11.286  0.5766  0.5804  0.6039
14323TIP3   OH264383   2.166   2.968   3.002  0.5558  0.6335 -0.1346
14323TIP3    H164384   2.077   2.958   3.034 -0.3733  2.9127 -1.7243
14323TIP3    H264385   2.184   2.886   2.956 -0.0776 -0.4784  1.5119
14324TIP3   OH264386   0.091   0.164   3.357  0.2772  0.1743 -0.0522
14324TIP3    H164387   0.155   0.227   3.324  0.8563  0.5995  1.7841
14324TIP3    H264388   0.008   0.192   3.319  0.8002  1.0594 -0.5815
14325TIP3   OH264389   2.928   1.821   2.997 -0.0059  0.3870  0.2751
14325TIP3    H164390   2.903   1.842   3.087  0.2814 -0.9352  0.6852
14325TIP3    H264391   2.893   1.734   2.982 -1.6082  1.2778 -1.5417
14326TIP3   OH264392   4.519   4.989  15.329  0.1100 -0.1959  0.1604
14326TIP3    H164393   4.481   4.903  15.347  0.4438 -0.4046 -0.1264
14326TIP3    H264394   4.520   4.995  15.233  1.5514 -0.5344  0.1293
14327TIP3   OH264395   1.039   6.361  15.375 -0.5501  0.0413 -0.2404
14327TIP3    H164396   1.109   6.373  15.439 -1.1888 -0.7890  0.6419
14327TIP3    H264397   1.037   6.443  15.326 -0.7705  1.1548  1.5307
14328TIP3   OH264398   4.662   3.328  11.658  0.2355  0.3050  0.5839
14328TIP3    H164399   4.606   3.403  11.681  1.8610  2.2259 -1.2863
14328TIP3    H264400   4.679   3.339  11.564  0.5080 -2.5039  0.2100
14329TIP3   OH264401   5.786   4.420  13.276  0.4176  0.1240  0.8665
14329TIP3    H164402   5.760   4.337  13.236 -1.5836  0.3009  1.6732
14329TIP3    H264403   5.856   4.396  13.337  1.2645 -0.6250 -0.3671
14330TIP3   OH264404   3.017   2.381   5.306 -0.4565  0.7520 -0.0358
14330TIP3    H164405   3.084   2.377   5.374 -0.8366  0.3990  0.3276
14330TIP3    H264406   2.936   2.396   5.354 -0.8548 -0.3326 -0.3303
14331TIP3   OH264407   6.584   6.320   1.682  0.8179 -0.3172  0.1850
14331TIP3    H164408   6.657   6.381   1.667  0.2427  0.2144 -0.5382
14331TIP3    H264409   6.585   6.305   1.776  1.9358 -0.4123  0.1732
14332TIP3   OH264410   0.646   2.848  14.223 -0.1865 -0.4486 -0.6495
14332TIP3    H164411   0.732   2.888  14.242  0.0165 -1.2157  0.1122
14332TIP3    H264412   0.664   2.786  14.152 -0.5813  1.0402 -2.1308
14333TIP3   OH264413   1.309   4.273   1.778  0.0484 -0.3835  0.2061
14333TIP3    H164414   1.317   4.255   1.684  0.3730 -0.3676  0.2311
14333TIP3    H264415   1.230   4.226   1.805  0.3422 -0.9647  0.0667
14334TIP3   OH264416   0.941   1.822  16.972 -0.1153  0.2057 -0.1922
14334TIP3    H164417   1.009   1.756  16.965 -1.9621 -1.7108 -1.2928
14334TIP3    H264418   0.895   1.819  16.888 -0.7495  2.3688  0.0151
14335TIP3   OH264419   0.858   6.430  14.963 -0.0970  0.4597 -0.3272
14335TIP3    H164420   0.909   6.388  14.894 -0.9703  1.1123 -1.4069
14335TIP3    H264421   0.802   6.360  14.997  0.1012  0.2103 -0.5087
14336TIP3   OH264422   6.530   1.356  13.353 -0.1196  0.1675 -0.3654
14336TIP3    H164423   6.562   1.377  13.265  0.5067 -2.0723 -0.7389
14336TIP3    H264424   6.592   1.292  13.387  0.1060  1.5639  2.0865
14337TIP3   OH264425   4.937   0.194   3.710  0.2069  0.0621  0.3541
14337TIP3    H164426   4.845   0.216   3.693 -0.4143 -0.5463  2.6734
14337TIP3    H264427   4.983   0.277   3.698 -1.2398  1.3489  2.8943
14338TIP3   OH264428   5.761   0.934   6.410  0.5032  0.8887  0.0740
14338TIP3    H164429   5.800   0.985   6.481 -0.0771  0.4982  0.6819
14338TIP3    H264430   5.684   0.984   6.384 -0.9518 -0.3940  1.7142
14339TIP3   OH264431   6.576   2.549   0.740  0.7283 -1.1498 -0.0566
14339TIP3    H164432   6.580   2.491   0.665  3.7464 -0.4729 -0.5528
14339TIP3    H264433   6.658   2.599   0.736  0.5155 -0.3435  3.0794
14340TIP3   OH264434   4.202   5.769   2.906  0.3456 -0.2257  0.4419
14340TIP3    H164435   4.269   5.711   2.942 -0.8099 -1.0515  1.3714
14340TIP3    H264436   4.121   5.742   2.950 -0.8075 -0.0008 -1.4162
14341TIP3   OH264437   0.346   5.619  15.499  0.3730  0.1879  0.4343
14341TIP3    H164438   0.392   5.566  15.435  0.8359  1.0972  0.0120
14341TIP3    H264439   0.328   5.702  15.455 -0.9820  0.1382  0.8467
14342TIP3   OH264440   2.333   5.029   6.741  0.3065 -0.1978 -0.6343
14342TIP3    H164441   2.287   5.065   6.665  1.5958 -0.7751 -1.7307
14342TIP3    H264442   2.391   5.100   6.770  0.7108 -0.3953 -0.9595
14343TIP3   OH264443   4.431   4.377   0.821 -0.2821  0.4289 -0.3590
14343TIP3    H164444   4.364   4.311   0.801 -0.0871  0.1440 -0.0911
14343TIP3    H264445   4.483   4.338   0.892  0.3157  0.5437 -0.7219
14344TIP3   OH264446   5.014   3.874  11.120 -0.1313  0.1138  0.2526
14344TIP3    H164447   5.084   3.886  11.055 -0.0620 -0.4157  0.2236
14344TIP3    H264448   4.935   3.861  11.068 -0.3019  0.9208  0.2855
14345TIP3   OH264449   3.566   5.433  12.988 -0.0290  0.5354 -0.1739
14345TIP3    H164450   3.622   5.378  12.932 -2.1542 -1.3377 -0.5896
14345TIP3    H264451   3.627   5.475  13.048  2.0424  0.3123 -1.9894
14346TIP3   OH264452   1.842   1.231   0.718 -0.2435  0.2847 -0.4861
14346TIP3    H164453   1.927   1.197   0.687  0.1633  0.1126  0.7727
14346TIP3    H264454   1.852   1.326   0.714  0.0216  0.2659 -0.3125
14347TIP3   OH264455   3.187   4.083   3.002  0.5518 -0.1465  0.6863
14347TIP3    H164456   3.102   4.088   2.960  0.9650 -1.6945 -0.4629
14347TIP3    H264457   3.182   4.143   3.076 -1.1036  0.6923 -0.0640
14348TIP3   OH264458   0.499   6.499  12.131 -0.3883  0.2557  0.0147
14348TIP3    H164459   0.472   6.561  12.063 -0.3159  1.6355  1.1905
14348TIP3    H264460   0.592   6.516  12.143  0.5060 -2.5610 -2.0811
14349TIP3   OH264461   2.416   3.734   3.301  0.1608  0.5311 -0.5460
14349TIP3    H164462   2.475   3.768   3.234  0.6141  0.6741 -0.0871
14349TIP3    H264463   2.329   3.765   3.276  0.3129  0.4974 -1.1139
14350TIP3   OH264464   2.498   0.633  10.530 -0.1276 -0.2473  0.1286
14350TIP3    H164465   2.444   0.656  10.606 -0.6940  0.2364 -0.4088
14350TIP3    H264466   2.458   0.681  10.457  1.1326  0.2589 -0.2490
14351TIP3   OH264467   4.332   1.413  16.834 -0.0979  0.1121 -0.4595
14351TIP3    H164468   4.276   1.350  16.788 -0.0081  0.0813 -0.5276
14351TIP3    H264469   4.410   1.362  16.857  0.0564  0.2458 -0.6818
14352TIP3   OH264470   4.971   0.266   0.250  0.4516  0.3639 -0.3901
14352TIP3    H164471   5.036   0.219   0.302 -0.4182 -0.5433 -0.0948
14352TIP3    H264472   4.995   0.359   0.259 -0.3071  0.3656  2.5739
14353TIP3   OH264473   3.896   4.503   2.971 -0.2351 -0.1074  0.0385
14353TIP3    H164474   3.849   4.465   3.046 -1.0929  0.7992 -0.0178
14353TIP3    H264475   3.826   4.530   2.911  0.4253 -0.1824 -0.7775
14354TIP3   OH264476   3.853   0.040  15.215  0.8692 -0.1981  0.1418
14354TIP3    H164477   3.833   0.099  15.288  0.5309 -1.8413  1.4125
14354TIP3    H264478   3.895  -0.036  15.255 -0.6109 -1.7942 -1.1887
14355TIP3   OH264479   2.985   0.326  14.824  0.2605  0.3865  0.0401
14355TIP3    H164480   2.961   0.414  14.853  1.2531  0.4568  0.6807
14355TIP3    H264481   2.975   0.272  14.903  1.6538  0.3198  0.1893
14356TIP3   OH264482   3.322   6.664   4.958  0.0158  0.1830  0.1483
14356TIP3    H164483   3.282   6.652   5.044 -0.4622  1.6586  0.1618
14356TIP3    H264484   3.413   6.636   4.969 -0.5443 -1.5897  0.5674
14357TIP3   OH264485   6.527   4.126   3.152 -0.3090 -0.0381 -0.2552
14357TIP3    H164486   6.523   4.211   3.196 -0.6311  0.3235 -0.9735
14357TIP3    H264487   6.588   4.074   3.205 -0.6097  0.4217  0.5538
14358TIP3   OH264488   3.076   1.555   1.245  0.3052 -0.4660 -0.1716
14358TIP3    H164489   3.131   1.554   1.167  2.2549  0.3430  1.1347
14358TIP3    H264490   2.991   1.523   1.214  1.5540 -2.0936 -2.2084
14359TIP3   OH264491   0.158   0.963  13.380  0.2606 -0.1009  0.4289
14359TIP3    H164492   0.177   0.956  13.474  0.8389  2.7529  0.6025
14359TIP3    H264493   0.237   1.003  13.343 -1.0806  1.5705 -0.7590
14360TIP3   OH264494   5.217   3.802   4.382  0.5668 -0.3760 -0.3572
14360TIP3    H164495   5.298   3.752   4.394  1.8066  1.5823 -0.2561
14360TIP3    H264496   5.200   3.841   4.468 -0.6118 -0.8994 -0.3334
14361TIP3   OH264497   1.026   2.064  13.405 -0.1214 -0.8024  0.5417
14361TIP3    H164498   1.026   2.000  13.335 -0.4108 -1.7642  1.4045
14361TIP3    H264499   1.110   2.052  13.450  0.6764  0.7383 -0.4316
14362TIP3   OH264500   2.970   4.598  12.010 -0.1622  0.0091 -0.2320
14362TIP3    H164501   2.980   4.511  11.971  0.9903  0.1331 -0.2203
14362TIP3    H264502   2.983   4.584  12.104 -1.1101  0.0212 -0.0839
14363TIP3   OH264503   1.824   4.426   1.347  0.1732 -0.2877  0.3806
14363TIP3    H164504   1.881   4.451   1.420 -0.2832 -2.5571  1.5982
14363TIP3    H264505   1.748   4.485   1.356  0.9065  0.6363  0.6581
14364TIP3   OH264506   5.764   0.776   0.497  0.5613  0.4161  0.2395
14364TIP3    H164507   5.768   0.713   0.425 -0.8840  1.2199 -0.5969
14364TIP3    H264508   5.671   0.789   0.512  0.8417  1.3602  1.2859
14365TIP3   OH264509   6.001   1.097  14.959  0.3706 -1.1508 -0.0679
14365TIP3    H164510   6.095   1.104  14.978  0.2933  0.1909 -0.0818
14365TIP3    H264511   5.997   1.070  14.868  0.7771  0.9419 -0.7506
14366TIP3   OH264512   3.211   6.358  12.149 -0.1890 -0.2621 -0.3674
14366TIP3    H164513   3.147   6.349  12.078  0.1959  0.0752 -0.7647
14366TIP3    H264514   3.295   6.335  12.108  0.1160  0.4745 -0.1750
14367TIP3   OH264515   3.369   3.263  15.587 -0.3745  0.1658  0.5409
14367TIP3    H164516   3.401   3.173  15.581 -2.2772 -0.5274 -0.0057
14367TIP3    H264517   3.446   3.317  15.567  0.6276 -1.3476  0.1019
14368TIP3   OH264518   1.093   5.139   5.569  0.0706  0.6917  0.2064
14368TIP3    H164519   1.173   5.133   5.622 -0.3608 -0.6133  0.7337
14368TIP3    H264520   1.120   5.108   5.483 -0.1650 -1.1724  0.7554
14369TIP3   OH264521   4.919   3.806  17.148 -0.6697 -0.3522 -0.6641
14369TIP3    H164522   4.860   3.813  17.224  0.0539  0.4879 -0.1699
14369TIP3    H264523   4.991   3.751  17.179 -0.8205 -0.7722 -1.0421
14370TIP3   OH264524   3.182   3.258  15.067  0.6018 -0.0299 -0.2971
14370TIP3    H164525   3.172   3.352  15.058 -0.7748  0.0928  1.7424
14370TIP3    H264526   3.247   3.248  15.137  0.4070 -0.5866 -0.1923
14371TIP3   OH264527   0.145   5.997  11.362  0.3000  0.8496 -0.1850
14371TIP3    H164528   0.178   5.912  11.332  0.9137  0.3988  1.6630
14371TIP3    H264529   0.141   6.050  11.282 -0.5832 -1.0442 -1.4731
14372TIP3   OH264530   3.407   2.589   1.359  0.1093  0.2300  0.4517
14372TIP3    H164531   3.351   2.587   1.436  0.1818 -0.6105  0.4931
14372TIP3    H264532   3.467   2.515   1.371  0.3570  0.3094 -0.2348
14373TIP3   OH264533   2.645   0.014   4.330  0.4468  0.3355 -0.7227
14373TIP3    H164534   2.590   0.018   4.252 -2.0670 -1.4609  0.7925
14373TIP3    H264535   2.606   0.079   4.390 -0.3848 -1.2424  0.5201
14374TIP3   OH264536   3.721   4.377   2.643 -0.2748 -0.4086  0.0733
14374TIP3    H164537   3.670   4.328   2.708  0.8302 -2.0997 -0.2840
14374TIP3    H264538   3.724   4.466   2.678 -2.0516 -0.6413  0.9224
14375TIP3   OH264539   2.961   0.161   3.758  0.1539  0.1100 -0.2178
14375TIP3    H164540   3.026   0.229   3.741  1.1565 -1.1089 -1.5343
14375TIP3    H264541   2.878   0.209   3.765  0.7901  1.4523 -1.3179
14376TIP3   OH264542   0.308   1.537  17.116  0.5355 -0.0024  0.6115
14376TIP3    H164543   0.321   1.442  17.116  1.5843  0.1206  1.5155
14376TIP3    H264544   0.234   1.552  17.175  3.6275  0.0432  4.8957
14377TIP3   OH264545   1.162   2.599   4.881 -0.5013  0.4036  0.7810
14377TIP3    H164546   1.202   2.544   4.813 -0.6098 -1.7912  2.3677
14377TIP3    H264547   1.068   2.588   4.868 -0.5232 -0.1193  1.3059
14378TIP3   OH264548   3.708   4.521  11.983 -0.2134 -0.6654  0.2581
14378TIP3    H164549   3.780   4.461  11.966  0.0798 -0.1447 -0.3749
14378TIP3    H264550   3.694   4.515  12.077  0.0833 -1.4098  0.2651
14379TIP3   OH264551   1.986   1.775  16.953  0.5323  0.0762  1.0091
14379TIP3    H164552   2.009   1.735  17.037  0.3574 -0.3382  0.8622
14379TIP3    H264553   1.907   1.729  16.926  2.8390 -2.8015 -1.4202
14380TIP3   OH264554   1.095   5.510   0.083 -0.1039  0.0646  0.0188
14380TIP3    H164555   1.018   5.460   0.055 -0.5364  1.9611 -2.5751
14380TIP3    H264556   1.072   5.601   0.065  2.1388  0.8423  0.7668
14381TIP3   OH264557   6.522   5.268  10.931  0.0132  0.0793  0.8410
14381TIP3    H164558   6.443   5.223  10.960 -0.4521  0.4616  0.1837
14381TIP3    H264559   6.586   5.197  10.917 -0.6993 -0.3914 -0.1452
14382TIP3   OH264560   5.037   3.046   5.973  0.6054 -0.4147  0.3332
14382TIP3    H164561   4.955   3.066   6.017  1.4244 -3.1865  3.4927
14382TIP3    H264562   5.099   3.111   6.008  0.4865 -0.3955  0.5064
14383TIP3   OH264563   6.278   4.337  16.181  0.6623 -0.1015 -0.3442
14383TIP3    H164564   6.216   4.408  16.192  0.7600 -0.3036  2.5046
14383TIP3    H264565   6.355   4.377  16.141  0.0753  1.0090 -0.3756
14384TIP3   OH264566   2.607   2.881   4.794  0.0674 -0.0214  0.0105
14384TIP3    H164567   2.683   2.824   4.803  0.6540  1.0692  3.2614
14384TIP3    H264568   2.643   2.968   4.782 -0.8108  0.1042 -2.3091
14385TIP3   OH264569   0.845   0.820   3.156  0.4168 -0.0044 -0.1256
14385TIP3    H164570   0.890   0.840   3.238 -1.8299  0.5765  1.0714
14385TIP3    H264571   0.856   0.899   3.102  0.4505  0.2998  0.3203
14386TIP3   OH264572   0.281   5.167   1.715 -0.2930  0.1609  0.0149
14386TIP3    H164573   0.333   5.139   1.640 -0.4655 -1.7640  0.5752
14386TIP3    H264574   0.286   5.095   1.777  0.2948  1.9103  2.1352
14387TIP3   OH264575   1.397   4.821  11.861 -0.0621  0.0203  0.1588
14387TIP3    H164576   1.359   4.890  11.807 -1.4921  1.5253  2.8497
14387TIP3    H264577   1.323   4.766  11.887  0.1651  0.5675  2.1712
14388TIP3   OH264578   5.185   4.129  14.125  0.2565 -0.2169 -0.1104
14388TIP3    H164579   5.156   4.049  14.169  0.1943 -0.5720 -0.7893
14388TIP3    H264580   5.140   4.128  14.040  0.8109  0.1746 -0.4138
14389TIP3   OH264581   5.168   4.987   3.055 -0.0749  0.2215  0.0982
14389TIP3    H164582   5.089   5.031   3.087  0.2228  1.2844 -0.5897
14389TIP3    H264583   5.235   5.007   3.120 -0.0352  0.4534 -0.0154
14390TIP3   OH264584   1.305   2.924  12.777 -0.7141 -0.0385  0.2133
14390TIP3    H164585   1.298   2.834  12.746  0.9084 -0.3608  0.7214
14390TIP3    H264586   1.283   2.920  12.870  2.0044 -0.4305  0.9145
14391TIP3   OH264587   2.000   1.398   1.225 -0.4187 -0.3587  0.7399
14391TIP3    H164588   2.014   1.418   1.133  1.5506  2.2886  1.5064
14391TIP3    H264589   1.939   1.465   1.255 -1.5084 -1.5477  1.2839
14392TIP3   OH264590   3.842   5.676  14.086 -0.3776 -0.2253  0.0239
14392TIP3    H164591   3.874   5.586  14.097  2.5833  0.6454 -0.6294
14392TIP3    H264592   3.822   5.683  13.992  1.6328  0.3842 -0.4072
14393TIP3   OH264593   0.256   5.684  14.034  0.3102  0.0474 -0.0639
14393TIP3    H164594   0.210   5.632  13.968 -0.8369  1.3068 -0.3079
14393TIP3    H264595   0.328   5.724  13.985  0.5327 -0.4253 -0.1295
14394TIP3   OH264596   5.569   2.166   1.066 -0.2155 -0.0379  0.3855
14394TIP3    H164597   5.547   2.150   1.158  0.3207  0.1850  0.5536
14394TIP3    H264598   5.564   2.079   1.025 -1.4429  0.0027  0.4003
14395TIP3   OH264599   6.311   4.766   1.299  0.4139 -0.4690  0.5289
14395TIP3    H164600   6.383   4.722   1.255 -0.6545 -1.2015 -0.5628
14395TIP3    H264601   6.319   4.742   1.391  1.9478  0.0355  0.5449
14396TIP3   OH264602   5.340   0.356   6.262 -0.1718  0.8664  0.1502
14396TIP3    H164603   5.279   0.390   6.327 -1.1080  1.7208 -1.1276
14396TIP3    H264604   5.399   0.428   6.243  0.5273  0.4074  0.5199
14397TIP3   OH264605   6.018   5.591   6.511 -0.1688  0.1520 -0.2028
14397TIP3    H164606   6.031   5.673   6.558 -0.6138  1.3175 -2.0048
14397TIP3    H264607   6.106   5.553   6.503  0.1433  0.8102  0.0574
14398TIP3   OH264608   6.166   0.630  14.044  0.5051  0.3744 -0.2895
14398TIP3    H164609   6.178   0.574  14.121 -0.5829  0.6638  0.1173
14398TIP3    H264610   6.242   0.688  14.043  1.1342 -0.4449 -0.1390
14399TIP3   OH264611   2.632   0.979   1.626  0.3698 -0.0921 -0.0312
14399TIP3    H164612   2.661   0.903   1.576  2.1209  1.1218 -0.9766
14399TIP3    H264613   2.639   0.952   1.718 -1.7358 -1.9464 -0.3149
14400TIP3   OH264614   4.960   3.818  14.856 -0.6770 -0.4929  0.2585
14400TIP3    H164615   4.999   3.732  14.841  2.3984  0.9390 -0.7412
14400TIP3    H264616   5.021   3.861  14.916 -1.8488  1.2058  0.2881
14401TIP3   OH264617   6.650   6.292  16.011 -0.1653  0.2644 -0.3678
14401TIP3    H164618   6.578   6.272  15.951  0.0030 -0.3780 -0.3641
14401TIP3    H264619   6.637   6.384  16.034 -1.6095 -0.1361  0.4862
14402TIP3   OH264620   1.190   1.626   5.046  0.1577 -0.0580  0.1104
14402TIP3    H164621   1.095   1.626   5.029  0.1816  0.6585 -0.0474
14402TIP3    H264622   1.213   1.533   5.048 -0.4144 -0.2292 -0.5976
14403TIP3   OH264623   0.902   0.829   2.881  0.4657  0.1518 -0.1918
14403TIP3    H164624   0.930   0.921   2.882  0.4760  0.1444  0.3852
14403TIP3    H264625   0.983   0.779   2.878  0.5730  0.1200  1.9646
14404TIP3   OH264626   5.328   0.646  13.851  0.1994 -0.2178 -0.5078
14404TIP3    H164627   5.345   0.723  13.905  1.4017 -0.7775 -0.0580
14404TIP3    H264628   5.290   0.681  13.770  1.1239  0.8882 -0.4843
14405TIP3   OH264629   4.748   2.649   0.505 -0.0959 -0.4445  0.2665
14405TIP3    H164630   4.757   2.682   0.595 -1.2630 -0.4423  0.4003
14405TIP3    H264631   4.757   2.727   0.450 -0.8485 -0.2018  0.4736
14406TIP3   OH264632   0.294   6.540   1.444  0.3379  0.0120  0.1055
14406TIP3    H164633   0.276   6.476   1.375  1.5406  0.7028 -0.8952
14406TIP3    H264634   0.360   6.498   1.499 -1.6592 -1.1224  1.7343
14407TIP3   OH264635   2.250   3.256   4.200 -0.1023  0.2797  0.2198
14407TIP3    H164636   2.276   3.164   4.210  0.4690  0.2644 -1.1590
14407TIP3    H264637   2.193   3.256   4.123 -0.9343  0.9417  0.8173
14408TIP3   OH264638   5.002   5.583   0.703  0.9789 -0.4010 -0.3277
14408TIP3    H164639   4.945   5.508   0.688 -0.8198  0.6236  0.9586
14408TIP3    H264640   4.945   5.659   0.695  2.5378  0.8009 -0.6369
14409TIP3   OH264641   6.267   0.738  11.290 -0.0107  0.2986 -0.2478
14409TIP3    H164642   6.259   0.832  11.273 -1.9207  0.0056 -1.2768
14409TIP3    H264643   6.278   0.699  11.204 -1.4872 -0.5794 -0.0714
14410TIP3   OH264644   1.345   3.463   2.631 -0.1915 -0.0456 -0.4841
14410TIP3    H164645   1.343   3.368   2.617 -0.5098 -0.4378  1.8085
14410TIP3    H264646   1.425   3.478   2.682 -1.6575  0.4386  1.8057
14411TIP3   OH264647   0.657   4.509   1.404 -1.0031 -0.3758  0.3531
14411TIP3    H164648   0.627   4.589   1.450  0.0372  0.0040  0.3913
14411TIP3    H264649   0.752   4.519   1.399 -0.2677 -3.4122  3.8828
14412TIP3   OH264650   1.175   6.521   1.454  0.4305  0.3455 -0.2918
14412TIP3    H164651   1.136   6.484   1.374 -0.9422  0.7975  0.1432
14412TIP3    H264652   1.101   6.559   1.501  1.6883  3.3385 -0.5269
14413TIP3   OH264653   1.677   2.438   3.134 -0.7381  0.2580  0.2838
14413TIP3    H164654   1.664   2.451   3.228  0.3666 -0.7740  0.6038
14413TIP3    H264655   1.744   2.502   3.110  0.4336 -0.8034  0.6365
14414TIP3   OH264656   1.019   0.376  12.195 -0.0229 -0.2188 -0.1210
14414TIP3    H164657   1.029   0.435  12.121  0.1891  0.3323  0.3438
14414TIP3    H264658   1.050   0.426  12.271  0.3323 -0.9766  0.2510
14415TIP3   OH264659   0.193   0.740  14.289  0.2643  0.1335 -0.5027
14415TIP3    H164660   0.135   0.687  14.233 -0.4168  1.1398 -0.7682
14415TIP3    H264661   0.186   0.699  14.375  0.4971 -0.7899 -0.9054
14416TIP3   OH264662   3.275   3.001   0.483  0.1799  0.4227 -0.3373
14416TIP3    H164663   3.349   2.979   0.427 -0.8110 -1.4783 -0.9729
14416TIP3    H264664   3.220   2.924   0.481 -1.1162  1.2530  1.2992
14417TIP3   OH264665   2.049   5.968   2.555  0.0785  0.3177 -0.2211
14417TIP3    H164666   2.043   5.904   2.484  1.7169  0.7208 -0.7632
14417TIP3    H264667   2.130   6.015   2.538 -0.5691  1.8639  0.7399
14418TIP3   OH264668   2.795   6.398   2.658 -0.4640 -0.0479 -0.7877
14418TIP3    H164669   2.799   6.385   2.752 -1.5235  0.9837 -0.5856
14418TIP3    H264670   2.845   6.478   2.642 -0.0696 -0.3561 -1.1526
14419TIP3   OH264671   2.432   3.895   0.162  0.4119 -0.2352 -0.2723
14419TIP3    H164672   2.364   3.845   0.116 -0.1716  1.7603 -1.7185
14419TIP3    H264673   2.508   3.891   0.105  1.7776 -2.7654  1.5079
14420TIP3   OH264674   2.295   6.148  16.768  0.4216  0.3685 -0.1961
14420TIP3    H164675   2.370   6.102  16.804 -0.3751 -0.8990 -0.1265
14420TIP3    H264676   2.322   6.240  16.768  2.4373 -0.1599 -1.2872
14421TIP3   OH264677   1.469   1.465  15.929 -0.4010 -0.0027 -0.3181
14421TIP3    H164678   1.507   1.544  15.968 -2.0636  0.6290  0.1154
14421TIP3    H264679   1.396   1.497  15.876 -2.0888 -1.3242  1.0817
14422TIP3   OH264680   3.036   0.082  12.603  0.2253 -0.0974  0.0944
14422TIP3    H164681   3.043   0.029  12.683  0.8931 -1.4709 -0.8285
14422TIP3    H264682   3.118   0.131  12.600 -0.6428  1.5295  1.2644
14423TIP3   OH264683   2.177   4.619  15.582 -0.3823  1.0008  0.2433
14423TIP3    H164684   2.258   4.602  15.535 -0.7719 -0.8104  0.1534
14423TIP3    H264685   2.198   4.606  15.674 -0.8241 -0.7467  0.1295
14424TIP3   OH264686   2.247   3.902  11.800 -0.3305  0.7620 -0.2374
14424TIP3    H164687   2.165   3.908  11.750 -0.1580  0.4799 -0.5609
14424TIP3    H264688   2.298   3.836  11.753  0.2605  1.2479 -0.2872
14425TIP3   OH264689   0.857   4.329   2.498  0.0211 -0.8280 -0.1135
14425TIP3    H164690   0.833   4.315   2.406 -1.6770  1.7189 -0.1789
14425TIP3    H264691   0.949   4.305   2.503  0.4496 -0.0695 -2.7794
14426TIP3   OH264692   3.264   3.136   5.706 -0.2258  0.0421  0.2896
14426TIP3    H164693   3.248   3.225   5.737  1.1752  0.4940 -0.2156
14426TIP3    H264694   3.288   3.147   5.614 -1.1881 -0.9824 -0.1046
14427TIP3   OH264695   3.998   3.136  16.606  0.0962 -0.1820  0.3152
14427TIP3    H164696   3.916   3.086  16.606 -0.4721  0.6716 -1.1888
14427TIP3    H264697   4.061   3.079  16.649  0.2864 -3.6644 -3.9332
14428TIP3   OH264698   4.920   1.850   4.594 -0.4287 -0.3286 -0.7126
14428TIP3    H164699   4.983   1.915   4.561 -0.7004  0.5928  0.5152
14428TIP3    H264700   4.910   1.872   4.686 -0.4872 -2.1727 -0.2487
14429TIP3   OH264701   1.296   1.075  17.300 -0.2330  0.3264 -0.0623
14429TIP3    H164702   1.374   1.083  17.246  0.6180  0.0623  1.0834
14429TIP3    H264703   1.268   0.984  17.288  1.1593 -0.3453  1.4910
14430TIP3   OH264704   1.273   4.052  15.416  0.4265 -0.1854  0.8490
14430TIP3    H164705   1.287   4.125  15.356  2.1602 -0.4786  0.8430
14430TIP3    H264706   1.241   3.980  15.361  3.0036 -0.7839 -0.0017
14431TIP3   OH264707   2.641   3.253  12.916 -0.1632  0.0697 -0.1744
14431TIP3    H164708   2.687   3.182  12.961  0.0780 -0.0799 -0.6554
14431TIP3    H264709   2.612   3.214  12.834 -0.7400  0.3004 -0.0847
14432TIP3   OH264710   5.825   0.309   0.070 -0.7278 -0.4992 -0.4266
14432TIP3    H164711   5.833   0.395   0.030 -0.5619  0.2531  1.1575
14432TIP3    H264712   5.794   0.326   0.158 -1.6007 -2.1417 -0.3751
14433TIP3   OH264713   2.815   2.384   0.694  0.3396 -0.0198  0.1371
14433TIP3    H164714   2.876   2.315   0.669  0.2080  0.5605 -2.0252
14433TIP3    H264715   2.852   2.464   0.656 -0.8358  0.6426  0.3097
14434TIP3   OH264716   4.546   4.700  17.168  0.1896  0.1016  0.3616
14434TIP3    H164717   4.596   4.713  17.248  1.3649 -2.2882  0.1134
14434TIP3    H264718   4.604   4.728  17.097 -0.4452  1.2008  0.2432
14435TIP3   OH264719   3.308   4.190   2.330 -0.4530 -0.0825  0.1663
14435TIP3    H164720   3.317   4.165   2.422  0.9782 -1.7877 -0.3923
14435TIP3    H264721   3.398   4.191   2.297 -0.8738  1.2857 -1.0453
14436TIP3   OH264722   5.399   0.512   2.855  0.3645  0.0532 -0.0751
14436TIP3    H164723   5.418   0.605   2.868  0.5513 -0.0024  0.0527
14436TIP3    H264724   5.371   0.506   2.764  0.3005  0.2429 -0.0695
14437TIP3   OH264725   0.258   4.334   2.469 -0.0410  0.2254 -0.2872
14437TIP3    H164726   0.345   4.374   2.464 -0.1580  0.3135 -2.0598
14437TIP3    H264727   0.223   4.338   2.380 -1.6900 -0.2251  0.2854
14438TIP3   OH264728   5.968   6.665  15.843 -0.2860  0.3593 -0.1195
14438TIP3    H164729   6.060   6.690  15.832 -0.3273  0.2426 -0.7733
14438TIP3    H264730   5.969   6.570  15.839 -0.6602  0.3859 -2.2497
14439TIP3   OH264731   1.540   3.600  17.166  0.2254  0.3186 -0.2330
14439TIP3    H164732   1.476   3.569  17.230  0.4047 -0.6779 -0.5180
14439TIP3    H264733   1.487   3.640  17.097  0.0320  1.3610  0.5053
14440TIP3   OH264734   5.818   1.198   6.491 -0.3317 -0.0987 -0.2949
14440TIP3    H164735   5.742   1.235   6.536  0.2054 -0.1421  0.6771
14440TIP3    H264736   5.843   1.265   6.427 -0.8418  0.1598 -0.2269
14441TIP3   OH264737   2.708   1.177  13.092 -0.8723  0.1559 -0.2459
14441TIP3    H164738   2.632   1.219  13.133 -1.0960 -0.4377 -0.0438
14441TIP3    H264739   2.722   1.226  13.011  1.2510  3.1613  1.7082
14442TIP3   OH264740   3.345   5.825   1.732  0.0533  0.1926 -0.0778
14442TIP3    H164741   3.380   5.849   1.646  1.0108  0.5680  0.3910
14442TIP3    H264742   3.394   5.747   1.757 -0.9247 -0.5053 -0.2880
14443TIP3   OH264743   1.622   5.268   3.323  0.0158 -0.0696  0.4297
14443TIP3    H164744   1.599   5.256   3.415  2.1610 -0.7286  0.9362
14443TIP3    H264745   1.718   5.268   3.322  0.0507  1.2127 -1.6558
14444TIP3   OH264746   1.644   2.237   6.472 -0.7426 -0.1650  0.0045
14444TIP3    H164747   1.634   2.312   6.414  1.1748 -0.1228 -0.3375
14444TIP3    H264748   1.633   2.161   6.414  0.9282 -0.1223 -0.4186
14445TIP3   OH264749   1.986   0.236  13.489  0.0656  0.0103  0.1886
14445TIP3    H164750   1.923   0.176  13.528 -0.6463  1.0423  0.6652
14445TIP3    H264751   2.068   0.187  13.488 -0.6327 -1.1908 -0.0306
14446TIP3   OH264752   3.231   2.279  10.674 -0.1299 -0.0139  0.6225
14446TIP3    H164753   3.252   2.202  10.622 -1.7654 -0.9062  1.2175
14446TIP3    H264754   3.276   2.264  10.757 -0.2270 -0.1987  0.6426
14447TIP3   OH264755   0.472   0.680  11.051  0.1600  0.7887  0.2163
14447TIP3    H164756   0.552   0.631  11.035 -0.9705 -0.7461 -1.1270
14447TIP3    H264757   0.455   0.670  11.145 -0.8178 -2.8464 -0.2125
14448TIP3   OH264758   2.205   0.207  16.654  0.1570  0.1047  0.4287
14448TIP3    H164759   2.291   0.186  16.617 -0.0257 -0.1540  0.1440
14448TIP3    H264760   2.210   0.300  16.675  0.6125  0.0214  0.7017
14449TIP3   OH264761   1.576   2.240  12.961 -0.5933  0.1685  0.4902
14449TIP3    H164762   1.580   2.327  13.000  0.0125 -0.5199  2.0655
14449TIP3    H264763   1.540   2.185  13.030 -0.2543 -0.9659 -0.2121
14450TIP3   OH264764   6.020   1.759   3.704 -0.6340  0.6561  0.2146
14450TIP3    H164765   6.020   1.822   3.776 -0.6460  0.3253  0.5041
14450TIP3    H264766   6.107   1.719   3.707 -0.4356  1.0293 -0.3000
14451TIP3   OH264767   0.601   6.529  13.921 -0.2578 -0.4305 -0.1732
14451TIP3    H164768   0.678   6.499  13.969 -0.7602 -1.1611  0.1928
14451TIP3    H264769   0.627   6.527  13.829  0.0260 -1.0825 -0.0833
14452TIP3   OH264770   0.695   0.552  11.012 -0.0070  0.0963 -0.2538
14452TIP3    H164771   0.767   0.610  11.037 -1.5921  1.8536  0.5504
14452TIP3    H264772   0.684   0.567  10.918 -0.3079  1.0623 -0.0817
14453TIP3   OH264773   0.356   2.556  12.510 -0.5311  0.2471  0.1751
14453TIP3    H164774   0.405   2.491  12.461 -1.3400  0.6172 -1.1875
14453TIP3    H264775   0.266   2.549  12.477 -0.5444  2.3846 -0.4324
14454TIP3   OH264776   2.651   6.445  11.073  0.0039 -0.0218 -0.1769
14454TIP3    H164777   2.564   6.478  11.096  0.6379  0.8883  1.0300
14454TIP3    H264778   2.637   6.392  10.995 -1.7353 -0.4479  0.3852
14455TIP3   OH264779   5.833   3.109  14.430 -0.0877 -0.1743  0.0049
14455TIP3    H164780   5.908   3.164  14.451  0.0105 -0.3702  0.1753
14455TIP3    H264781   5.816   3.061  14.511 -0.9041  0.4597  0.2266
14456TIP3   OH264782   0.674   6.396   2.171 -0.3811  0.2141 -0.1552
14456TIP3    H164783   0.587   6.359   2.158 -0.1042 -0.8441  0.8556
14456TIP3    H264784   0.729   6.322   2.194  0.7055  0.9275 -0.3785
14457TIP3   OH264785   3.860   5.100  12.690 -0.3429  0.1013  0.1727
14457TIP3    H164786   3.813   5.027  12.650 -1.8646  2.3030 -2.4489
14457TIP3    H264787   3.791   5.157  12.724  0.6989  1.0187  0.8122
14458TIP3   OH264788   1.570   1.150   5.156 -0.3144  0.0369 -0.7591
14458TIP3    H164789   1.535   1.088   5.093 -1.0024  0.5930 -0.9397
14458TIP3    H264790   1.516   1.139   5.234 -2.4771  2.4555 -1.7773
14459TIP3   OH264791   0.636   2.883   5.270  0.2844 -0.4066 -0.1188
14459TIP3    H164792   0.665   2.839   5.350  0.8674  0.0571 -0.0724
14459TIP3    H264793   0.701   2.952   5.255  2.2603 -2.6304 -2.9301
14460TIP3   OH264794   4.308   4.098  15.110  0.2375 -0.5639 -0.1159
14460TIP3    H164795   4.255   4.157  15.056 -0.0252 -0.0969  0.6396
14460TIP3    H264796   4.333   4.151  15.186  0.5046 -1.2476  0.2759
14461TIP3   OH264797   0.515   5.411   1.819 -0.4970 -0.6918  0.2493
14461TIP3    H164798   0.571   5.391   1.744 -0.7508 -2.5836  0.5071
14461TIP3    H264799   0.546   5.496   1.851  2.7775 -1.9802  0.8811
14462TIP3   OH264800   4.105   3.613   3.625  0.0433  0.2199 -0.4004
14462TIP3    H164801   4.048   3.541   3.597 -0.6914  0.2372  0.9285
14462TIP3    H264802   4.047   3.689   3.626  0.1555  0.3071  0.6411
14463TIP3   OH264803   6.224   4.391   3.626  0.2991  0.2632 -0.4879
14463TIP3    H164804   6.241   4.458   3.692  0.3468  0.5448 -0.7838
14463TIP3    H264805   6.132   4.404   3.601 -0.0522 -0.5373  0.2996
14464TIP3   OH264806   1.420   0.958   5.951  0.3212  0.4245  0.0541
14464TIP3    H164807   1.353   0.984   5.887  1.6971 -0.9390 -2.0439
14464TIP3    H264808   1.395   1.004   6.031 -2.8489  0.3541 -0.7514
14465TIP3   OH264809   2.550   1.652   0.640  0.5138 -0.0629 -0.7511
14465TIP3    H164810   2.476   1.611   0.685 -0.2723  1.0387 -0.9817
14465TIP3    H264811   2.567   1.732   0.689  0.4872  0.5074 -1.6443
14466TIP3   OH264812   0.497   5.517  11.082  0.0751  0.3746  0.1123
14466TIP3    H164813   0.477   5.506  11.175  2.2636 -0.2667  0.5570
14466TIP3    H264814   0.533   5.606  11.075 -0.3543  0.5298 -0.1912
14467TIP3   OH264815   2.744   6.571   5.044 -0.2076  0.4791  0.0426
14467TIP3    H164816   2.738   6.527   4.959 -0.6599 -0.1742  0.4005
14467TIP3    H264817   2.835   6.602   5.049 -0.5081  1.6441 -1.2074
14468TIP3   OH264818   4.055   5.526  13.323  0.4064 -0.1597  0.1171
14468TIP3    H164819   4.069   5.611  13.281 -1.0211 -0.3778 -0.8639
14468TIP3    H264820   4.057   5.463  13.251 -2.5983 -0.4924  0.2054
14469TIP3   OH264821   2.484   0.368  17.224  0.3632 -0.0997  0.2600
14469TIP3    H164822   2.421   0.382  17.295  1.0266 -2.9747  1.5559
14469TIP3    H264823   2.504   0.456  17.193 -2.6669  1.0563  1.1935
14470TIP3   OH264824   3.947   5.068  15.240 -0.4296 -0.2662 -0.8751
14470TIP3    H164825   3.921   5.098  15.153  1.5478  1.7552 -0.8655
14470TIP3    H264826   3.902   5.127  15.300  0.5950  0.3548 -0.6908
14471TIP3   OH264827   2.237   0.411  13.436  0.5355  0.1200  0.1752
14471TIP3    H164828   2.224   0.316  13.434  2.4960 -0.2129  0.7940
14471TIP3    H264829   2.185   0.441  13.510 -0.3722 -0.4047 -0.2315
14472TIP3   OH264830   2.205   3.605   4.717  0.1394 -0.4084  0.6056
14472TIP3    H164831   2.224   3.516   4.685  1.2377  0.1196 -0.2616
14472TIP3    H264832   2.144   3.640   4.651 -0.8450 -0.7364  1.3147
14473TIP3   OH264833   3.508   5.677  16.934  0.0968  0.4343  0.8891
14473TIP3    H164834   3.513   5.705  17.025  0.3182  0.6053  0.8253
14473TIP3    H264835   3.599   5.663  16.908  0.0086 -0.0581  0.8311
14474TIP3   OH264836   4.152   3.461  13.015  0.1631  0.0339  0.5332
14474TIP3    H164837   4.082   3.402  13.040 -1.4875  0.2108 -3.0244
14474TIP3    H264838   4.126   3.546  13.051 -1.2675 -0.0152 -0.3015
14475TIP3   OH264839   3.165   4.690  17.101 -0.4590  0.1900  0.1601
14475TIP3    H164840   3.153   4.600  17.134 -1.3410  1.0987  2.5312
14475TIP3    H264841   3.260   4.702  17.102 -0.3157 -0.7613 -0.3453
14476TIP3   OH264842   3.533   5.137  13.790  0.0367 -0.1021  0.5098
14476TIP3    H164843   3.504   5.207  13.731  3.3860  1.0217 -0.0102
14476TIP3    H264844   3.576   5.074  13.734  1.4550 -0.0503  1.4905
14477TIP3   OH264845   0.002   2.000  16.730 -0.3729  0.0129  0.3128
14477TIP3    H164846   0.003   2.013  16.635 -0.9334 -1.8147  0.0254
14477TIP3    H264847   0.021   1.907  16.742  1.0638  0.4585  2.0804
14478TIP3   OH264848   4.734   0.945  15.871 -0.7641 -1.0588  0.1519
14478TIP3    H164849   4.753   0.958  15.778  0.4669 -1.7299  0.2837
14478TIP3    H264850   4.772   0.859  15.891 -1.5327 -1.1847  1.1446
14479TIP3   OH264851   6.265   5.424  16.865  0.1170  0.0541 -0.0870
14479TIP3    H164852   6.325   5.353  16.843  0.9450  0.6529  0.2038
14479TIP3    H264853   6.197   5.382  16.919 -0.6715 -0.9592 -1.7730
14480TIP3   OH264854   3.970   4.870  16.266 -0.1224  0.6537  0.2277
14480TIP3    H164855   3.880   4.878  16.298 -0.5185  1.2705 -0.9761
14480TIP3    H264856   3.985   4.950  16.216  1.5168  1.0967  1.3387
14481TIP3   OH264857   1.300   4.876  15.104  0.1542  0.3357 -0.4669
14481TIP3    H164858   1.308   4.856  15.011 -2.9285 -1.9998 -0.3955
14481TIP3    H264859   1.305   4.791  15.148  1.1961  1.3463  1.5159
14482TIP3   OH264860   5.171   1.866  13.804  0.3916  0.2122  0.1431
14482TIP3    H164861   5.109   1.808  13.759  0.6789  0.9361 -1.2447
14482TIP3    H264862   5.252   1.858  13.755  0.9474  0.4951  0.9845
14483TIP3   OH264863   6.687   2.403  13.389  0.8027 -0.7389 -0.4514
14483TIP3    H164864   6.666   2.365  13.474  3.5378  0.0915  0.7053
14483TIP3    H264865   6.782   2.406  13.387  0.8122  2.3028 -2.1283
14484TIP3   OH264866   0.518   2.552   4.613  0.2274  0.3567  0.8504
14484TIP3    H164867   0.590   2.518   4.667  1.2516 -0.0156 -0.6975
14484TIP3    H264868   0.508   2.488   4.543 -0.7134  1.1131  0.2660
14485TIP3   OH264869   4.353   0.800   2.038  0.1167 -0.2342  0.1652
14485TIP3    H164870   4.342   0.731   2.104 -1.0787  0.2890  0.5363
14485TIP3    H264871   4.279   0.858   2.051  2.6528  2.9186  1.9438
14486TIP3   OH264872   3.524   4.755   4.525  0.0294 -0.4261 -0.5455
14486TIP3    H164873   3.459   4.825   4.515  1.2129  0.7988 -0.0270
14486TIP3    H264874   3.473   4.674   4.522 -1.9049  0.5195  2.2024
14487TIP3   OH264875   1.455   6.616  10.964 -0.4360 -0.0054  0.5217
14487TIP3    H164876   1.521   6.668  10.916 -0.4756 -1.8518 -1.7173
14487TIP3    H264877   1.374   6.630  10.915 -1.1513  0.1599  1.7061
14488TIP3   OH264878   1.415   2.440   4.004  0.6738  0.0350  0.3461
14488TIP3    H164879   1.389   2.530   4.022  1.7630  0.5487 -0.4985
14488TIP3    H264880   1.341   2.403   3.956  0.3775  0.6011  0.3594
14489TIP3   OH264881   2.576   5.373  16.289 -0.7204  0.0347  0.3706
14489TIP3    H164882   2.634   5.406  16.357 -1.1047  2.4429 -0.3587
14489TIP3    H264883   2.610   5.286  16.268 -0.7045 -0.8766  3.6886
14490TIP3   OH264884   0.762   6.557   0.759 -0.1701  0.2382  0.3847
14490TIP3    H164885   0.751   6.651   0.769 -0.1341  0.6423 -2.3951
14490TIP3    H264886   0.704   6.534   0.686  0.2519 -1.7927  0.6288
14491TIP3   OH264887   4.854   5.021  16.796  0.4238  0.3087  0.4935
14491TIP3    H164888   4.842   5.115  16.801 -0.3794  0.2108  0.5802
14491TIP3    H264889   4.769   4.984  16.820  0.3763 -0.4094 -0.6520
14492TIP3   OH264890   2.916   2.476   3.682  0.3153 -0.1057 -0.5458
14492TIP3    H164891   2.829   2.435   3.682  0.2281  0.0696 -0.9830
14492TIP3    H264892   2.899   2.568   3.700  0.1770  0.3484 -2.7035
14493TIP3   OH264893   3.726   6.301   3.644  0.1449  0.1716  0.3722
14493TIP3    H164894   3.667   6.349   3.702  1.8814  0.9072  1.6182
14493TIP3    H264895   3.811   6.342   3.658  1.0949 -1.3019 -0.8388
14494TIP3   OH264896   1.722   5.279  12.455  0.4799 -0.4070 -0.4151
14494TIP3    H164897   1.675   5.311  12.377  0.7634  0.8933 -0.0615
14494TIP3    H264898   1.800   5.236  12.419  1.4826  1.6293 -0.8341
14495TIP3   OH264899   5.463   0.873  13.222 -0.6693  0.4699  0.3852
14495TIP3    H164900   5.538   0.873  13.280 -1.6941  3.0813  1.8549
14495TIP3    H264901   5.485   0.934  13.152 -1.3384  1.1425  0.7459
14496TIP3   OH264902   4.397   2.657   1.641  0.2329  0.1868 -0.4833
14496TIP3    H164903   4.442   2.738   1.663  1.2768  0.0255 -1.8803
14496TIP3    H264904   4.404   2.603   1.720 -0.6159  1.4844  0.5202
14497TIP3   OH264905   3.014   5.953  15.058  0.1908  0.2580  0.0230
14497TIP3    H164906   3.086   5.918  15.111 -0.0707  0.2917  0.4034
14497TIP3    H264907   2.947   5.978  15.122  0.5654  1.9331 -0.1940
14498TIP3   OH264908   1.141   2.411  15.373 -0.1210  0.9916 -0.0880
14498TIP3    H164909   1.053   2.378  15.394 -0.1711  0.7318 -0.6969
14498TIP3    H264910   1.128   2.504  15.355 -0.2143  1.0290  0.1666
14499TIP3   OH264911   3.562   4.171   1.576 -0.2114 -0.5231 -0.2657
14499TIP3    H164912   3.564   4.265   1.594 -0.6957 -0.3065 -1.2790
14499TIP3    H264913   3.622   4.160   1.502 -1.1884 -0.8039 -1.0231
14500TIP3   OH264914   4.748   0.081   5.740  0.4243 -0.2371 -0.4534
14500TIP3    H164915   4.805   0.012   5.775 -0.7141 -1.6186 -1.2126
14500TIP3    H264916   4.678   0.033   5.696 -1.0496  1.4268  0.0051
14501TIP3   OH264917   6.265   3.364  11.851  0.1222 -0.2447 -0.3542
14501TIP3    H164918   6.262   3.457  11.829 -0.2153 -0.2366 -0.2702
14501TIP3    H264919   6.211   3.356  11.930 -0.1525 -0.5731 -0.5752
14502TIP3   OH264920   5.150   6.641  16.723  1.0239 -0.2925 -0.0841
14502TIP3    H164921   5.064   6.642  16.681  0.3321 -0.2577  1.2645
14502TIP3    H264922   5.197   6.715  16.684 -0.2162  0.8085  0.4209
14503TIP3   OH264923   6.072   6.645   0.725 -0.4116  0.3092  0.3430
14503TIP3    H164924   6.037   6.733   0.719  0.5086  0.6260 -0.9828
14503TIP3    H264925   6.066   6.611   0.636 -0.0576 -0.6764  0.6834
14504TIP3   OH264926   1.420   4.579   2.627  0.3871 -0.2618  0.4012
14504TIP3    H164927   1.386   4.667   2.608  0.1402 -0.3915  0.2439
14504TIP3    H264928   1.476   4.592   2.704 -1.0793 -0.2657  1.5070
14505TIP3   OH264929   3.219   2.714  10.929 -0.3046  0.0476  0.4609
14505TIP3    H164930   3.245   2.801  10.898 -0.1990  0.1957  0.9532
14505TIP3    H264931   3.282   2.655  10.890 -0.6084  0.1458 -0.1924
14506TIP3   OH264932   2.671   5.007  14.875  0.2693  0.2311 -0.3125
14506TIP3    H164933   2.622   5.042  14.950  1.1002  1.3702 -0.2754
14506TIP3    H264934   2.758   5.047  14.883  1.0811 -1.3681 -0.6388
14507TIP3   OH264935   6.687   1.150   2.861  0.3384 -0.1576  0.1179
14507TIP3    H164936   6.596   1.132   2.885 -0.1760  0.1754 -1.4753
14507TIP3    H264937   6.739   1.098   2.923 -0.9360 -0.5978  0.8492
14508TIP3   OH264938   4.594   0.000  15.119 -0.0814  0.4105  0.1259
14508TIP3    H164939   4.594  -0.090  15.086 -0.0749  0.7921 -0.9660
14508TIP3    H264940   4.605  -0.008  15.213  0.3480 -0.7157 -0.0131
14509TIP3   OH264941   3.389   2.539  15.297  0.1532  0.1980  0.4286
14509TIP3    H164942   3.357   2.614  15.347  0.8793  2.2746 -1.9804
14509TIP3    H264943   3.319   2.521  15.234  2.3162  3.3003 -3.3527
14510TIP3   OH264944   6.098   2.887  15.827  1.0529  0.2696  0.4390
14510TIP3    H164945   6.172   2.917  15.880  0.2899  0.9999  1.1177
14510TIP3    H264946   6.138   2.832  15.759  2.1181 -0.0875  1.3264
14511TIP3   OH264947   4.681   1.902   1.067  0.3510 -0.0261  0.6188
14511TIP3    H164948   4.759   1.865   1.025  0.6989  1.5931 -0.2240
14511TIP3    H264949   4.639   1.827   1.109  0.5417 -1.5803 -1.7431
14512TIP3   OH264950   3.213   5.245  15.146 -0.2120  0.3889 -0.2939
14512TIP3    H164951   3.294   5.235  15.196 -0.6176  0.4179  0.3835
14512TIP3    H264952   3.220   5.182  15.075  0.1312 -0.0504  0.1263
14513TIP3   OH264953   4.350   1.725   5.855 -0.4781  1.1056 -0.2610
14513TIP3    H164954   4.279   1.663   5.842  0.4592 -0.1331  0.3136
14513TIP3    H264955   4.332   1.796   5.793 -0.8164 -0.3978 -1.9493
14514TIP3   OH264956   1.452   3.181  11.754  0.3124 -0.2312 -0.1503
14514TIP3    H164957   1.407   3.100  11.730  1.3665 -0.9288  0.1501
14514TIP3    H264958   1.534   3.152  11.793 -0.0723  0.9419  1.6583
14515TIP3   OH264959   0.457   6.187  17.359 -0.1430  0.2489 -0.6469
14515TIP3    H164960   0.547   6.218  17.355 -0.0681  0.2628  0.8253
14515TIP3    H264961   0.404   6.264  17.342  0.1059  0.2322 -1.5599
14516TIP3   OH264962   5.203   1.010  11.142 -1.0902 -0.1677 -0.0988
14516TIP3    H164963   5.228   1.095  11.106  1.7759 -0.3766  1.1032
14516TIP3    H264964   5.269   0.949  11.109 -1.6099 -1.4228  1.0558
14517TIP3   OH264965   1.981   5.370   1.597 -0.5282 -0.1951 -0.3170
14517TIP3    H164966   1.890   5.358   1.570 -0.1874 -1.0843 -1.1102
14517TIP3    H264967   1.993   5.465   1.601 -2.1514 -0.0041  2.1440
14518TIP3   OH264968   1.649   4.294   2.631 -0.0357  0.0526 -0.2621
14518TIP3    H164969   1.603   4.335   2.558 -0.4922 -2.1046 -1.2697
14518TIP3    H264970   1.586   4.294   2.703  0.0315  1.1980 -0.1871
14519TIP3   OH264971   1.712   6.665  12.639  0.2764 -0.4431 -0.1932
14519TIP3    H164972   1.643   6.720  12.675  0.5062 -0.6834  0.6346
14519TIP3    H264973   1.780   6.726  12.611  1.0256 -0.3082  1.7482
14520TIP3   OH264974   1.441   2.461   0.837 -0.0609 -0.2893  0.2097
14520TIP3    H164975   1.349   2.479   0.858 -0.1101  0.3444 -0.4800
14520TIP3    H264976   1.440   2.434   0.745  0.2675 -1.9252  0.6554
14521TIP3   OH264977   5.206   4.465  12.730 -0.4375 -0.3411  0.1900
14521TIP3    H164978   5.244   4.531  12.788  0.2552  0.5091 -1.1834
14521TIP3    H264979   5.113   4.466  12.751 -0.1616 -0.3196  1.5236
14522TIP3   OH264980   3.138   4.842   3.074  0.1326  0.3438 -0.0544
14522TIP3    H164981   3.205   4.880   3.017  0.4540  1.0343  0.7665
14522TIP3    H264982   3.113   4.914   3.133  0.8201 -0.7192  1.5961
14523TIP3   OH264983   1.544   4.112   5.148 -0.6332 -0.0321  0.0263
14523TIP3    H164984   1.501   4.198   5.144  0.3310  0.5265  1.0295
14523TIP3    H264985   1.510   4.064   5.072 -2.8686  0.4365  0.6639
14524TIP3   OH264986   4.553   6.655   2.995  0.2580 -0.1876 -0.1463
14524TIP3    H164987   4.577   6.564   3.014  1.0146 -0.2655 -1.3652
14524TIP3    H264988   4.614   6.682   2.926 -0.9031  0.7740 -0.8345
14525TIP3   OH264989   0.595   5.808  11.832 -0.1605  0.0733  0.2541
14525TIP3    H164990   0.582   5.898  11.803 -1.1126 -0.3327 -0.6114
14525TIP3    H264991   0.527   5.794  11.897  0.5443  0.2425  1.0550
14526TIP3   OH264992   2.270   0.285  15.608  0.3138 -0.4317  0.3020
14526TIP3    H164993   2.184   0.322  15.587 -0.2265 -0.0582  2.7941
14526TIP3    H264994   2.308   0.262  15.524 -1.2937  1.4767 -1.0337
14527TIP3   OH264995   6.448   0.695  13.885  0.0942  0.8705 -0.0181
14527TIP3    H164996   6.452   0.740  13.800  2.0984  1.6583  0.4361
14527TIP3    H264997   6.468   0.604  13.865  1.9179  1.2872 -0.2867
14528TIP3   OH264998   2.515   6.078  14.728 -0.0877  0.1927 -0.3012
14528TIP3    H164999   2.498   6.034  14.811 -1.3111 -0.8107 -1.0317
14528TIP3    H265000   2.604   6.053  14.705 -0.0511 -0.2421  0.2982
14529TIP3   OH265001   5.176   2.179  12.540 -0.3252  0.0397  0.2485
14529TIP3    H165002   5.243   2.169  12.472 -0.8299  0.5590 -0.3470
14529TIP3    H265003   5.224   2.209  12.617 -0.0258  1.8403 -0.5774
14530TIP3   OH265004   5.663   0.473  13.356 -0.0707 -0.3259  0.7503
14530TIP3    H165005   5.717   0.395  13.368  0.8798  0.2668  0.4047
14530TIP3    H265006   5.724   0.541  13.330 -0.9779  0.3834  0.4132
14531TIP3   OH265007   5.782   2.068  12.230  0.6460  0.2106  0.1351
14531TIP3    H165008   5.799   1.993  12.287 -2.5263 -0.2397  0.6827
14531TIP3    H265009   5.747   2.136  12.288  2.6541  1.8730 -0.4832
14532TIP3   OH265010   3.778   6.359  13.928  0.0009  0.1319 -0.3280
14532TIP3    H165011   3.775   6.450  13.959  2.8224 -0.1130  0.9545
14532TIP3    H265012   3.834   6.314  13.991  0.3816 -2.0283 -2.0965
14533TIP3   OH265013   3.244   4.952  14.385  0.5808 -0.0672  0.3025
14533TIP3    H165014   3.200   4.988  14.307  0.2863 -1.2752 -0.1169
14533TIP3    H265015   3.297   5.024  14.418  1.5268  0.1866 -1.6156
14534TIP3   OH265016   0.076   2.633  13.894 -0.2631 -0.6258 -0.4813
14534TIP3    H165017   0.147   2.592  13.843 -0.2733 -1.7572  0.3561
14534TIP3    H265018   0.115   2.647  13.981 -1.0368 -1.2484 -0.0149
14535TIP3   OH265019   6.717   4.750  16.516  0.2609  0.8548 -0.0859
14535TIP3    H165020   6.654   4.679  16.503  0.8440  0.3971 -0.4767
14535TIP3    H265021   6.702   4.809  16.441  0.1841  0.8394 -0.0833
14536TIP3   OH265022   2.137   5.189   5.885 -0.0071  0.0134  0.6993
14536TIP3    H165023   2.149   5.108   5.835 -1.5910  0.3556 -0.2740
14536TIP3    H265024   2.071   5.167   5.951 -1.2892  0.8197 -0.3074
14537TIP3   OH265025   4.401   1.632   4.376 -0.3953 -0.4892  0.1201
14537TIP3    H165026   4.425   1.546   4.342  1.4699  0.0072  0.0559
14537TIP3    H265027   4.338   1.667   4.313  1.6968 -0.2914 -1.9770
14538TIP3   OH265028   0.954   2.030   1.321 -0.4549 -0.8147 -0.1964
14538TIP3    H165029   0.954   1.947   1.369 -2.3476 -0.6703  0.1321
14538TIP3    H265030   1.046   2.048   1.304 -0.0026 -3.2244 -0.6891
14539TIP3   OH265031   0.407   5.561  15.226  0.5308  0.3813 -0.0085
14539TIP3    H165032   0.435   5.637  15.176 -2.2133  0.9025 -0.9319
14539TIP3    H265033   0.336   5.523  15.175 -1.0144 -0.3114  2.4486
14540TIP3   OH265034   4.420   2.569  10.679  0.0148 -0.7990 -0.6259
14540TIP3    H165035   4.397   2.613  10.761 -0.4550  0.9518 -1.6487
14540TIP3    H265036   4.496   2.618  10.647 -0.9979 -0.1739 -2.1800
14541TIP3   OH265037   2.622   3.372   4.981 -0.2459  0.3947 -0.2157
14541TIP3    H165038   2.533   3.398   5.004 -0.6985 -0.4769 -0.9177
14541TIP3    H265039   2.668   3.368   5.065 -1.0907  0.0408  0.2427
14542TIP3   OH265040   0.698   0.132   5.588 -0.1573  0.1396 -0.1592
14542TIP3    H165041   0.606   0.106   5.585 -0.6799  1.6497  1.1891
14542TIP3    H265042   0.707   0.192   5.513 -0.2497 -0.0845 -0.3507
14543TIP3   OH265043   0.547   0.806   0.763  0.0843  0.5667  0.0248
14543TIP3    H165044   0.629   0.761   0.778 -0.0440 -0.1949 -1.4287
14543TIP3    H265045   0.480   0.737   0.765 -0.0126  0.3888 -3.2044
14544TIP3   OH265046   1.360   1.960   4.624 -0.1095  0.1906 -0.6698
14544TIP3    H165047   1.300   1.956   4.550 -0.6438  0.1122 -0.2391
14544TIP3    H265048   1.371   1.868   4.651 -0.6788  0.3006 -0.0516
14545TIP3   OH265049   1.433   4.864   4.392 -0.7806  0.0122  0.0791
14545TIP3    H165050   1.394   4.779   4.411  1.2031 -1.0590 -0.4388
14545TIP3    H265051   1.497   4.878   4.462  0.3158  0.1293 -0.9110
14546TIP3   OH265052   5.030   0.734   5.337 -0.2864 -0.2427  0.1373
14546TIP3    H165053   5.002   0.825   5.337  0.5565  0.0677 -1.7202
14546TIP3    H265054   5.102   0.731   5.400  0.7246  0.7621 -0.9289
14547TIP3   OH265055   3.476   4.239   2.782  0.5967 -0.3406 -0.2340
14547TIP3    H165056   3.383   4.218   2.788  0.3885  0.7180  0.5640
14547TIP3    H265057   3.514   4.208   2.864  0.9619 -0.7803 -0.5597
14548TIP3   OH265058   3.653   3.561  12.720 -0.1781 -0.2251 -0.7473
14548TIP3    H165059   3.711   3.486  12.734 -1.1376 -0.8289  0.1318
14548TIP3    H265060   3.695   3.632  12.767  0.0703 -0.5521 -0.4672
14549TIP3   OH265061   1.532   1.990   0.840  0.1430  0.0844  0.2873
14549TIP3    H165062   1.623   1.976   0.866  0.1861  0.6037  0.4241
14549TIP3    H265063   1.496   2.049   0.906 -0.8484 -1.5694  1.2997
14550TIP3   OH265064   3.555   4.681  16.934 -0.0560  0.5038 -0.0332
14550TIP3    H165065   3.650   4.690  16.926  0.0024 -0.8080 -1.2658
14550TIP3    H265066   3.535   4.718  17.019  1.2886  2.7146 -0.5807
14551TIP3   OH265067   1.448   3.542  16.207  0.4624 -0.2639 -0.0353
14551TIP3    H165068   1.380   3.577  16.265 -1.0130 -1.7609 -0.7759
14551TIP3    H265069   1.433   3.585  16.123  1.1809  0.2358  0.0803
14552TIP3   OH265070   3.573   0.565   3.029  0.2454  0.1093  0.0691
14552TIP3    H165071   3.613   0.622   3.094  0.5750  0.1235 -0.1436
14552TIP3    H265072   3.496   0.612   3.000  0.4317  0.3790  0.0070
14553TIP3   OH265073   1.042   1.057   4.615 -0.0803  0.0068  0.0015
14553TIP3    H165074   1.132   1.089   4.611  0.0136 -0.3925 -1.9517
14553TIP3    H265075   1.048   0.964   4.593 -1.0825  0.2402 -1.3609
14554TIP3   OH265076   4.735   1.584   2.438 -0.0185 -0.0481 -0.7205
14554TIP3    H165077   4.681   1.655   2.403 -1.5115 -0.1051  1.3418
14554TIP3    H265078   4.751   1.609   2.529  3.0469 -0.3124 -1.0756
14555TIP3   OH265079   0.234   0.834  12.356  0.0925 -0.4395  0.1057
14555TIP3    H165080   0.176   0.908  12.377 -1.3342 -1.6782  0.7950
14555TIP3    H265081   0.313   0.874  12.320  0.0732  1.5127  2.0346
14556TIP3   OH265082   1.763   6.330  11.499 -0.3670  0.4003  1.1752
14556TIP3    H165083   1.775   6.373  11.414 -0.1819 -1.1441  0.3836
14556TIP3    H265084   1.737   6.401  11.558 -0.2327  1.5582 -0.0987
14557TIP3   OH265085   4.915   4.565  16.312 -0.0285  0.2002 -0.3382
14557TIP3    H165086   4.842   4.519  16.353  0.5204  0.7485  1.3310
14557TIP3    H265087   4.962   4.498  16.263 -0.9705 -0.3866 -0.4549
14558TIP3   OH265088   3.510   3.477   0.309  0.3069 -0.3045 -0.0873
14558TIP3    H165089   3.594   3.445   0.342 -0.1387 -0.6735  0.7079
14558TIP3    H265090   3.456   3.489   0.387 -0.0831  0.8240 -0.5091
14559TIP3   OH265091   6.190   4.838   0.717 -0.4195  0.3735 -0.2624
14559TIP3    H165092   6.202   4.932   0.706  0.7442  0.1290 -1.3996
14559TIP3    H265093   6.128   4.829   0.789  1.5324  1.9564  1.7170
14560TIP3   OH265094   3.404   3.210  16.810  0.3837 -0.0709 -0.2651
14560TIP3    H165095   3.457   3.134  16.829  0.0756 -0.0125  0.8890
14560TIP3    H265096   3.466   3.276  16.779  0.8962 -0.2145  0.4429
14561TIP3   OH265097   4.268   4.399  15.933  0.0553 -0.0859 -0.4685
14561TIP3    H165098   4.205   4.419  15.863 -0.9875  0.6708  0.6506
14561TIP3    H265099   4.347   4.373  15.886 -0.7182  0.0647 -1.9376
14562TIP3   OH265100   3.186   0.308  15.159 -0.5370 -0.3704  0.3709
14562TIP3    H165101   3.095   0.283  15.141 -0.2233 -0.3308 -1.5421
14562TIP3    H265102   3.237   0.229  15.140 -0.0599 -0.0071  0.0987
14563TIP3   OH265103   3.281   4.892  11.505 -0.2412  0.4808  0.0174
14563TIP3    H165104   3.268   4.883  11.599 -1.4147 -2.8477 -0.3307
14563TIP3    H265105   3.342   4.823  11.482  0.5824  1.6769 -1.6245
14564TIP3   OH265106   5.322   1.974  16.291  0.1062 -0.4929 -0.4297
14564TIP3    H165107   5.274   1.975  16.374  0.7507  1.2189 -0.0379
14564TIP3    H265108   5.341   2.066  16.273 -0.4936 -0.7681 -2.7808
14565TIP3   OH265109   3.806   6.330   4.912  0.2518  0.0617  0.3497
14565TIP3    H165110   3.828   6.361   5.000 -0.0898  1.5099 -0.0405
14565TIP3    H265111   3.839   6.399   4.854  1.4390 -1.3724 -0.7577
14566TIP3   OH265112   5.474   0.605   0.512 -0.4024  0.7186  0.6498
14566TIP3    H165113   5.495   0.601   0.605 -1.2828  0.6890  0.8550
14566TIP3    H265114   5.413   0.678   0.504 -1.0730  0.1299  0.2498
14567TIP3   OH265115   6.525   1.144  14.795  0.1576  0.2648  0.3306
14567TIP3    H165116   6.510   1.051  14.809  0.1693  0.1166 -0.5745
14567TIP3    H265117   6.620   1.154  14.797  0.2361  0.0081 -0.9169
14568TIP3   OH265118   3.974   3.360  17.001  0.1232  0.6842 -0.2429
14568TIP3    H165119   3.910   3.409  16.950  0.3186  1.2372  0.0392
14568TIP3    H265120   4.046   3.343  16.941 -0.3565 -0.0873 -0.6122
14569TIP3   OH265121   1.553   5.261   3.650 -0.0169  0.2473 -0.5483
14569TIP3    H165122   1.488   5.202   3.686 -1.1108  1.1388 -1.0113
14569TIP3    H265123   1.544   5.342   3.700  1.6363 -0.0109  0.2555
14570TIP3   OH265124   1.370   2.842  13.549 -0.6780  0.0984 -0.2764
14570TIP3    H165125   1.375   2.756  13.591 -2.7460 -0.7579 -1.6675
14570TIP3    H265126   1.452   2.850  13.500 -0.8347 -1.4904 -0.8358
14571TIP3   OH265127   2.383   0.801  14.797  0.2562 -0.1716  0.1389
14571TIP3    H165128   2.360   0.872  14.858 -1.1391 -0.1931 -0.3203
14571TIP3    H265129   2.303   0.748  14.792  1.2671 -1.7874  0.4537
14572TIP3   OH265130   4.606   5.666   1.191 -0.1159  0.0569 -0.3490
14572TIP3    H165131   4.584   5.641   1.280  2.1007  0.1193  0.2678
14572TIP3    H265132   4.614   5.761   1.193  0.3435  0.0284 -0.4906
14573TIP3   OH265133   3.196   5.231  15.918 -0.4312 -0.1550 -0.2039
14573TIP3    H165134   3.161   5.313  15.884  0.2710  1.4710  2.6841
14573TIP3    H265135   3.141   5.211  15.994  1.1065 -0.8401  0.7689
14574TIP3   OH265136   3.008   0.100  11.613  0.3375  0.1108 -0.5977
14574TIP3    H165137   2.981   0.074  11.702 -0.9580  1.4938 -0.5358
14574TIP3    H265138   3.090   0.053  11.598  0.4465 -0.3698  1.2286
14575TIP3   OH265139   4.477   0.931  14.750  0.0699  0.1986  0.4271
14575TIP3    H165140   4.398   0.907  14.799  0.4025  0.1210  0.9254
14575TIP3    H265141   4.543   0.867  14.777 -0.1137 -0.7221 -1.1656
14576TIP3   OH265142   1.065   5.993  14.252 -0.3181 -0.5167  0.0345
14576TIP3    H165143   0.998   5.995  14.183 -0.6811 -1.1656  0.3559
14576TIP3    H265144   1.144   6.027  14.210 -1.1333  1.4416 -0.0192
14577TIP3   OH265145   3.251   2.665   4.879  0.3970  0.2088 -0.2845
14577TIP3    H165146   3.346   2.673   4.888  0.2774  1.7780 -0.1016
14577TIP3    H265147   3.216   2.734   4.936 -0.8430 -0.1781 -0.5488
14578TIP3   OH265148   2.613   0.222   2.697 -0.3541 -0.1999  0.1701
14578TIP3    H165149   2.621   0.228   2.792  0.7243  1.5136  0.0183
14578TIP3    H265150   2.633   0.310   2.665  0.5727 -1.0201 -1.7176
14579TIP3   OH265151   5.716   4.213  16.735 -0.1739  0.1597 -0.1011
14579TIP3    H165152   5.777   4.230  16.664  1.8929  0.3399  1.5917
14579TIP3    H265153   5.757   4.142  16.785  0.4918  2.4277  2.9368
14580TIP3   OH265154   1.537   4.446   2.435  0.9097 -0.4422  0.2972
14580TIP3    H165155   1.477   4.501   2.485  2.3997  0.6837  0.9327
14580TIP3    H265156   1.490   4.427   2.354  0.5101  2.2908 -0.2067
14581TIP3   OH265157   1.315   1.942  15.078 -0.0766 -0.2940 -0.5969
14581TIP3    H165158   1.285   1.928  15.168 -0.1784 -0.0565 -0.5938
14581TIP3    H265159   1.392   1.885  15.070 -2.5572 -3.8515 -1.7630
14582TIP3   OH265160   2.106   5.402   4.767  0.0317  0.3065  0.1862
14582TIP3    H165161   2.084   5.311   4.747 -2.3890  0.4997  1.4976
14582TIP3    H265162   2.199   5.410   4.746  0.4270 -2.5798  0.4017
14583TIP3   OH265163   6.725   2.885   4.919 -0.9709 -0.3925 -0.0835
14583TIP3    H165164   6.793   2.861   4.982  0.1331 -1.9496 -1.7427
14583TIP3    H265165   6.770   2.939   4.854 -1.3329 -1.2443 -1.0774
14584TIP3   OH265166   0.768   1.081  10.634 -0.5032 -0.3701 -0.3168
14584TIP3    H165167   0.845   1.076  10.576  1.1062  1.4692  1.5298
14584TIP3    H265168   0.766   0.996  10.677  1.2461 -0.0574  0.4567
14585TIP3   OH265169   2.507   0.107  12.767 -0.5281 -0.4909  0.4070
14585TIP3    H165170   2.413   0.115  12.784 -0.7864 -0.1915 -1.0511
14585TIP3    H265171   2.513   0.053  12.688  0.5518 -0.7929  0.6765
14586TIP3   OH265172   2.652   5.267  11.728 -0.0560 -0.1242  0.3406
14586TIP3    H165173   2.569   5.230  11.759 -0.3731 -0.9829 -1.4365
14586TIP3    H265174   2.664   5.346  11.781 -1.7243 -0.2737  1.0023
14587TIP3   OH265175   0.471   5.345  14.003 -0.1198 -0.3577  0.5477
14587TIP3    H165176   0.481   5.408  14.074 -1.5360  0.6217 -0.0775
14587TIP3    H265177   0.561   5.330  13.972  0.3327  0.6339  1.3194
14588TIP3   OH265178   1.500   4.974  12.864  0.1857 -0.2947  0.6001
14588TIP3    H165179   1.523   5.046  12.806 -1.5840 -0.3336 -0.2322
14588TIP3    H265180   1.405   4.982  12.875  0.2129 -1.4023  1.9982
14589TIP3   OH265181   6.724   2.857  13.975  0.1159  0.1164  0.0362
14589TIP3    H165182   6.734   2.820  14.063  1.3400 -1.7936 -0.8456
14589TIP3    H265183   6.768   2.795  13.918 -1.6748  0.6962 -2.1052
14590TIP3   OH265184   0.568   0.447  11.901  0.0072  0.0479 -0.0322
14590TIP3    H165185   0.597   0.502  11.828  1.6346 -0.4995  0.1508
14590TIP3    H265186   0.625   0.471  11.974 -0.2849 -0.7780  0.4841
14591TIP3   OH265187   1.817   1.701  15.437 -0.4894 -0.4900  0.1280
14591TIP3    H165188   1.891   1.701  15.377 -1.0619 -0.8967 -0.5965
14591TIP3    H265189   1.764   1.626  15.410 -0.8798 -0.5463  0.9958
14592TIP3   OH265190   1.962   5.180   4.462 -0.2860 -0.0204 -0.0967
14592TIP3    H165191   1.885   5.237   4.465 -1.1511 -1.2081  1.3781
14592TIP3    H265192   1.935   5.107   4.405 -1.7080 -2.3126  3.2172
14593TIP3   OH265193   4.420   5.659   3.867 -0.2770  0.2400  0.5911
14593TIP3    H165194   4.331   5.691   3.884 -0.1642  0.8689  0.0604
14593TIP3    H265195   4.430   5.582   3.924 -0.9606  0.4913  1.0581
14594TIP3   OH265196   6.516   5.710  13.345  0.2515 -0.1791  0.3996
14594TIP3    H165197   6.438   5.685  13.395  0.3096 -0.0143  0.5702
14594TIP3    H265198   6.556   5.626  13.320  0.1012 -0.2616  0.4380
14595TIP3   OH265199   2.674   4.331   3.983  0.2433 -0.0027  0.0223
14595TIP3    H165200   2.625   4.251   4.001  0.9379 -0.1076  1.5701
14595TIP3    H265201   2.725   4.311   3.904  2.0510 -1.8824  1.5760
14596TIP3   OH265202   2.334   0.984   1.568  0.4720 -0.3414  0.2896
14596TIP3    H165203   2.282   0.996   1.647  0.9994  0.4902  0.5223
14596TIP3    H265204   2.424   0.992   1.596  0.6608  0.1675 -0.4202
14597TIP3   OH265205   4.107   6.450   0.821 -0.1069  0.1783  0.6000
14597TIP3    H165206   4.152   6.434   0.904  0.2846  2.7192  0.9593
14597TIP3    H265207   4.094   6.545   0.819 -2.2638 -0.0791 -1.1654
14598TIP3   OH265208   0.785   0.663  12.729 -0.1924 -0.1275  0.1869
14598TIP3    H165209   0.710   0.603  12.732  1.0485 -1.6989  2.2402
14598TIP3    H265210   0.759   0.736  12.784  0.1493 -1.2282  1.8955
14599TIP3   OH265211   2.337   0.104   3.317  0.3952 -0.2489  0.0067
14599TIP3    H165212   2.405   0.038   3.328 -1.0743 -2.0399 -1.0211
14599TIP3    H265213   2.326   0.143   3.404  1.9418 -0.6746  0.4221
14600TIP3   OH265214   1.621   6.287   4.284  0.1047 -0.1454 -1.0584
14600TIP3    H165215   1.655   6.333   4.362 -0.7453 -1.4124  0.1023
14600TIP3    H265216   1.648   6.196   4.296 -0.5691 -0.4753 -1.9375
14601TIP3   OH265217   3.614   1.220  16.124 -0.1719  0.0827 -0.0286
14601TIP3    H165218   3.681   1.153  16.134 -0.0813  0.2231  0.3447
14601TIP3    H265219   3.601   1.228  16.030 -0.6144 -0.8848 -0.0613
14602TIP3   OH265220   4.930   1.694  13.403  0.0464  0.0803  0.0745
14602TIP3    H165221   4.903   1.633  13.335 -1.3294  1.2145 -0.4484
14602TIP3    H265222   4.875   1.772  13.388  0.8807  0.9664  1.4639
14603TIP3   OH265223   6.437   3.193  11.993 -0.2361  0.0752  0.4722
14603TIP3    H165224   6.376   3.123  11.971  0.8189 -0.3102 -1.4016
14603TIP3    H265225   6.403   3.270  11.947  1.4865 -0.5193 -1.9515
14604TIP3   OH265226   3.850   5.281   0.125  0.1468  0.0599 -0.1508
14604TIP3    H165227   3.781   5.240   0.177  0.6250 -1.1496 -0.4216
14604TIP3    H265228   3.805   5.316   0.048 -0.0777 -1.5138 -0.7758
14605TIP3   OH265229   0.608   3.380  17.234  0.2538  0.2631  0.3628
14605TIP3    H165230   0.532   3.438  17.228  0.5115  0.6800  0.9493
14605TIP3    H265231   0.581   3.313  17.297  0.3651  0.4196  0.5824
14606TIP3   OH265232   2.684   4.624  16.401 -0.2233  0.8136  0.4599
14606TIP3    H165233   2.759   4.683  16.393 -0.2179  0.6564 -0.8930
14606TIP3    H265234   2.644   4.624  16.314 -0.9913 -0.1620  0.7906
14607TIP3   OH265235   1.348   1.443  12.030 -0.0511 -0.2084 -0.1749
14607TIP3    H165236   1.288   1.515  12.012 -1.7306 -1.7842 -1.2149
14607TIP3    H265237   1.398   1.434  11.948 -0.9100 -1.1692 -0.6080
14608TIP3   OH265238   6.318   2.145   0.499  0.6467 -0.3639 -0.1201
14608TIP3    H165239   6.319   2.232   0.460 -0.1665  0.2111  1.0803
14608TIP3    H265240   6.251   2.097   0.449  0.9537 -0.2527 -0.6502
14609TIP3   OH265241   4.084   4.450  13.756  0.0124  0.3612 -0.0108
14609TIP3    H165242   4.139   4.485  13.686  0.0871 -0.2431 -0.2575
14609TIP3    H265243   4.031   4.383  13.713  1.0614 -1.0181  0.7841
14610TIP3   OH265244   2.024   5.272   3.850  0.5309 -0.3067 -0.9222
14610TIP3    H165245   2.049   5.250   3.939 -1.6745 -0.0489 -0.1848
14610TIP3    H265246   2.032   5.367   3.845  0.9219 -0.3436 -1.1226
14611TIP3   OH265247   4.810   2.743   1.167  0.2848  0.3158 -0.5392
14611TIP3    H165248   4.878   2.805   1.138 -1.4488  1.9992 -1.2869
14611TIP3    H265249   4.741   2.799   1.204 -0.5016 -1.3552  0.6234
14612TIP3   OH265250   2.020   6.377  13.702  0.9377  0.1544  0.0723
14612TIP3    H165251   2.045   6.355  13.613  0.9355  0.4435  0.0011
14612TIP3    H265252   2.102   6.375  13.752  0.6296 -2.6977  0.6456
14613TIP3   OH265253   2.029   0.951   0.520  0.5049 -0.0518  0.6302
14613TIP3    H165254   2.077   0.998   0.588  2.2688 -0.6571 -0.1484
14613TIP3    H265255   2.078   0.870   0.506  0.4320  0.2120 -1.6181
14614TIP3   OH265256   6.306   5.356  13.103 -0.0435  0.4346  0.0173
14614TIP3    H165257   6.341   5.440  13.071 -0.7498  1.1175  0.9561
14614TIP3    H265258   6.342   5.291  13.043  3.3499  0.9746  1.2024
14615TIP3   OH265259   6.342   5.613  11.343 -0.0337  0.2439 -0.7375
14615TIP3    H165260   6.270   5.669  11.371  0.2130 -0.2472  0.9395
14615TIP3    H265261   6.407   5.674  11.306 -0.1544  0.9649  0.2214
14616TIP3   OH265262   3.662   0.530   3.589 -0.3179  0.3467  0.2874
14616TIP3    H165263   3.575   0.504   3.619 -0.7480  0.9644 -0.3966
14616TIP3    H265264   3.652   0.620   3.559  0.3751  0.1637 -0.5422
14617TIP3   OH265265   5.029   3.219  11.079  0.0325  0.5050 -0.0874
14617TIP3    H165266   5.075   3.290  11.033  2.3884 -0.0007  1.2797
14617TIP3    H265267   5.054   3.140  11.032  2.1719  0.0240  1.6525
14618TIP3   OH265268   6.681   6.224  13.274 -0.0959  0.4550 -0.5380
14618TIP3    H165269   6.701   6.131  13.266 -0.5681  0.3660 -0.7802
14618TIP3    H265270   6.677   6.240  13.368  0.3160  0.3040 -0.4947
14619TIP3   OH265271   1.088   1.612   6.329  0.2759 -0.1803  0.6769
14619TIP3    H165272   1.088   1.551   6.255 -0.6832 -0.3286  0.7829
14619TIP3    H265273   1.164   1.588   6.381  0.4549 -0.6537  0.1986
14620TIP3   OH265274   0.771   4.241   3.305 -0.3040 -0.7691 -0.2043
14620TIP3    H165275   0.858   4.263   3.271 -0.9903  0.2147 -1.3941
14620TIP3    H265276   0.737   4.323   3.339 -0.5646 -1.2726  0.8067
14621TIP3   OH265277   4.498   1.602  16.598  0.5663  0.8006 -0.4857
14621TIP3    H165278   4.501   1.693  16.628  0.9203  0.2763  1.1243
14621TIP3    H265279   4.578   1.592  16.545  2.2196  0.6062  1.9000
14622TIP3   OH265280   4.734   1.771  11.184  0.0244 -0.2175  0.6669
14622TIP3    H165281   4.740   1.763  11.279 -0.1210 -2.0123  0.5600
14622TIP3    H265282   4.819   1.741  11.152 -0.5971 -1.5185  0.1731
14623TIP3   OH265283   6.131   3.564  13.680  0.3105  0.2311  0.2439
14623TIP3    H165284   6.134   3.617  13.600  0.6558 -0.1653 -0.0108
14623TIP3    H265285   6.129   3.474  13.649  1.6670  0.0185  0.6720
14624TIP3   OH265286   6.292   4.134   0.088 -0.2613 -0.6587  0.5170
14624TIP3    H165287   6.370   4.134   0.033 -0.0131 -1.0304  0.8680
14624TIP3    H265288   6.282   4.044   0.117 -0.6700 -0.5619  0.6920
14625TIP3   OH265289   5.418   0.725   5.854  0.2015 -0.4496  0.3077
14625TIP3    H165290   5.431   0.797   5.792  1.7885 -0.3018  0.7595
14625TIP3    H265291   5.373   0.657   5.804 -1.4484  0.8689 -0.0989
14626TIP3   OH265292   1.947   5.809   1.384 -0.1558 -0.0985 -0.2715
14626TIP3    H165293   1.985   5.865   1.452 -0.5762 -1.2295  0.9215
14626TIP3    H265294   1.854   5.804   1.406 -1.0348  2.1800 -2.8387
14627TIP3   OH265295   0.862   0.876   2.283  0.0423 -0.5212 -0.5132
14627TIP3    H165296   0.829   0.965   2.286 -0.3693 -0.6618 -0.7086
14627TIP3    H265297   0.902   0.868   2.196 -0.4552 -0.7055 -0.7311
14628TIP3   OH265298   4.560   4.542   5.484 -0.3668 -0.3978  0.1285
14628TIP3    H165299   4.606   4.463   5.456 -1.4490 -1.8525  2.2043
14628TIP3    H265300   4.520   4.576   5.404  1.1323 -1.2100 -1.0232
14629TIP3   OH265301   5.589   3.199   1.369  0.2556 -0.1537  0.2154
14629TIP3    H165302   5.595   3.107   1.396  0.8218  0.5570  2.8159
14629TIP3    H265303   5.540   3.241   1.440  1.5286  1.8477 -0.0172
14630TIP3   OH265304   1.507   5.065   0.181 -0.4471 -0.6101  0.0509
14630TIP3    H165305   1.518   5.159   0.166 -0.9317 -0.9410 -2.8217
14630TIP3    H265306   1.429   5.041   0.131 -0.9351 -2.4020  1.5526
14631TIP3   OH265307   5.329   4.053   5.617  0.2501 -0.6110  0.1616
14631TIP3    H165308   5.347   4.091   5.532 -0.0645  0.5807  0.6119
14631TIP3    H265309   5.410   4.007   5.640 -0.0982 -2.0681 -1.3298
14632TIP3   OH265310   0.637   5.341   0.127 -0.1584 -0.7092 -0.1561
14632TIP3    H165311   0.679   5.423   0.103  0.5909 -1.1337 -0.3086
14632TIP3    H265312   0.565   5.368   0.185 -0.0150  0.0615 -0.3205
14633TIP3   OH265313   3.828   2.391   0.704 -0.3127 -0.1093  0.6720
14633TIP3    H165314   3.780   2.468   0.674 -0.2015 -1.0806 -2.3399
14633TIP3    H265315   3.767   2.345   0.762 -0.3980  2.1011  2.4740
14634TIP3   OH265316   5.589   3.579  13.450  0.1655  0.5825 -0.4661
14634TIP3    H165317   5.509   3.538  13.483 -1.3751  0.8952 -3.4735
14634TIP3    H265318   5.649   3.505  13.436 -0.9085 -0.1275 -1.5064
14635TIP3   OH265319   6.639   3.528  11.820 -0.5591  0.1269 -0.2936
14635TIP3    H165320   6.697   3.485  11.882 -0.1523 -1.3628 -1.6357
14635TIP3    H265321   6.603   3.602  11.868  1.4091  0.3037  0.9955
14636TIP3   OH265322   5.631   5.635   4.446 -0.2285  0.8924  0.0015
14636TIP3    H165323   5.717   5.677   4.448  0.6666 -0.8680  2.0573
14636TIP3    H265324   5.577   5.688   4.505 -0.0595  1.0184  0.0433
14637TIP3   OH265325   4.241   4.605  12.420  0.1793  0.3545  0.3811
14637TIP3    H165326   4.167   4.592  12.478  0.2691  0.0464  0.4295
14637TIP3    H265327   4.317   4.613  12.478 -0.1287  3.4181  0.5145
14638TIP3   OH265328   6.436   6.403  13.840  0.0030  0.2714 -0.3188
14638TIP3    H165329   6.435   6.433  13.930 -0.7283  0.7014 -0.4623
14638TIP3    H265330   6.349   6.366  13.826  0.3978 -0.5881 -0.5860
14639TIP3   OH265331   1.079   5.752  12.161 -0.1615 -0.0035 -0.3753
14639TIP3    H165332   0.999   5.733  12.113 -0.5776 -0.2803  0.4011
14639TIP3    H265333   1.149   5.739  12.098 -0.6239 -1.4182 -0.6308
14640TIP3   OH265334   2.398   3.593   1.177 -0.1336  0.6696 -0.2028
14640TIP3    H165335   2.355   3.547   1.249 -0.8843  0.5648 -0.6987
14640TIP3    H265336   2.328   3.647   1.139 -0.0604 -0.1329 -1.5578
14641TIP3   OH265337   1.273   4.537  13.348  0.1679  0.0894 -0.1768
14641TIP3    H165338   1.223   4.613  13.319  1.6954  1.0703 -0.3875
14641TIP3    H265339   1.211   4.485  13.398 -0.9896  1.3510 -0.2374
14642TIP3   OH265340   1.262   2.527   1.064 -0.1362 -0.1991  0.0188
14642TIP3    H165341   1.202   2.598   1.039 -0.1774 -0.1920  0.1399
14642TIP3    H265342   1.312   2.563   1.137 -1.1853 -0.8280  1.0651
14643TIP3   OH265343   5.267   1.391   3.003  0.1974  0.6708 -0.0864
14643TIP3    H165344   5.199   1.431   3.057 -1.3219 -0.7489 -0.8206
14643TIP3    H265345   5.251   1.426   2.915  1.6060  1.7157  0.0523
14644TIP3   OH265346   5.738   0.446   6.196  0.5442  0.2968  0.0461
14644TIP3    H165347   5.732   0.513   6.264  0.1599 -0.2366  0.5390
14644TIP3    H265348   5.813   0.474   6.143 -0.2087  1.6670 -0.3584
14645TIP3   OH265349   4.551   6.043  17.282 -0.2572  0.4600  0.0163
14645TIP3    H165350   4.532   6.012  17.371 -1.8252 -0.9100 -0.7288
14645TIP3    H265351   4.487   5.997  17.227  0.5891  1.3717 -1.8102
14646TIP3   OH265352   0.627   6.692   5.252  0.3667  0.2568 -0.3186
14646TIP3    H165353   0.548   6.736   5.222  0.7373  2.4644  1.5969
14646TIP3    H265354   0.676   6.673   5.172 -1.6821 -0.4167 -1.4806
14647TIP3   OH265355   3.512   5.825   5.691  0.1980 -0.2497 -0.3308
14647TIP3    H165356   3.543   5.912   5.664  1.6350 -0.1208  1.4867
14647TIP3    H265357   3.428   5.842   5.735  1.1370  0.4917  1.2892
14648TIP3   OH265358   2.161   6.460  14.555 -0.0266  0.0363  0.2318
14648TIP3    H165359   2.081   6.512  14.561 -0.3604 -0.2414 -1.4158
14648TIP3    H265360   2.223   6.516  14.509  0.3377 -0.2057  0.4206
14649TIP3   OH265361   3.121   1.048  11.045 -0.2034 -0.3952 -0.4517
14649TIP3    H165362   3.138   1.140  11.023 -2.4431  0.4388  0.9701
14649TIP3    H265363   3.117   1.004  10.960  2.3113  0.4573 -1.1175
14650TIP3   OH265364   2.110   4.936   3.713  0.5255 -0.5743 -0.4076
14650TIP3    H165365   2.116   4.925   3.618 -3.2858 -0.7020 -0.7973
14650TIP3    H265366   2.088   4.848   3.746  2.1860 -0.6135  0.6906
14651TIP3   OH265367   6.266   3.358   5.550  0.0824 -0.2556 -0.4958
14651TIP3    H165368   6.244   3.365   5.643  2.6102 -1.5785  0.3123
14651TIP3    H265369   6.207   3.290   5.516  0.6093 -1.3507  0.7171
14652TIP3   OH265370   0.704   1.706   1.731  0.4259 -0.1579 -0.0882
14652TIP3    H165371   0.730   1.787   1.776  0.2941  1.2750 -2.3908
14652TIP3    H265372   0.673   1.648   1.801  0.0587  1.9663  1.6216
14653TIP3   OH265373   4.963   5.451   2.039  0.1680 -0.0312 -0.2849
14653TIP3    H165374   5.036   5.451   2.100  1.0788 -1.1948 -1.3379
14653TIP3    H265375   4.927   5.540   2.045  2.3069  0.8983 -0.4980
14654TIP3   OH265376   2.788   1.059   2.285 -0.3662  0.3199  0.3772
14654TIP3    H165377   2.702   1.101   2.291 -0.8556 -0.4325 -0.8969
14654TIP3    H265378   2.783   0.986   2.346  0.0515  1.3344  1.6779
14655TIP3   OH265379   5.949   4.867  15.466  0.0487  0.2279 -0.4512
14655TIP3    H165380   5.886   4.821  15.411  0.5848  1.2389 -1.9869
14655TIP3    H265381   6.028   4.814  15.462 -0.2003 -0.1948  0.1419
14656TIP3   OH265382   1.844   0.118  12.515  0.5959  0.1706  0.0620
14656TIP3    H165383   1.827   0.210  12.493  0.5002  0.3550  0.8775
14656TIP3    H265384   1.872   0.079  12.432 -2.3031  0.1968 -1.0501
14657TIP3   OH265385   6.044   3.984   3.605  0.1014 -0.5223 -0.6969
14657TIP3    H165386   6.102   3.971   3.530 -1.0397 -0.5951 -1.5933
14657TIP3    H265387   5.970   4.034   3.569 -0.4184 -0.4902  0.3964
14658TIP3   OH265388   0.440   5.778  15.069 -0.0267  0.5202  0.0584
14658TIP3    H165389   0.443   5.735  14.983 -1.4684  1.1219 -0.3205
14658TIP3    H265390   0.353   5.819  15.072 -0.3611 -0.2404  2.1773
14659TIP3   OH265391   1.965   3.602  12.605 -0.1938  0.0513  0.2005
14659TIP3    H165392   1.870   3.615  12.609 -0.2846 -0.3238 -0.6801
14659TIP3    H265393   1.991   3.591  12.697 -1.2397 -1.4883  0.3522
14660TIP3   OH265394   5.999   4.325   5.521  0.2300  0.1357 -0.4138
14660TIP3    H165395   5.931   4.362   5.465  0.2841 -0.9992 -1.2726
14660TIP3    H265396   5.967   4.340   5.610 -0.5231  0.7611 -0.7759
14661TIP3   OH265397   6.006   4.757   3.051 -0.7024  0.2715  0.1275
14661TIP3    H165398   6.043   4.681   3.007 -2.1175 -0.2424 -0.2465
14661TIP3    H265399   5.972   4.811   2.979  0.2336  1.2392  0.3941
14662TIP3   OH265400   1.915   3.436   2.479  0.3653 -0.1982  0.8352
14662TIP3    H165401   1.831   3.410   2.443  0.6780 -0.8112  0.5353
14662TIP3    H265402   1.977   3.371   2.445  0.9261  0.1376  1.1997
14663TIP3   OH265403   6.550   4.928   5.953 -0.4830 -0.5220 -0.1480
14663TIP3    H165404   6.463   4.952   5.922 -0.4957 -1.9176 -1.2922
14663TIP3    H265405   6.538   4.910   6.047 -0.7210  2.4221  0.5141
14664TIP3   OH265406   3.800   3.979  13.614  0.4537  0.0372 -0.3353
14664TIP3    H165407   3.774   3.905  13.559  2.1071  0.1083 -1.2591
14664TIP3    H265408   3.818   4.050  13.551 -1.9347  1.5569  0.5586
14665TIP3   OH265409   5.435   2.489  15.794 -0.3644  0.4637 -0.1425
14665TIP3    H165410   5.361   2.431  15.813 -0.4103  0.6204  0.1659
14665TIP3    H265411   5.511   2.431  15.790 -0.5440  0.2661 -0.7346
14666TIP3   OH265412   0.242   6.078   1.303  0.1215  0.5547  0.1692
14666TIP3    H165413   0.264   6.075   1.396  1.5718  1.9366 -0.0958
14666TIP3    H265414   0.159   6.031   1.297 -0.6984  1.5632  2.3673
14667TIP3   OH265415   2.428   3.720  16.023 -0.4133 -0.1592  0.0249
14667TIP3    H165416   2.423   3.626  16.003  0.4845  0.3536 -3.2581
14667TIP3    H265417   2.451   3.724  16.115 -1.1104 -3.1436  0.4386
14668TIP3   OH265418   2.266   1.825   4.749 -0.3321 -0.9456  0.4095
14668TIP3    H165419   2.280   1.909   4.706 -0.1732 -2.3504 -2.5073
14668TIP3    H265420   2.259   1.846   4.842  0.6622  2.1458 -0.1250
14669TIP3   OH265421   5.713   4.645  14.159 -0.2775  0.1219  0.8495
14669TIP3    H165422   5.666   4.706  14.215  0.7181  0.5420  1.2474
14669TIP3    H265423   5.645   4.588  14.123 -1.2578  1.5714  0.3200
14670TIP3   OH265424   4.849   3.557   0.830 -0.5092 -0.1695 -0.4660
14670TIP3    H165425   4.758   3.584   0.844 -0.7340 -1.1952  0.1764
14670TIP3    H265426   4.866   3.494   0.900  1.1754  1.0787  0.3097
14671TIP3   OH265427   1.481   3.298  17.205  0.1088 -0.7687 -0.1849
14671TIP3    H165428   1.501   3.265  17.293  3.0197  1.2372  0.0661
14671TIP3    H265429   1.427   3.375  17.220  0.2908 -0.6460 -0.1474
14672TIP3   OH265430   2.529   3.654  17.366  0.1663  0.3902 -0.3447
14672TIP3    H165431   2.567   3.583  17.314  1.6190 -0.9787  2.3891
14672TIP3    H265432   2.435   3.641  17.359  0.3845 -1.1319 -0.7917
14673TIP3   OH265433   4.525   1.451   0.678  0.2968 -0.1905  0.0524
14673TIP3    H165434   4.495   1.489   0.595  1.7206 -1.1493 -0.9390
14673TIP3    H265435   4.459   1.386   0.701 -0.9460  1.1987  0.5490
14674TIP3   OH265436   5.121   4.214  10.899  0.0072 -0.0105 -0.5677
14674TIP3    H165437   5.144   4.274  10.828 -2.9869  4.2456  1.6192
14674TIP3    H265438   5.193   4.223  10.962  0.5766 -0.4683 -1.1298
14675TIP3   OH265439   0.693   0.597  15.735 -0.3306  0.2031  0.3747
14675TIP3    H165440   0.705   0.658  15.662 -0.3569 -0.9132 -0.6154
14675TIP3    H265441   0.704   0.650  15.814  0.5809  1.2771 -0.4462
14676TIP3   OH265442   4.658   1.445  12.335  0.2684 -0.7948  0.3483
14676TIP3    H165443   4.654   1.350  12.346  0.7096 -0.7481  0.9696
14676TIP3    H265444   4.738   1.471  12.380 -0.0425 -0.0815  0.5023
14677TIP3   OH265445   3.397   2.772  15.568  0.3724 -0.1487  0.5230
14677TIP3    H165446   3.442   2.703  15.618 -1.2841 -1.0927  0.7808
14677TIP3    H265447   3.305   2.745  15.568 -0.0028  1.0092 -1.1417
14678TIP3   OH265448   5.828   0.608   0.739  0.8141 -0.6585  0.0432
14678TIP3    H165449   5.865   0.683   0.691 -0.8782  1.0136  1.1836
14678TIP3    H265450   5.883   0.600   0.817  1.6088 -1.2718 -0.5726
14679TIP3   OH265451   2.063   0.477  12.188  0.1961 -0.0782 -0.4332
14679TIP3    H165452   2.024   0.400  12.146 -0.5859  0.8443 -1.4731
14679TIP3    H265453   2.011   0.551  12.155 -0.3689  0.7293  2.0573
14680TIP3   OH265454   1.837   0.660  11.493  0.0487 -0.1202 -0.4424
14680TIP3    H165455   1.866   0.574  11.462  0.8601 -0.1188  0.2802
14680TIP3    H265456   1.917   0.703  11.524 -0.5962  0.2475  0.7427
14681TIP3   OH265457   3.906   1.041   0.473 -0.2355 -0.8060 -0.4791
14681TIP3    H165458   3.818   1.077   0.490 -0.1581  0.9707 -3.1878
14681TIP3    H265459   3.959   1.073   0.546 -0.9306  2.0090 -1.0619
14682TIP3   OH265460   0.486   6.388  11.078 -0.1576 -0.3211 -0.6684
14682TIP3    H165461   0.513   6.309  11.031 -2.9623 -1.9449  0.2014
14682TIP3    H265462   0.475   6.454  11.010  0.0345 -1.3519 -1.7324
14683TIP3   OH265463   2.645   1.133   4.878  0.2293 -0.3915  0.2114
14683TIP3    H165464   2.665   1.061   4.938  1.4626  0.0712  0.4009
14683TIP3    H265465   2.605   1.091   4.802 -0.7566 -1.0590  1.0674
14684TIP3   OH265466   0.149   4.810   0.528  0.3337  0.2197  0.5828
14684TIP3    H165467   0.139   4.816   0.433 -1.4767 -1.1200  0.6190
14684TIP3    H265468   0.216   4.743   0.541  1.5877  1.3879  0.2739
14685TIP3   OH265469   4.612   4.840   0.617 -0.3213  0.4841 -0.3300
14685TIP3    H165470   4.530   4.792   0.604 -0.7989  1.2621 -0.2443
14685TIP3    H265471   4.588   4.915   0.672  0.3231  1.0424 -0.7862
14686TIP3   OH265472   4.692   6.464  16.412  0.1413  0.2079 -0.2972
14686TIP3    H165473   4.659   6.472  16.322 -1.3825  0.3868  0.2433
14686TIP3    H265474   4.647   6.534  16.460  1.1702  0.3162  0.5461
14687TIP3   OH265475   2.568   5.520  13.885  0.1512 -0.0406  0.2805
14687TIP3    H165476   2.545   5.539  13.976  1.1172  1.4908  0.2511
14687TIP3    H265477   2.611   5.435  13.888 -0.2793 -0.2324  1.1844
14688TIP3   OH265478   0.034   5.837   4.587  0.1756 -0.3354 -0.6116
14688TIP3    H165479  -0.056   5.814   4.611 -0.1236  1.1838 -0.1553
14688TIP3    H265480   0.086   5.813   4.663 -0.1540  0.5591 -0.0829
14689TIP3   OH265481   4.630   2.938  12.932 -0.5432  0.0738  0.0195
14689TIP3    H165482   4.591   2.993  12.999  1.0131  0.6851  0.4670
14689TIP3    H265483   4.609   2.981  12.849 -0.7205  0.4486  0.2607
14690TIP3   OH265484   5.662   5.652  11.687 -0.4182 -0.2757  0.0888
14690TIP3    H165485   5.647   5.569  11.732 -1.0438 -0.8317 -1.1008
14690TIP3    H265486   5.757   5.653  11.672 -0.1605  0.0297  1.5762
14691TIP3   OH265487   1.622   0.874  16.531  0.6935 -0.3270 -0.0618
14691TIP3    H165488   1.710   0.900  16.559  1.0206 -0.9850 -0.4744
14691TIP3    H265489   1.633   0.787  16.494  0.0271 -0.0323 -0.9893
14692TIP3   OH265490   4.357   3.653  13.410  0.7734 -0.3768 -0.5242
14692TIP3    H165491   4.309   3.578  13.374  2.2992 -1.8482  0.3131
14692TIP3    H265492   4.295   3.725  13.408 -0.8669 -1.7360 -1.0909
14693TIP3   OH265493   0.791   5.919   3.822 -0.2020  0.0445  0.3242
14693TIP3    H165494   0.851   5.882   3.887 -0.8535  0.0160  0.9152
14693TIP3    H265495   0.838   5.995   3.788  0.4969 -0.4208  0.2145
14694TIP3   OH265496   6.427   6.365   0.741 -0.6450 -0.3422 -1.0458
14694TIP3    H165497   6.389   6.323   0.664 -1.7304  0.2284 -0.8475
14694TIP3    H265498   6.355   6.416   0.778 -0.2649 -0.9300  0.5869
14695TIP3   OH265499   0.149   5.502   0.032 -0.0927  0.4497 -0.0746
14695TIP3    H165500   0.059   5.519   0.004  0.2125  1.8455 -0.2638
14695TIP3    H265501   0.140   5.457   0.116 -0.9877 -1.6321 -1.2214
14696TIP3   OH265502   5.658   3.934   0.566 -0.2629 -0.9584 -0.5793
14696TIP3    H165503   5.596   3.886   0.620 -0.6637 -1.5597 -1.5421
14696TIP3    H265504   5.741   3.889   0.577 -0.5120 -1.5359 -1.0389
14697TIP3   OH265505   5.225   1.343   0.571 -0.1272  0.5884  0.4875
14697TIP3    H165506   5.284   1.310   0.639  1.1001  0.4287 -0.5933
14697TIP3    H265507   5.156   1.277   0.565  1.8461 -1.4998 -1.0591
14698TIP3   OH265508   0.878   4.967  13.636  0.1814  0.2556 -0.3867
14698TIP3    H165509   0.847   4.900  13.697 -0.3377 -0.1975 -1.1310
14698TIP3    H265510   0.968   4.941  13.616  0.2793  0.2809  0.0131
14699TIP3   OH265511   0.338   0.882   1.046  0.0672 -0.0943  0.0733
14699TIP3    H165512   0.400   0.899   1.117 -0.7197 -0.1252  0.7804
14699TIP3    H265513   0.374   0.806   0.999  1.7003  1.1936 -0.8741
14700TIP3   OH265514   2.166   3.178  10.961  0.5546 -0.0114 -0.3186
14700TIP3    H165515   2.148   3.091  10.925 -1.4855  0.4599 -0.5465
14700TIP3    H265516   2.143   3.171  11.053  0.3844  0.2786 -0.3376
14701TIP3   OH265517   1.841   5.011  10.727  0.4402  0.3040  0.4438
14701TIP3    H165518   1.832   4.968  10.812  0.4437  0.7258  0.6638
14701TIP3    H265519   1.927   4.984  10.695  0.2790 -0.1566  0.4026
14702TIP3   OH265520   5.801   5.867   4.724 -0.2905  0.2304 -0.0104
14702TIP3    H165521   5.815   5.943   4.780 -0.4816  1.6121 -1.7693
14702TIP3    H265522   5.849   5.887   4.643 -0.9139 -1.2064 -0.7796
14703TIP3   OH265523   1.744   5.854   0.561  0.8285 -1.2185  0.3641
14703TIP3    H165524   1.835   5.877   0.577  0.7542 -0.2915 -0.4683
14703TIP3    H265525   1.711   5.924   0.504  0.2610 -2.7580 -1.2964
14704TIP3   OH265526   6.722   5.490  16.842 -0.0737 -0.2760  0.2656
14704TIP3    H165527   6.776   5.562  16.808 -1.2111  0.4986  0.0181
14704TIP3    H265528   6.699   5.517  16.931  1.7721 -1.6689  1.2462
14705TIP3   OH265529   1.621   2.705  16.272 -0.2315 -1.1510 -0.0224
14705TIP3    H165530   1.530   2.719  16.300 -0.7250 -2.2295 -1.0074
14705TIP3    H265531   1.632   2.610  16.275  0.7486 -1.0524 -0.3065
14706TIP3   OH265532   0.597   0.102  12.220 -0.1827 -0.6085  0.0608
14706TIP3    H165533   0.639   0.186  12.201  1.6284 -1.4600  0.0927
14706TIP3    H265534   0.504   0.123  12.228  0.3090  1.5238  0.8744
14707TIP3   OH265535   5.109   2.931  13.640  0.1319 -0.3974 -0.1109
14707TIP3    H165536   5.151   2.910  13.557  1.2964 -0.7120  0.5335
14707TIP3    H265537   5.178   2.971  13.693  0.2352 -2.7803  1.7131
14708TIP3   OH265538   3.357   3.654  15.463 -0.3743 -0.1339 -0.0869
14708TIP3    H165539   3.380   3.747  15.472  3.2361 -0.7366 -1.2750
14708TIP3    H265540   3.339   3.625  15.552  0.6442  1.2525  0.6077
14709TIP3   OH265541   6.519   1.186   0.306 -0.3448 -0.0363  0.3988
14709TIP3    H165542   6.598   1.140   0.335 -0.0169  0.7004  0.7054
14709TIP3    H265543   6.464   1.190   0.384 -1.0528 -1.2592 -0.0129
14710TIP3   OH265544   6.247   2.910   4.086  0.1430 -0.6764 -0.4214
14710TIP3    H165545   6.164   2.928   4.131  0.2223 -1.8130  0.2267
14710TIP3    H265546   6.296   2.992   4.092 -0.3332 -0.4456  0.5229
14711TIP3   OH265547   2.782   1.167   0.196 -0.0108 -0.3138 -0.0789
14711TIP3    H165548   2.837   1.136   0.268  1.2237  2.0786  0.1075
14711TIP3    H265549   2.794   1.101   0.128 -1.2567 -2.6647  1.8270
14712TIP3   OH265550   2.557   0.670  14.647  0.3772  0.5883  0.2338
14712TIP3    H165551   2.575   0.597  14.707  0.2265 -0.6921 -1.2302
14712TIP3    H265552   2.511   0.734  14.701 -1.4483 -1.3168  1.0714
14713TIP3   OH265553   1.158   4.368   1.360 -0.1255  0.8169 -0.2841
14713TIP3    H165554   1.096   4.340   1.428  1.7869  0.5811  1.4581
14713TIP3    H265555   1.143   4.305   1.288 -2.2804  1.1505 -0.2137
14714TIP3   OH265556   5.031   2.779  14.573  0.6262  0.0741  0.9971
14714TIP3    H165557   5.091   2.705  14.579  0.6827 -0.0954 -0.9353
14714TIP3    H265558   4.997   2.775  14.483  0.0466  1.9455  1.0878
14715TIP3   OH265559   3.078   1.357   1.537 -0.7628 -0.2021  0.5805
14715TIP3    H165560   3.162   1.310   1.539  0.0533  1.2066  1.4309
14715TIP3    H265561   3.103   1.449   1.547 -2.1207  0.6988 -2.9886
14716TIP3   OH265562   1.051   0.844   3.857 -0.2249  0.3972 -0.4400
14716TIP3    H165563   1.013   0.801   3.933 -2.6483  2.5757 -0.2803
14716TIP3    H265564   1.114   0.907   3.893 -0.2519  0.3681 -0.3434
14717TIP3   OH265565   2.950   1.070   4.711  0.5261  0.0124  0.0452
14717TIP3    H165566   2.888   1.126   4.757 -0.1202 -1.2035  0.7299
14717TIP3    H265567   2.926   1.078   4.619  1.1252  1.6336  0.0023
14718TIP3   OH265568   2.048   3.774  16.643 -0.5875 -0.0596  0.0570
14718TIP3    H165569   1.960   3.811  16.630 -1.3714 -0.9424  2.2188
14718TIP3    H265570   2.098   3.803  16.567 -2.6972  0.6248 -1.1705
14719TIP3   OH265571   1.085   3.530   2.603  0.3579  0.1516  0.1792
14719TIP3    H165572   1.088   3.574   2.518  0.8097  1.7994  1.0038
14719TIP3    H265573   1.177   3.518   2.627  0.2508 -1.5074 -0.1266
14720TIP3   OH265574   6.472   3.572   4.577  0.0342 -0.5136  0.0293
14720TIP3    H165575   6.533   3.517   4.527 -1.6626 -1.6056 -0.9152
14720TIP3    H265576   6.505   3.568   4.667  0.9678 -1.6386 -0.3422
14721TIP3   OH265577   6.497   2.274  15.894 -0.6686  0.7763 -0.0655
14721TIP3    H165578   6.575   2.291  15.945 -0.5134  2.1043 -0.6943
14721TIP3    H265579   6.479   2.181  15.907  1.2111  0.3575 -0.1953
14722TIP3   OH265580   4.722   6.555   0.614  0.1902  0.0932  0.1438
14722TIP3    H165581   4.659   6.581   0.547  1.1216  0.6558 -0.5336
14722TIP3    H265582   4.722   6.627   0.677  0.4182  0.2732 -0.0571
14723TIP3   OH265583   5.569   6.606  11.703  0.1333 -0.5348 -0.4613
14723TIP3    H165584   5.517   6.636  11.777 -0.2739 -0.5193 -0.7484
14723TIP3    H265585   5.506   6.563  11.645  0.1830  0.7195 -1.4888
14724TIP3   OH265586   6.413   3.566   0.425 -0.2666 -0.3357  0.1743
14724TIP3    H165587   6.330   3.601   0.459  0.2541  0.7458  0.3927
14724TIP3    H265588   6.388   3.488   0.377 -1.3584 -0.3241  0.6816
14725TIP3   OH265589   3.738   6.466   2.641 -0.1106 -0.3548 -0.3634
14725TIP3    H165590   3.810   6.480   2.702 -1.1938 -0.4240  0.9646
14725TIP3    H265591   3.769   6.505   2.559  1.6312 -0.8356  0.0070
14726TIP3   OH265592   0.424   4.580   6.067 -0.2271 -0.4085  1.0162
14726TIP3    H165593   0.470   4.532   5.999 -0.9569 -1.7737  1.4347
14726TIP3    H265594   0.491   4.634   6.109  0.0447  1.2519 -1.3894
14727TIP3   OH265595   2.214   1.626   0.062 -0.3017  0.5522  0.7752
14727TIP3    H165596   2.301   1.605   0.027 -1.0732  0.1620 -1.0548
14727TIP3    H265597   2.196   1.714   0.029 -0.2345  1.0020  1.9248
14728TIP3   OH265598   5.307   4.390   2.046  0.6707 -0.4901  0.0443
14728TIP3    H165599   5.343   4.322   1.989  1.5650 -0.3778  0.4572
14728TIP3    H265600   5.264   4.342   2.116  1.2804 -0.6498  0.3222
14729TIP3   OH265601   5.628   3.053   4.614  0.4499  0.5936 -0.5194
14729TIP3    H165602   5.577   2.989   4.665  0.0910  0.4407 -1.0582
14729TIP3    H265603   5.668   3.110   4.680 -0.6469  0.8924 -0.0886
14730TIP3   OH265604   2.721   1.997  10.806 -0.2131 -0.6845 -0.1222
14730TIP3    H165605   2.774   1.961  10.876  0.1013 -0.3664 -0.1894
14730TIP3    H265606   2.670   2.067  10.848  1.4599  0.8747 -0.5869
14731TIP3   OH265607   1.433   3.559   4.497  0.2497  0.1442 -0.5842
14731TIP3    H165608   1.475   3.556   4.582 -1.0085  1.1185  0.1147
14731TIP3    H265609   1.449   3.473   4.458 -0.9834 -1.1377  1.5668
14732TIP3   OH265610   1.165   5.732   2.903  0.0071  0.3641 -0.0713
14732TIP3    H165611   1.193   5.659   2.957 -0.9172  0.8654  1.1110
14732TIP3    H265612   1.246   5.776   2.878  0.5120 -0.5678 -0.1177
14733TIP3   OH265613   2.325   5.078   4.645  0.1638  0.3645  0.2331
14733TIP3    H165614   2.238   5.101   4.677 -0.9335 -3.9315  0.9615
14733TIP3    H265615   2.319   5.086   4.550 -0.9013  0.4154  0.2977
14734TIP3   OH265616   5.581   6.180   4.105  0.0614  0.2261 -0.0116
14734TIP3    H165617   5.504   6.213   4.151 -1.0753  1.8141 -2.8644
14734TIP3    H265618   5.552   6.098   4.066  0.5452 -0.2977  0.6885
14735TIP3   OH265619   2.686   4.379  12.773  0.5002  0.0024 -0.2207
14735TIP3    H165620   2.609   4.335  12.809 -0.5333  2.9243  1.4505
14735TIP3    H265621   2.760   4.345  12.824 -0.2702  0.2655  1.0943
14736TIP3   OH265622   1.568   2.692   5.204 -0.0776 -0.1219  0.2580
14736TIP3    H165623   1.503   2.757   5.233  0.9741  1.3356 -0.5248
14736TIP3    H265624   1.552   2.683   5.110  0.6136 -0.0014  0.1227
14737TIP3   OH265625   5.771   0.590  12.238 -0.5590  0.0477 -1.0553
14737TIP3    H165626   5.789   0.683  12.220 -0.7796  0.3380  0.1458
14737TIP3    H265627   5.803   0.576  12.327 -2.6676 -0.4071 -0.3068
14738TIP3   OH265628   4.050   3.579   6.343  0.5167 -0.0706 -0.3514
14738TIP3    H165629   4.041   3.508   6.279  2.7141  1.3889 -2.4616
14738TIP3    H265630   4.090   3.651   6.294  2.5815  1.0966  2.7291
14739TIP3   OH265631   4.322   2.844   2.012 -0.2478  0.0567  0.3287
14739TIP3    H165632   4.286   2.931   1.997 -0.9788  0.1303  2.2300
14739TIP3    H265633   4.252   2.784   1.985 -0.1070  0.0618 -0.0655
14740TIP3   OH265634   2.076   2.559  11.081  0.4524 -0.5501 -0.0090
14740TIP3    H165635   2.031   2.525  11.003 -1.5225  0.6070  0.5514
14740TIP3    H265636   2.020   2.631  11.111  3.2550  1.7268  0.1695
14741TIP3   OH265637   0.861   6.527  16.666  0.4097 -0.1415 -0.4859
14741TIP3    H165638   0.909   6.596  16.712  1.0444 -0.8310 -0.0799
14741TIP3    H265639   0.918   6.451  16.671 -0.3928 -0.7761 -0.6888
14742TIP3   OH265640   0.875   1.022  15.481 -0.2637  0.1055 -0.0097
14742TIP3    H165641   0.943   1.026  15.414 -1.4250 -1.6836 -1.3639
14742TIP3    H265642   0.857   1.114  15.502  2.7057  0.6436  0.6123
14743TIP3   OH265643   1.813   2.723   0.411  0.2507  0.7955  0.2673
14743TIP3    H165644   1.822   2.783   0.336  2.0691 -0.4339 -0.5837
14743TIP3    H265645   1.869   2.761   0.478  3.2436 -0.9487 -1.0444
14744TIP3   OH265646   1.241   2.412   2.429 -0.5040  0.5715  0.0323
14744TIP3    H165647   1.311   2.382   2.486 -2.0980  0.0672  1.8394
14744TIP3    H265648   1.282   2.476   2.372  2.0755 -1.7933 -1.0103
14745TIP3   OH265649   0.846   3.529  12.947 -0.6186 -0.5626  0.1444
14745TIP3    H165650   0.815   3.482  13.025 -1.2556 -0.4242 -0.0175
14745TIP3    H265651   0.908   3.469  12.906 -0.0228 -0.4967  0.9403
14746TIP3   OH265652   6.249   0.596  12.807 -0.1954 -0.4604  0.5928
14746TIP3    H165653   6.161   0.631  12.799 -0.4191 -0.2263  3.1468
14746TIP3    H265654   6.237   0.508  12.842  0.5652 -0.7563  0.1359
14747TIP3   OH265655   1.610   4.950  17.133  0.1265 -0.6329 -0.3897
14747TIP3    H165656   1.604   4.857  17.158  1.3152 -0.3588  1.1012
14747TIP3    H265657   1.704   4.969  17.137 -0.1528  0.7700 -0.1268
14748TIP3   OH265658   5.814   5.834  17.060 -0.0530 -0.0497 -0.0734
14748TIP3    H165659   5.749   5.899  17.034  2.1565  2.7592  0.7767
14748TIP3    H265660   5.867   5.820  16.981 -0.9489 -1.4430 -0.4524
14749TIP3   OH265661   5.476   6.323   0.575 -0.2536  0.3631  0.5110
14749TIP3    H165662   5.490   6.237   0.614 -0.0930 -0.2822 -0.9017
14749TIP3    H265663   5.497   6.311   0.482  0.8327  2.1862  0.4704
14750TIP3   OH265664   3.532   0.083   2.024 -0.0693 -0.0418 -0.1033
14750TIP3    H165665   3.590   0.077   2.100  1.9306 -0.6764 -1.5901
14750TIP3    H265666   3.508  -0.007   2.006 -1.0039  0.1604  0.0865
14751TIP3   OH265667   5.884   4.031  11.108  1.0037 -0.6794  0.6332
14751TIP3    H165668   5.863   3.974  11.035 -1.1234 -1.1434  1.5476
14751TIP3    H265669   5.980   4.031  11.111  1.1159 -1.5530 -1.4076
14752TIP3   OH265670   0.074   1.926   0.986  0.7804 -0.2593  0.3964
14752TIP3    H165671   0.156   1.896   0.946  0.1436  0.2804 -1.3941
14752TIP3    H265672   0.048   1.854   1.044  3.5316  0.3807  2.6942
14753TIP3   OH265673   1.208   6.319   6.081  0.2520  0.2326  0.2047
14753TIP3    H165674   1.237   6.410   6.082 -3.6152  1.6489  0.3303
14753TIP3    H265675   1.129   6.319   6.135 -1.3986 -2.5775 -1.9254
14754TIP3   OH265676   6.421   1.323   5.513  0.3743 -0.0713 -0.2507
14754TIP3    H165677   6.488   1.260   5.541 -0.1601 -0.3301  0.4719
14754TIP3    H265678   6.459   1.409   5.532  0.9255 -0.1786 -0.8245
14755TIP3   OH265679   1.974   4.173   2.797  0.2984  0.1282  0.6063
14755TIP3    H165680   2.029   4.252   2.797 -1.4011  1.3659 -0.1099
14755TIP3    H265681   1.921   4.181   2.718  1.2175 -2.6130 -0.4237
14756TIP3   OH265682   3.696   4.861   5.599  0.1078  0.2647 -0.2532
14756TIP3    H165683   3.723   4.795   5.536 -0.1421 -1.1485  1.0596
14756TIP3    H265684   3.680   4.940   5.547 -0.8739 -1.0558 -2.0344
14757TIP3   OH265685   6.251   4.596  15.198  0.3498 -0.5480  0.4163
14757TIP3    H165686   6.289   4.508  15.200 -0.1037 -0.7546 -0.1168
14757TIP3    H265687   6.262   4.625  15.108 -0.3733 -0.4429  0.3547
14758TIP3   OH265688   5.373   6.635   6.142 -0.1452 -0.4673 -0.1489
14758TIP3    H165689   5.425   6.649   6.222 -1.0563 -3.3541  1.0563
14758TIP3    H265690   5.430   6.584   6.085  0.2064  0.9102 -1.0754
14759TIP3   OH265691   5.043   3.575  16.475 -0.0097 -0.0976  0.2053
14759TIP3    H165692   5.120   3.525  16.501 -1.4758 -2.7634 -0.1925
14759TIP3    H265693   4.969   3.516  16.492 -1.8832  1.8971 -0.4928
14760TIP3   OH265694   0.283   2.676  11.336 -0.5350 -0.2556 -0.5727
14760TIP3    H165695   0.323   2.614  11.275 -0.2371 -0.8093  0.1737
14760TIP3    H265696   0.217   2.625  11.382  0.0178 -0.1473  0.3636
14761TIP3   OH265697   3.685   1.688  14.757  0.5440  0.3331 -0.6968
14761TIP3    H165698   3.711   1.597  14.774 -1.2319 -0.5392 -2.3210
14761TIP3    H265699   3.768   1.735  14.745  1.4851 -1.0997 -0.1050
14762TIP3   OH265700   0.259   1.155  12.930 -0.1943  0.1652  0.1305
14762TIP3    H165701   0.255   1.238  12.883 -0.2400 -0.5718 -1.2168
14762TIP3    H265702   0.240   1.178  13.021  0.2353  1.6815 -0.1369
14763TIP3   OH265703   5.178   6.550  10.536 -0.2370  0.2551 -0.1787
14763TIP3    H165704   5.208   6.501  10.612  0.7366  1.2434  0.1091
14763TIP3    H265705   5.249   6.540  10.472 -0.4524  0.5012 -0.4621
14764TIP3   OH265706   4.173   1.037   3.262 -0.5062 -0.1912 -0.7626
14764TIP3    H165707   4.232   0.964   3.281  0.2350  0.7410  0.7712
14764TIP3    H265708   4.218   1.113   3.298 -1.8474  0.8179 -1.1612
14765TIP3   OH265709   6.039   4.632   2.574 -0.1346 -0.9071  0.3681
14765TIP3    H165710   6.047   4.718   2.615  0.0327 -1.6590  1.9788
14765TIP3    H265711   5.954   4.600   2.603 -1.5333 -0.1817 -2.5237
14766TIP3   OH265712   6.712   3.158  13.008  0.4523 -0.0452 -0.4541
14766TIP3    H165713   6.648   3.160  12.937  0.0093  1.5019 -0.0618
14766TIP3    H265714   6.660   3.140  13.086  0.1721  2.6772  0.0894
14767TIP3   OH265715   4.189   4.975  15.792 -0.8028  0.3078 -0.4473
14767TIP3    H165716   4.256   5.043  15.805 -0.5664  0.1501 -0.7958
14767TIP3    H265717   4.181   4.932  15.877  1.2626 -1.2246 -0.9267
14768TIP3   OH265718   3.719   4.497   2.100  0.1503 -0.2379  0.0791
14768TIP3    H165719   3.698   4.489   2.193  0.1659 -0.3194  0.0752
14768TIP3    H265720   3.644   4.460   2.054  0.1963 -0.3103  0.0614
14769TIP3   OH265721   1.917   1.038  15.843 -0.1326  0.5792 -0.3735
14769TIP3    H165722   1.992   1.088  15.809 -0.7595  0.3096 -2.2282
14769TIP3    H265723   1.882   0.992  15.767 -0.0233 -2.1782  1.1127
14770TIP3   OH265724   5.289   4.630   5.471  0.4786  0.1442  0.3765
14770TIP3    H165725   5.195   4.621   5.459  0.1890 -0.6597  2.7416
14770TIP3    H265726   5.311   4.713   5.428 -1.3540  0.4773  0.0170
14771TIP3   OH265727   1.371   4.648   5.237 -0.5677 -0.1430 -0.2081
14771TIP3    H165728   1.460   4.680   5.220 -0.9145  0.1577 -1.5858
14771TIP3    H265729   1.330   4.720   5.285 -0.1038 -0.2381  0.3439
14772TIP3   OH265730   1.181   6.099   3.032 -0.6113 -0.3632 -0.3832
14772TIP3    H165731   1.133   6.087   2.950  0.3384 -1.3961 -0.8175
14772TIP3    H265732   1.208   6.191   3.030 -0.8608 -0.2971 -1.0884
14773TIP3   OH265733   5.155   3.207   2.189 -0.4101 -0.8095  0.1749
14773TIP3    H165734   5.068   3.174   2.169 -1.3028  2.1703 -1.5948
14773TIP3    H265735   5.141   3.278   2.252  0.9174 -1.2231  0.9856
14774TIP3   OH265736   5.615   5.259  10.785  0.0185  0.2396 -0.0928
14774TIP3    H165737   5.583   5.185  10.836 -0.4140  0.4536 -0.0493
14774TIP3    H265738   5.537   5.311  10.767  0.4197  1.0607  0.4895
14775TIP3   OH265739   5.347   0.593  16.540  0.6024  0.2681  0.3182
14775TIP3    H165740   5.414   0.658  16.520  1.7099 -1.7243 -3.6071
14775TIP3    H265741   5.395   0.510  16.543 -0.9086 -0.6520  4.0018
14776TIP3   OH265742   0.308   0.901  11.525  0.3040 -0.1423  0.6587
14776TIP3    H165743   0.239   0.943  11.576 -0.5982  0.5228 -1.0509
14776TIP3    H265744   0.328   0.820  11.574 -0.2651  0.6224  2.2220
14777TIP3   OH265745   3.682   1.320   0.552  0.1835 -0.0775  0.3692
14777TIP3    H165746   3.678   1.358   0.465  1.6790 -0.9392 -0.1027
14777TIP3    H265747   3.704   1.394   0.609 -4.1848  1.2587  0.6512
14778TIP3   OH265748   1.050   3.202  14.237 -0.0294  0.0129 -0.0905
14778TIP3    H165749   1.008   3.243  14.313 -0.8873  0.1209 -0.5997
14778TIP3    H265750   0.994   3.226  14.163 -0.1300 -1.4235 -0.5237
14779TIP3   OH265751   2.491   0.087  17.041 -0.3910 -0.4404  0.0669
14779TIP3    H165752   2.538   0.119  16.964 -0.8192 -0.9692 -0.4248
14779TIP3    H265753   2.403   0.123  17.032 -1.0839 -2.2032 -0.8412
14780TIP3   OH265754   1.844   0.996  10.365 -0.0013 -0.0101  0.1091
14780TIP3    H165755   1.898   1.008  10.443  0.3665  0.3025 -0.1951
14780TIP3    H265756   1.839   1.082  10.325 -2.0145  0.3088  0.9605
14781TIP3   OH265757   4.193   1.399   5.712 -0.2196 -0.3176  0.4035
14781TIP3    H165758   4.190   1.358   5.799 -0.0487 -2.5609 -0.5669
14781TIP3    H265759   4.279   1.375   5.678 -0.2327  0.6582 -0.3551
14782TIP3   OH265760   2.557   4.579  12.644 -0.0371 -0.6456  0.1296
14782TIP3    H165761   2.486   4.555  12.585 -0.2888  1.7147 -0.6062
14782TIP3    H265762   2.582   4.496  12.687 -1.3615 -1.9941 -1.5902
14783TIP3   OH265763   6.328   3.050   5.695 -0.0884 -0.2312  0.1554
14783TIP3    H165764   6.330   3.137   5.734  0.5559 -0.5296  0.8110
14783TIP3    H265765   6.238   3.020   5.708  0.3298 -0.7346  2.4075
14784TIP3   OH265766   6.665   5.051  11.708  0.2402 -0.3857  0.0477
14784TIP3    H165767   6.733   5.100  11.662 -0.2947  0.8654  0.5492
14784TIP3    H265768   6.693   5.051  11.799  0.3988 -1.3223  0.0090
14785TIP3   OH265769   1.556   4.382   3.138 -0.1661 -1.1777 -0.4192
14785TIP3    H165770   1.553   4.314   3.204  1.2161  0.5536  1.5534
14785TIP3    H265771   1.648   4.392   3.116 -0.1240  0.9573  0.4250
14786TIP3   OH265772   1.919   2.235   6.569 -0.0297 -0.0634  0.4588
14786TIP3    H165773   1.828   2.238   6.539  0.3224 -1.2438 -0.8453
14786TIP3    H265774   1.946   2.326   6.574 -2.0451  0.4849  3.4142
14787TIP3   OH265775   3.287   1.263   1.777 -0.2681 -0.0169  0.7577
14787TIP3    H165776   3.310   1.201   1.708  0.0161  1.0865 -0.1805
14787TIP3    H265777   3.192   1.261   1.781 -0.2932  0.0460  0.1958
14788TIP3   OH265778   1.076   5.060  12.213 -0.2304 -0.4361 -0.2047
14788TIP3    H165779   1.000   5.113  12.236  0.2401 -0.0654  0.5024
14788TIP3    H265780   1.066   5.043  12.119 -0.4649  0.7629 -0.4019
14789TIP3   OH265781   4.748   1.596  15.711  0.6423  0.2762 -0.2270
14789TIP3    H165782   4.666   1.588  15.662 -0.0714  0.3614  0.9274
14789TIP3    H265783   4.813   1.553  15.655 -0.0363  0.8241 -1.4919
14790TIP3   OH265784   0.983   3.554   2.251  0.1636 -0.2976 -0.0088
14790TIP3    H165785   1.018   3.629   2.297  1.3511 -0.8906  0.0903
14790TIP3    H265786   0.933   3.591   2.178 -0.3424  0.5981  0.7739
14791TIP3   OH265787   5.256   5.206   2.257 -0.0209 -0.2823  0.1118
14791TIP3    H165788   5.337   5.164   2.228  1.2405  1.5128  0.8369
14791TIP3    H265789   5.225   5.253   2.180  0.1012 -0.3029  0.0494
14792TIP3   OH265790   5.532   1.592   1.803 -0.0377  0.0302  0.4835
14792TIP3    H165791   5.457   1.652   1.811 -0.3084 -0.2103 -0.1732
14792TIP3    H265792   5.503   1.512   1.847  0.8582  0.8282  2.6578
14793TIP3   OH265793   1.180   2.029   2.318  0.3692 -0.3185 -0.4304
14793TIP3    H165794   1.259   2.083   2.312  0.4144 -0.1233  1.3908
14793TIP3    H265795   1.212   1.939   2.303  0.1724  0.0580 -4.3101
14794TIP3   OH265796   1.201   2.013  11.141  0.3382 -0.2293 -0.3152
14794TIP3    H165797   1.183   2.102  11.169  0.3418 -0.2373 -0.2870
14794TIP3    H265798   1.226   2.021  11.049  0.3291 -0.2028 -0.3151
14795TIP3   OH265799   1.365   5.936   3.168  0.2128  0.3293 -0.0824
14795TIP3    H165800   1.394   5.872   3.103  0.5737  1.5468 -1.1696
14795TIP3    H265801   1.296   5.986   3.123 -0.7464  0.1038  1.0715
14796TIP3   OH265802   2.041   5.957   1.602  0.1681 -0.1830  0.0663
14796TIP3    H165803   2.135   5.972   1.614  0.7990 -1.1695 -2.9355
14796TIP3    H265804   2.003   6.045   1.600  1.0832  0.2452  0.8433
14797TIP3   OH265805   5.303   3.533   0.470 -0.3757  0.4069 -0.1015
14797TIP3    H165806   5.266   3.531   0.558  0.0047  0.6248  0.0650
14797TIP3    H265807   5.237   3.490   0.415  0.1585 -1.3816  0.5704
14798TIP3   OH265808   2.858   5.150   2.449 -0.3228 -0.2029  0.1413
14798TIP3    H165809   2.855   5.118   2.539  1.1259  0.9260  0.6416
14798TIP3    H265810   2.898   5.079   2.399  1.9475  0.3536  1.0424
14799TIP3   OH265811   6.498   5.940   5.680 -0.7095  0.2996 -0.3771
14799TIP3    H165812   6.410   5.909   5.703 -1.2393  0.8287 -1.5968
14799TIP3    H265813   6.556   5.894   5.741 -1.6977 -1.1200 -0.4433
14800TIP3   OH265814   5.113   5.664  11.297  0.6960 -0.4566 -0.1394
14800TIP3    H165815   5.172   5.633  11.228  0.7175  2.0850 -1.3865
14800TIP3    H265816   5.151   5.631  11.378  1.1877 -2.7811 -1.2451
14801TIP3   OH265817   0.496   3.539   2.545  0.5194  0.4460 -0.1237
14801TIP3    H165818   0.522   3.629   2.566  1.6160  0.3162 -0.8039
14801TIP3    H265819   0.405   3.546   2.517  1.4322  1.9141 -3.2653
14802TIP3   OH265820   4.345   5.553   2.724  0.0016 -0.0334 -0.0055
14802TIP3    H165821   4.279   5.488   2.698  0.5314 -1.1971  1.3891
14802TIP3    H265822   4.414   5.546   2.658  0.3126 -1.3435  0.4242
14803TIP3   OH265823   2.021   1.167  13.183  0.0061  0.3633 -0.3186
14803TIP3    H165824   1.949   1.130  13.234  2.1272 -0.7208  2.0644
14803TIP3    H265825   2.031   1.256  13.216  1.7425 -0.5157  1.7382
14804TIP3   OH265826   1.180   1.628   3.251 -0.3311  0.0032 -0.3287
14804TIP3    H165827   1.128   1.549   3.266 -0.8338  0.7873  2.7535
14804TIP3    H265828   1.116   1.699   3.252  0.2678  0.5913 -1.7919
14805TIP3   OH265829   0.045   1.713   2.022  0.2064 -0.0794 -0.2245
14805TIP3    H165830   0.024   1.643   2.083 -0.2760  0.1338 -0.1453
14805TIP3    H265831   0.087   1.780   2.077  0.9570 -0.4286 -0.3525
14806TIP3   OH265832   1.192   2.136   1.300  0.0172 -0.1408 -0.0229
14806TIP3    H165833   1.252   2.147   1.226 -0.4266 -2.1320 -0.7562
14806TIP3    H265834   1.246   2.098   1.369  0.1539  0.5077  0.2288
14807TIP3   OH265835   3.073   0.251   2.800 -0.0729 -0.3251  0.0274
14807TIP3    H165836   3.165   0.231   2.817  0.2970  1.7465  0.6639
14807TIP3    H265837   3.073   0.295   2.715 -0.5333 -0.6067 -0.1231
14808TIP3   OH265838   0.419   6.696   2.344  0.2469 -0.7392  0.4367
14808TIP3    H165839   0.462   6.673   2.426  0.8936  0.9392  0.6156
14808TIP3    H265840   0.476   6.762   2.305 -1.7006  0.9529  0.2614
14809TIP3   OH265841   6.755   6.386  12.894  0.2039  0.1746  0.0503
14809TIP3    H165842   6.696   6.461  12.886  1.4961  1.2748  0.3459
14809TIP3    H265843   6.820   6.399  12.824  0.6802 -0.4467  0.3630
14810TIP3   OH265844   5.175   6.667   3.955 -0.3882 -1.0430 -0.3278
14810TIP3    H165845   5.106   6.602   3.945 -0.9098 -0.5129 -0.2837
14810TIP3    H265846   5.224   6.663   3.873 -1.3007 -0.4994 -0.9229
14811TIP3   OH265847   3.320   4.892   1.378 -0.5318  0.0302  0.1030
14811TIP3    H165848   3.260   4.921   1.309  0.8134  0.5775 -0.8720
14811TIP3    H265849   3.329   4.797   1.363  0.7666  0.3331 -1.3618
14812TIP3   OH265850   0.581   5.791   2.200  0.5811  0.1287  0.2285
14812TIP3    H165851   0.496   5.769   2.238  0.9779 -2.1268 -0.0751
14812TIP3    H265852   0.645   5.755   2.261  1.3835  1.8820  0.5078
14813TIP3   OH265853   6.300   2.112   1.263 -0.1035 -0.7632 -0.0074
14813TIP3    H165854   6.328   2.028   1.225  0.0431 -0.1249 -1.3750
14813TIP3    H265855   6.300   2.173   1.189  1.6702  0.9302  1.2940
14814TIP3   OH265856   5.655   5.385  11.351 -0.1338  0.1919  0.3040
14814TIP3    H165857   5.619   5.300  11.376 -0.4783  0.5273  0.9720
14814TIP3    H265858   5.588   5.424  11.296 -1.5673  1.4814  2.8204
14815TIP3   OH265859   3.444   0.850  11.670 -0.2258  0.0143  0.3711
14815TIP3    H165860   3.513   0.816  11.614  0.3687 -2.6059  2.5093
14815TIP3    H265861   3.372   0.789  11.660 -1.5176  1.5520 -0.2143
14816TIP3   OH265862   5.060   3.290   4.626 -0.0648 -0.5705 -0.0423
14816TIP3    H165863   5.051   3.274   4.720  1.2808 -0.4274  0.1293
14816TIP3    H265864   5.094   3.207   4.591  1.6098  0.0799 -0.0258
14817TIP3   OH265865   1.973   6.473   3.493 -0.0924 -0.5759 -0.1028
14817TIP3    H165866   1.884   6.469   3.527 -0.0872 -0.2780 -0.0516
14817TIP3    H265867   1.997   6.381   3.476  0.3282 -0.8564  1.7732
14818TIP3   OH265868   5.413   4.222   7.156  0.1690 -0.3659 -0.2460
14818TIP3    H165869   5.452   4.284   7.095 -1.2852  1.3377  0.4450
14818TIP3    H265870   5.462   4.140   7.143  1.8727  0.7871 -1.5036
14819TIP3   OH265871   1.346   0.648   5.461 -0.3712  0.1541  0.3190
14819TIP3    H165872   1.373   0.645   5.553 -1.5305  1.2371  0.7386
14819TIP3    H265873   1.317   0.559   5.441  0.4640 -0.2358  0.8062
14820TIP3   OH265874   3.322   2.643   0.917  0.3792  0.1128 -0.0991
14820TIP3    H165875   3.364   2.685   0.992  1.0585 -2.2406  0.9436
14820TIP3    H265876   3.248   2.595   0.956 -1.5297  1.7733 -1.4919
14821TIP3   OH265877   5.712   5.052  17.139 -0.2495  0.4265  0.1525
14821TIP3    H165878   5.636   5.109  17.153 -1.4768 -0.8405 -0.9760
14821TIP3    H265879   5.691   4.972  17.186  0.0930 -0.1641 -0.6719
14822TIP3   OH265880   1.943   6.550   0.257  0.1475 -0.5711 -0.2349
14822TIP3    H165881   1.871   6.494   0.287 -0.1699 -0.0111  0.0817
14822TIP3    H265882   2.012   6.489   0.232  0.6627 -1.0791  2.1884
14823TIP3   OH265883   5.056   2.565   3.486  0.3449 -0.6985  0.3205
14823TIP3    H165884   5.011   2.530   3.410  2.4405 -1.1242 -0.7990
14823TIP3    H265885   5.104   2.641   3.453  0.1341 -0.0049  1.5442
14824TIP3   OH265886   6.288   0.256  10.558 -0.2491  0.1509 -0.2520
14824TIP3    H165887   6.354   0.233  10.623 -1.3165 -0.8534  0.5261
14824TIP3    H265888   6.245   0.173  10.537  0.0203  0.4712 -2.2102
14825TIP3   OH265889   4.244   1.715   2.959 -0.4456  0.1001  0.4116
14825TIP3    H165890   4.259   1.726   2.865 -0.5118  0.3681  0.4317
14825TIP3    H265891   4.246   1.804   2.994  1.5868 -0.1087  0.9745
14826TIP3   OH265892   2.398   5.219  17.308 -0.2057 -0.6698 -0.5881
14826TIP3    H165893   2.430   5.139  17.265  0.8437 -0.5174 -0.1188
14826TIP3    H265894   2.434   5.290  17.256 -1.4013 -0.4795 -1.1922
14827TIP3   OH265895   1.304   5.379   5.876  0.5437 -0.2226  0.0844
14827TIP3    H165896   1.258   5.414   5.952  1.4226 -0.3521  0.6961
14827TIP3    H265897   1.236   5.364   5.810 -0.0695  0.9698  0.4352
14828TIP3   OH265898   6.618   5.571   1.555  0.3416 -0.0487 -0.0242
14828TIP3    H165899   6.642   5.622   1.632  0.6514  0.8014 -0.6682
14828TIP3    H265900   6.523   5.573   1.554  0.3134 -0.5974  0.6761
14829TIP3   OH265901   2.769   4.146  14.484 -0.2733 -0.2707 -0.3195
14829TIP3    H165902   2.687   4.195  14.480  0.2650  0.9218  1.5201
14829TIP3    H265903   2.820   4.178  14.410 -1.0050 -0.1159 -0.7646
14830TIP3   OH265904   6.144   4.044  16.363  0.9023  0.0280  0.5364
14830TIP3    H165905   6.239   4.050  16.356  0.8079  2.7442  0.5443
14830TIP3    H265906   6.111   4.081  16.281 -0.1416  0.2666  1.0461
14831TIP3   OH265907   4.226   0.226   6.692 -0.1053 -0.2462  0.5458
14831TIP3    H165908   4.250   0.145   6.736  1.4600  0.7106  1.5432
14831TIP3    H265909   4.132   0.236   6.710 -0.3634 -1.8792  0.2573
14832TIP3   OH265910   1.804   5.716  12.911  0.8335  0.2609 -0.0817
14832TIP3    H165911   1.760   5.633  12.926  1.1658  0.0530 -0.2229
14832TIP3    H265912   1.748   5.782  12.951 -0.4671  0.2063 -1.6906
14833TIP3   OH265913   5.578   0.018   0.707  0.5357 -0.1989 -0.1654
14833TIP3    H165914   5.630   0.023   0.788  0.4652 -1.9292  0.0279
14833TIP3    H265915   5.635  -0.026   0.644  0.3757  0.6150 -0.9040
14834TIP3   OH265916   3.648   3.333  15.216 -0.3273 -0.4276  0.5542
14834TIP3    H165917   3.641   3.421  15.252  2.0679 -0.5489  1.5165
14834TIP3    H265918   3.742   3.316  15.213 -0.7228 -3.3656  1.4414
14835TIP3   OH265919   6.185   5.769  13.018 -0.4506 -0.2820  0.0366
14835TIP3    H165920   6.273   5.748  12.989 -0.5830 -0.6964 -0.0648
14835TIP3    H265921   6.189   5.862  13.043  0.2109 -0.5076  0.7975
14836TIP3   OH265922   2.811   4.921  15.860 -0.1499  0.1612  0.0605
14836TIP3    H165923   2.828   5.014  15.842 -0.0019 -0.0966 -1.2789
14836TIP3    H265924   2.876   4.874  15.807  0.1890 -0.7151  1.2010
14837TIP3   OH265925   3.915   0.843  17.290  0.4663  0.1782  0.2355
14837TIP3    H165926   3.843   0.814  17.234  0.9512  0.4639 -0.5580
14837TIP3    H265927   3.989   0.789  17.263  0.1647 -1.3440  2.2431
14838TIP3   OH265928   3.569   2.758  11.007  0.0163 -0.2683  0.0730
14838TIP3    H165929   3.544   2.724  10.922 -0.3959  0.9136 -0.2982
14838TIP3    H265930   3.623   2.689  11.046  1.0007 -0.4422 -1.5307
14839TIP3   OH265931   5.299   4.767  14.669  0.1841 -0.4995  0.4886
14839TIP3    H165932   5.245   4.844  14.655 -0.2884 -0.7010  1.1467
14839TIP3    H265933   5.236   4.695  14.674  0.3509 -0.5364  2.8858
14840TIP3   OH265934   2.603   5.588  16.808  0.3735 -0.3150  0.4911
14840TIP3    H165935   2.666   5.642  16.856  0.8858 -0.3796 -0.1082
14840TIP3    H265936   2.576   5.522  16.872  1.7959 -1.0010  0.4121
14841TIP3   OH265937   5.421   2.115   2.253 -0.2991 -0.1285 -0.1169
14841TIP3    H165938   5.326   2.127   2.258 -0.4179 -0.2926 -1.4613
14841TIP3    H265939   5.448   2.096   2.342 -1.4284  0.6552  0.4113
14842TIP3   OH265940   1.485   1.967   2.583 -0.3247  0.2180  0.9128
14842TIP3    H165941   1.392   1.951   2.601 -0.6791  1.3431  0.1688
14842TIP3    H265942   1.517   2.011   2.662  0.0683 -1.7989  1.9520
14843TIP3   OH265943   5.640   1.016   4.780 -0.3924  0.1270 -0.0298
14843TIP3    H165944   5.585   1.022   4.702 -1.3294 -1.2241  0.4804
14843TIP3    H265945   5.729   1.031   4.748 -0.8906  0.8719 -1.1289
14844TIP3   OH265946   6.719   4.508  13.162  0.2460  0.2969  0.2087
14844TIP3    H165947   6.815   4.499  13.163  0.2233 -0.1532  2.3429
14844TIP3    H265948   6.704   4.592  13.119  1.5467  0.0322 -0.8570
14845TIP3   OH265949   0.736   0.864   3.554  0.3135  0.0196 -0.5651
14845TIP3    H165950   0.784   0.920   3.616  1.9157 -2.0404  0.1541
14845TIP3    H265951   0.802   0.834   3.493 -0.2797 -1.8934 -0.3144
14846TIP3   OH265952   1.298   4.423   0.290 -0.2994  0.0436  0.2772
14846TIP3    H165953   1.283   4.411   0.384  2.4060 -0.1855  0.7600
14846TIP3    H265954   1.244   4.498   0.266 -1.5612 -0.3155  1.8355
14847TIP3   OH265955   1.255   5.276  14.958 -0.3169  0.3820  0.1827
14847TIP3    H165956   1.273   5.202  15.016 -0.0840  0.6065  0.4036
14847TIP3    H265957   1.191   5.329  15.007 -1.0205 -0.0315 -0.2778
14848TIP3   OH265958   2.210   5.141  13.014 -0.1179 -0.4813 -0.2181
14848TIP3    H165959   2.149   5.213  12.999  0.6930  0.0227 -1.2834
14848TIP3    H265960   2.296   5.179  12.997  0.4961 -1.2221  1.0882
14849TIP3   OH265961   0.254   5.396  11.571 -0.9374  0.3592 -0.3111
14849TIP3    H165962   0.185   5.329  11.574  0.0253 -0.8808 -2.9530
14849TIP3    H265963   0.206   5.479  11.565 -2.2658 -0.4491 -1.8086
14850TIP3   OH265964   3.906   3.781  13.313 -0.6063  0.1534 -0.5796
14850TIP3    H165965   3.866   3.845  13.255 -1.8277 -1.5109 -1.6443
14850TIP3    H265966   3.833   3.746  13.364  0.3402  1.0634  1.5117
14851TIP3   OH265967   2.998   4.067   5.158 -0.1677 -0.1895  0.2293
14851TIP3    H165968   3.060   4.127   5.199 -0.3889 -0.1414  0.4968
14851TIP3    H265969   3.041   3.982   5.160 -0.2698 -0.2279  0.7652
14852TIP3   OH265970   5.049   3.236   4.890 -0.4911  0.1716 -0.2173
14852TIP3    H165971   5.033   3.160   4.946  0.3167 -0.2700 -0.5679
14852TIP3    H265972   5.088   3.301   4.948 -2.8016  1.0312  0.5063
14853TIP3   OH265973   6.049   6.117  11.887  0.1661 -0.2695 -0.0221
14853TIP3    H165974   5.972   6.171  11.906  0.1050  0.1532 -1.3248
14853TIP3    H265975   6.022   6.028  11.910  0.5996  0.2936  3.1030
14854TIP3   OH265976   2.097   3.769  14.590  0.6720  0.0282 -0.0460
14854TIP3    H165977   2.027   3.710  14.619 -0.0421  0.5935 -0.5655
14854TIP3    H265978   2.139   3.797  14.671 -0.3139  0.3967  0.3604
14855TIP3   OH265979   5.293   0.631  16.157  0.0042  0.4255 -0.1649
14855TIP3    H165980   5.321   0.672  16.239  0.1670 -0.2288  0.1138
14855TIP3    H265981   5.374   0.619  16.107  0.1687 -0.8456  0.3568
14856TIP3   OH265982   5.515   5.947  15.135  0.5258 -0.0958 -0.4714
14856TIP3    H165983   5.504   5.965  15.042 -0.6823 -0.2369 -0.3835
14856TIP3    H265984   5.517   5.851  15.140  0.2039 -0.0954 -0.3209
14857TIP3   OH265985   6.659   2.355   2.968 -0.2864 -0.1641 -0.2610
14857TIP3    H165986   6.586   2.347   2.907 -0.9635  0.0177  0.5102
14857TIP3    H265987   6.660   2.448   2.992  0.2637 -0.1460 -0.3495
14858TIP3   OH265988   5.781   4.915  10.689 -0.4006  0.0732  0.4028
14858TIP3    H165989   5.717   4.919  10.760 -0.8813  0.3373 -0.0470
14858TIP3    H265990   5.798   4.822  10.677 -0.9058 -0.0116  0.3382
14859TIP3   OH265991   3.869   1.120   2.293 -0.1215 -0.6877 -0.1653
14859TIP3    H165992   3.906   1.208   2.305 -0.6921 -0.3174 -1.0067
14859TIP3    H265993   3.856   1.088   2.381  0.4278 -0.0672  0.1571
14860TIP3   OH265994   1.685   5.979  16.723 -0.0402 -0.6150  0.4814
14860TIP3    H165995   1.698   5.900  16.776  1.1631 -0.3996  0.5551
14860TIP3    H265996   1.728   6.048  16.774 -0.7535  0.0149  0.2426
14861TIP3   OH265997   1.637   2.857   2.910  0.0118  0.1562 -0.4137
14861TIP3    H165998   1.585   2.815   2.979  0.6528  0.7431  0.4543
14861TIP3    H265999   1.723   2.816   2.917  0.1910  0.4946 -0.6176
14862TIP3   OH266000   3.206   1.630  15.412  0.2412  0.5217 -0.0657
14862TIP3    H166001   3.169   1.688  15.345  1.2758  1.7644  0.3858
14862TIP3    H266002   3.178   1.669  15.495 -0.8147 -0.8572  0.2688
14863TIP3   OH266003   1.253   1.511  15.727 -0.3724  0.1981 -0.5252
14863TIP3    H166004   1.243   1.564  15.647  2.3643 -0.4741 -1.4138
14863TIP3    H266005   1.241   1.421  15.697  0.9194 -0.0751 -0.2893
14864TIP3   OH266006   5.876   4.144   3.478 -0.2585  0.0934  0.7600
14864TIP3    H166007   5.920   4.155   3.394  2.1460 -2.6697  1.4844
14864TIP3    H266008   5.789   4.112   3.455  0.1236  0.0194 -0.6884
14865TIP3   OH266009   6.077   2.975  11.453 -0.3027  0.1359  0.1951
14865TIP3    H166010   6.148   3.027  11.491  0.3208 -0.5188 -0.0280
14865TIP3    H266011   6.006   3.037  11.439 -0.0094  0.6822  1.0347
14866TIP3   OH266012   1.757   5.594   1.149 -0.9105  0.6730  0.5675
14866TIP3    H166013   1.677   5.647   1.150 -0.1806  1.8381 -0.0498
14866TIP3    H266014   1.826   5.656   1.173 -0.4749 -0.8720  3.7534
14867TIP3   OH266015   2.107   5.402  13.009  0.2942  0.3502  0.2242
14867TIP3    H166016   2.054   5.428  12.934  1.4163 -0.0848 -0.7571
14867TIP3    H266017   2.174   5.470  13.016  0.4367  0.1789  0.5740
14868TIP3   OH266018   4.624   4.274  16.199 -0.2091  0.3293  0.5951
14868TIP3    H166019   4.646   4.201  16.256 -0.8659 -0.7771 -0.5128
14868TIP3    H266020   4.624   4.350  16.256 -0.4617 -0.6774  1.9796
14869TIP3   OH266021   1.699   0.186   5.059  0.6475  0.2038  0.3370
14869TIP3    H166022   1.788   0.219   5.067  0.4311  1.0328 -0.4733
14869TIP3    H266023   1.669   0.217   4.974 -0.0454 -0.9965  0.1168
14870TIP3   OH266024   1.547   0.872  14.536  0.5857  0.0567 -0.4490
14870TIP3    H166025   1.458   0.863  14.502  0.8768  0.1546 -1.2454
14870TIP3    H266026   1.599   0.898  14.461  1.4031 -0.5898 -0.1228
14871TIP3   OH266027   6.022   0.513  11.555  0.5075 -0.2019  0.0137
14871TIP3    H166028   6.114   0.540  11.549  0.5992 -0.5076 -0.0012
14871TIP3    H266029   6.015   0.438  11.496 -0.2334  1.0330 -1.5203
14872TIP3   OH266030   4.106   5.113  15.544  0.4513  0.1000  0.0977
14872TIP3    H166031   4.140   5.173  15.610 -0.5374  0.0641  0.6624
14872TIP3    H266032   4.087   5.033  15.593  2.3599 -0.9308 -0.7579
14873TIP3   OH266033   0.890   5.182  13.236  0.3768 -0.0838  0.9277
14873TIP3    H166034   0.979   5.155  13.260 -0.5407 -1.2454  3.4582
14873TIP3    H266035   0.839   5.166  13.315 -2.1150  0.4826 -0.4719
14874TIP3   OH266036   4.119   3.501  11.527 -0.3374 -0.0005  0.5501
14874TIP3    H166037   4.100   3.498  11.621 -1.4890  0.9597  0.3738
14874TIP3    H266038   4.035   3.479  11.485  0.6617 -2.5867 -0.2714
14875TIP3   OH266039   3.525   5.968  12.082  0.5117  0.4215  0.4915
14875TIP3    H166040   3.454   6.032  12.091  0.0439 -0.2308  1.6556
14875TIP3    H266041   3.491   5.902  12.022 -0.0824 -0.1436  1.4244
14876TIP3   OH266042   3.345   4.912  12.440 -0.2500 -0.6755 -0.0984
14876TIP3    H166043   3.334   5.001  12.407 -0.6085 -0.4817  0.5192
14876TIP3    H266044   3.324   4.856  12.365 -1.1383 -0.2505 -0.1881
14877TIP3   OH266045   3.903   5.900   6.345  0.0320 -0.3699 -0.0607
14877TIP3    H166046   3.839   5.950   6.395 -2.4992 -0.0971 -3.2998
14877TIP3    H266047   3.897   5.811   6.380 -0.0824  0.2040  1.4587
14878TIP3   OH266048   3.682   5.554  16.152 -0.1364  0.5551 -0.9694
14878TIP3    H166049   3.749   5.622  16.149  1.5188 -1.0215 -1.6880
14878TIP3    H266050   3.654   5.552  16.243  0.8521  1.2083 -0.6385
14879TIP3   OH266051   0.449   2.244   0.179  0.2975  0.2880  1.0528
14879TIP3    H166052   0.421   2.198   0.258  0.3669 -0.9284  0.3993
14879TIP3    H266053   0.369   2.258   0.129  0.5563 -1.7649 -0.0753
14880TIP3   OH266054   1.693   2.573  17.077 -0.0916  0.0936 -0.4216
14880TIP3    H166055   1.763   2.621  17.121 -0.3886 -0.9254  1.2713
14880TIP3    H266056   1.613   2.620  17.101 -0.0774  0.9033 -1.8580
14881TIP3   OH266057   0.187   4.701   3.322  0.7445 -0.2360 -0.0413
14881TIP3    H166058   0.140   4.623   3.293  2.3236 -0.7549 -1.3409
14881TIP3    H266059   0.222   4.678   3.408  2.3261 -1.5308 -0.9640
14882TIP3   OH266060   0.118   4.183  13.492  0.0263  0.0955  0.2928
14882TIP3    H166061   0.213   4.192  13.496 -0.1022  2.4205 -0.3967
14882TIP3    H266062   0.102   4.090  13.510  2.2813 -0.0072  2.3380
14883TIP3   OH266063   5.570   3.424   0.967  0.3707 -0.8511 -0.7186
14883TIP3    H166064   5.648   3.369   0.975  1.2794  0.2999 -1.3366
14883TIP3    H266065   5.545   3.444   1.057  0.6094 -1.4832 -0.5071
14884TIP3   OH266066   3.944   2.077  13.430 -0.1827 -0.1598  0.5917
14884TIP3    H166067   3.940   2.111  13.519 -2.2454 -3.3296  1.8821
14884TIP3    H266068   4.023   2.023  13.429 -0.3075 -0.3392  0.5639
14885TIP3   OH266069   6.465   6.248   4.096 -0.4413  0.3653  0.4743
14885TIP3    H166070   6.385   6.206   4.126 -1.5736  3.0560  1.5565
14885TIP3    H266071   6.534   6.210   4.150 -1.0082 -1.5920 -0.0975
14886TIP3   OH266072   3.655   2.571   5.663 -0.0469 -0.1078  0.4377
14886TIP3    H166073   3.725   2.600   5.721  0.8375 -1.1218 -0.1019
14886TIP3    H266074   3.613   2.500   5.710 -0.6571  0.4153  0.7053
14887TIP3   OH266075   2.714   3.199  13.725  0.7840 -0.1553  0.4048
14887TIP3    H166076   2.761   3.187  13.808 -0.7247 -2.7844  0.9988
14887TIP3    H266077   2.728   3.117  13.677  0.2958  0.6866 -1.2493
14888TIP3   OH266078   3.892   1.862   4.821  0.7754 -0.0109  0.1615
14888TIP3    H166079   3.928   1.776   4.841  1.1213 -0.1964 -1.2058
14888TIP3    H266080   3.836   1.849   4.745  1.9317  1.1825 -0.9571
14889TIP3   OH266081   4.464   4.190  11.846 -0.2784 -0.3370  0.1643
14889TIP3    H166082   4.500   4.143  11.771 -1.4590 -1.0641  0.0255
14889TIP3    H266083   4.505   4.148  11.922 -2.6714 -2.9601  0.1525
14890TIP3   OH266084   5.710   1.987   5.071 -0.2656  0.0044 -0.1008
14890TIP3    H166085   5.630   2.029   5.041 -0.4775  0.1959  0.7101
14890TIP3    H266086   5.717   1.907   5.019  0.2374  1.1075 -1.8089
14891TIP3   OH266087   6.160   5.287  13.336  0.0778 -0.2705 -0.1170
14891TIP3    H166088   6.227   5.311  13.272  0.4888  1.1494  0.8058
14891TIP3    H266089   6.098   5.360  13.334  0.2286 -0.0817  1.2581
14892TIP3   OH266090   2.457   0.225   4.721 -0.0097 -0.1564  0.0048
14892TIP3    H166091   2.528   0.269   4.673 -0.6264  0.2506 -0.5577
14892TIP3    H266092   2.501   0.176   4.790  0.8063  0.2343 -0.2276
14893TIP3   OH266093   1.472   1.165   1.873  0.1515 -0.3253 -0.3329
14893TIP3    H166094   1.531   1.173   1.797  1.2833  0.3599  0.5776
14893TIP3    H266095   1.519   1.208   1.944 -1.7074  0.7548  0.3192
14894TIP3   OH266096   5.232   5.545  12.500  0.4914 -0.0973  0.3562
14894TIP3    H166097   5.309   5.578  12.455 -1.2716  1.9767 -1.3695
14894TIP3    H266098   5.264   5.472  12.554  3.9210  1.7543  1.0927
14895TIP3   OH266099   3.408   1.600  12.010 -1.0369  0.5194  0.0658
14895TIP3    H166100   3.313   1.607  11.999 -1.1930  0.1400  1.0006
14895TIP3    H266101   3.444   1.611  11.922 -1.9009  1.4057 -0.1958
14896TIP3   OH266102   1.002   3.117   5.795 -0.0578  0.3938  0.0192
14896TIP3    H166103   1.009   3.196   5.741 -2.0758  0.2294 -0.5959
14896TIP3    H266104   1.006   3.148   5.885 -0.7219  1.1988 -0.2189
14897TIP3   OH266105   5.372   5.736  12.076 -0.3144  0.1777  0.3816
14897TIP3    H166106   5.394   5.743  11.983 -0.9411 -2.7267 -0.0994
14897TIP3    H266107   5.293   5.789  12.087 -0.1683  0.6401 -0.7028
14898TIP3   OH266108   3.026   5.039  13.007  0.2004 -0.2234 -0.0876
14898TIP3    H166109   2.993   5.088  12.932  2.6626  0.9864 -0.4765
14898TIP3    H266110   3.010   4.948  12.985  0.4005  0.1386 -1.8861
14899TIP3   OH266111   0.756   3.672   5.289  0.1043  0.3681 -0.0855
14899TIP3    H166112   0.741   3.665   5.383  3.4067  2.7430  0.8150
14899TIP3    H266113   0.800   3.591   5.265 -2.9206 -1.3488 -0.2478
14900TIP3   OH266114   1.849   1.977  12.725 -0.1166 -0.0335  0.4832
14900TIP3    H166115   1.882   2.017  12.645  0.6590  1.0919  1.3252
14900TIP3    H266116   1.908   1.904  12.743 -0.0944 -0.0828  0.2150
14901TIP3   OH266117   3.643   0.418  11.026  0.0364 -0.7096 -0.5819
14901TIP3    H166118   3.715   0.458  10.977  0.0629 -1.5754 -1.2722
14901TIP3    H266119   3.569   0.478  11.012  1.1005  1.3394  1.8816
14902TIP3   OH266120   6.290   1.119  13.541 -0.2947  0.5445 -0.2008
14902TIP3    H166121   6.359   1.159  13.594 -0.3848 -0.2234  0.5043
14902TIP3    H266122   6.299   1.025  13.556 -2.3111  0.4808  0.9687
14903TIP3   OH266123   1.835   3.404  14.938 -0.1978  0.2880  0.3349
14903TIP3    H166124   1.777   3.439  15.004  0.1714  2.1758 -0.2940
14903TIP3    H266125   1.794   3.427  14.855  0.9155  0.7637 -0.1081
14904TIP3   OH266126   4.265   4.784  13.721 -0.2697  0.2631  0.1593
14904TIP3    H166127   4.318   4.710  13.693 -1.7964 -1.7269  2.1335
14904TIP3    H266128   4.327   4.855  13.732  0.8952  0.2976 -4.5809
14905TIP3   OH266129   5.423   0.101   0.482  0.1333 -0.2331 -0.2590
14905TIP3    H166130   5.481   0.103   0.558 -1.5015  0.6142  1.0542
14905TIP3    H266131   5.464   0.158   0.418  0.8224  0.2484  0.5887
14906TIP3   OH266132   2.937   4.245   3.509 -0.2031 -0.2510  0.2010
14906TIP3    H166133   3.032   4.235   3.505 -0.2045 -0.8992  1.2227
14906TIP3    H266134   2.904   4.157   3.524 -1.0187 -0.1159 -0.7090
14907TIP3   OH266135   6.033   4.050   6.404  0.5408  0.1324 -0.2045
14907TIP3    H166136   6.095   4.117   6.431 -0.3617  0.1205  2.1517
14907TIP3    H266137   5.947   4.086   6.429  0.0034 -1.6626  0.7170
14908TIP3   OH266138   2.685   5.417  12.109 -0.7663  0.1534  0.3460
14908TIP3    H166139   2.663   5.326  12.089 -0.7084  0.0131  0.9046
14908TIP3    H266140   2.615   5.447  12.167 -0.9696  0.5734 -0.1115
14909TIP3   OH266141   3.380   1.855   1.165  0.0233 -0.2776  0.0523
14909TIP3    H166142   3.293   1.872   1.128  0.2684 -1.7238 -1.2904
14909TIP3    H266143   3.428   1.937   1.150 -0.7242  0.1016 -0.3455
14910TIP3   OH266144   4.051   5.917  11.617  0.4409 -0.2625  0.6021
14910TIP3    H166145   4.035   5.847  11.554 -1.2595  1.2015 -0.6736
14910TIP3    H266146   4.140   5.946  11.599  0.2902 -0.4611 -0.5221
14911TIP3   OH266147   5.020   1.815  12.254  0.3062 -0.1815 -0.6001
14911TIP3    H166148   5.090   1.751  12.246 -1.0182 -1.6446 -0.8349
14911TIP3    H266149   4.995   1.813  12.347 -0.1054 -0.4281 -0.7110
14912TIP3   OH266150   3.910   3.350  17.267  0.5658 -0.0764 -0.0679
14912TIP3    H166151   3.924   3.365  17.173  1.4184  0.0526  0.0707
14912TIP3    H266152   3.884   3.435  17.301 -1.8708 -0.5654 -0.5303
14913TIP3   OH266153   4.356   3.702   0.563  0.0249  0.0124 -0.3521
14913TIP3    H166154   4.288   3.697   0.630  0.0402  1.0116 -0.2367
14913TIP3    H266155   4.435   3.728   0.611  0.0765  0.5630 -0.7267
14914TIP3   OH266156   4.983   0.775  16.978  0.2606  0.2266 -0.1002
14914TIP3    H166157   5.026   0.856  17.007  0.0547  0.6995 -1.1029
14914TIP3    H266158   4.897   0.803  16.947  0.5443 -0.2385 -1.3465
14915TIP3   OH266159   6.531   2.918  13.133  0.3025  1.2980  0.0409
14915TIP3    H166160   6.562   2.893  13.045  0.1295  3.2142 -0.6093
14915TIP3    H266161   6.605   2.898  13.190  0.5583  0.3597 -0.5844
14916TIP3   OH266162   3.978   3.857  11.861  0.4460 -0.7785  0.0939
14916TIP3    H166163   3.954   3.814  11.779  1.7093  0.1684 -0.8207
14916TIP3    H266164   3.896   3.889  11.897 -0.0157 -0.1801 -1.4222
14917TIP3   OH266165   5.453   3.927   2.387 -0.0811 -0.1187  0.0136
14917TIP3    H166166   5.487   3.905   2.301 -0.2144  0.2707 -0.1400
14917TIP3    H266167   5.531   3.942   2.441  0.0097  0.7318 -0.3271
14918TIP3   OH266168   0.041   5.598  15.522  0.1678 -0.0315  0.1944
14918TIP3    H166169   0.136   5.592  15.510  0.4507  0.4903  1.9058
14918TIP3    H266170   0.023   5.692  15.524 -0.5344 -0.1228 -0.9940
14919TIP3   OH266171   6.262   0.686   0.387 -0.4135 -0.3051 -0.1189
14919TIP3    H166172   6.327   0.701   0.456  0.5463  0.6637 -1.1833
14919TIP3    H266173   6.313   0.663   0.310 -1.3964 -0.4451 -0.7543
14920TIP3   OH266174   1.301   5.979  14.664 -0.4828 -0.1605 -0.1800
14920TIP3    H166175   1.335   5.889  14.670  2.6482  0.9174  0.2942
14920TIP3    H266176   1.234   5.984  14.732 -0.2816 -1.9608  0.2144
14921TIP3   OH266177   2.993   3.922  12.226 -0.0625  0.2760  0.2805
14921TIP3    H166178   3.086   3.917  12.205 -0.3615 -0.0321 -1.0778
14921TIP3    H266179   2.960   3.995  12.173 -0.7576 -0.1970  0.0418
14922TIP3   OH266180   0.205   0.717   1.753  0.4074 -0.3261 -0.1169
14922TIP3    H166181   0.118   0.685   1.775  0.9004 -2.5948 -1.1745
14922TIP3    H266182   0.201   0.811   1.770 -1.8849 -0.5444  0.9098
14923TIP3   OH266183   5.231   0.459   0.866 -0.0436 -0.2670 -0.0763
14923TIP3    H166184   5.192   0.448   0.779  0.2775 -1.0593 -0.1289
14923TIP3    H266185   5.299   0.391   0.871 -0.3483 -0.5213  0.9529
14924TIP3   OH266186   3.001   2.685  17.089 -0.0510 -0.1123  0.1800
14924TIP3    H166187   3.084   2.732  17.093  0.4290 -0.8041 -1.1045
14924TIP3    H266188   2.993   2.643  17.175  0.9923 -0.1418  0.2678
14925TIP3   OH266189   0.108   0.144  11.206  0.4639  0.3275 -0.0697
14925TIP3    H166190   0.052   0.117  11.134  0.6508 -1.7586  0.5071
14925TIP3    H266191   0.162   0.067  11.226  1.7760  1.4613  1.0410
14926TIP3   OH266192   6.272   4.150  12.926  0.0963  0.0606 -0.2357
14926TIP3    H166193   6.329   4.193  12.989 -0.6746  0.5015  0.1746
14926TIP3    H266194   6.331   4.117  12.858  0.7661  1.1325 -0.1860
14927TIP3   OH266195   4.391   0.372  10.811 -0.0192  0.1379 -0.3879
14927TIP3    H166196   4.440   0.453  10.797 -0.4778  0.4395 -0.2537
14927TIP3    H266197   4.437   0.328  10.883  1.5670 -0.7994 -1.8763
14928TIP3   OH266198   2.797   2.203   0.116 -0.5426 -0.1507 -0.0953
14928TIP3    H166199   2.724   2.235   0.062  0.4246  0.6922 -0.9345
14928TIP3    H266200   2.811   2.113   0.086  2.2090  1.2989 -3.8526
14929TIP3   OH266201   1.616   4.286  14.848  0.4472 -0.6926  0.0260
14929TIP3    H166202   1.684   4.294  14.915  1.3551 -1.8220 -0.7324
14929TIP3    H266203   1.637   4.205  14.801 -1.6213 -1.2658 -0.0087
14930TIP3   OH266204   4.774   4.604   0.371  0.1068  0.7570  0.2890
14930TIP3    H166205   4.690   4.610   0.417  0.6263  1.5075  1.1691
14930TIP3    H266206   4.825   4.540   0.421  0.9554  2.1366  1.2545
14931TIP3   OH266207   5.901   4.160  13.701 -0.0291 -0.1155  0.0093
14931TIP3    H166208   5.814   4.178  13.736 -0.9023  1.3046 -2.6104
14931TIP3    H266209   5.930   4.081  13.747 -3.8011 -2.2341 -0.8384
14932TIP3   OH266210   6.133   6.317  15.098 -0.0692 -0.0397 -0.6883
14932TIP3    H166211   6.174   6.258  15.034  1.5200 -0.8163  0.9519
14932TIP3    H266212   6.058   6.267  15.130 -0.7325  0.2537 -1.7269
14933TIP3   OH266213   0.982   3.737   4.951 -0.1901  0.6777  0.0130
14933TIP3    H166214   0.935   3.792   4.888  1.9095  2.4375 -0.1260
14933TIP3    H266215   0.987   3.790   5.030  0.2277 -0.0991  0.5159
14934TIP3   OH266216   0.102   4.262  17.076 -0.6220  0.2447  0.3042
14934TIP3    H166217   0.146   4.207  17.012  0.9177  0.2804  1.2838
14934TIP3    H266218   0.010   4.236  17.071 -0.3458 -0.5669 -1.0625
14935TIP3   OH266219   2.425   2.846  13.627 -0.2858  0.5355 -0.1914
14935TIP3    H166220   2.456   2.922  13.677 -1.2210  1.2049 -0.5991
14935TIP3    H266221   2.405   2.780  13.693  0.2675  0.7328  0.1828
14936TIP3   OH266222   1.491   6.176   1.621  0.2326  0.1861  0.8298
14936TIP3    H166223   1.471   6.242   1.555  1.5051  1.4428  1.6440
14936TIP3    H266224   1.484   6.222   1.704 -1.9282 -1.5143  1.6752
14937TIP3   OH266225   1.888   3.708   1.017  0.0892  0.1991 -0.3594
14937TIP3    H166226   1.916   3.639   0.956  0.9974  0.3630 -0.1479
14937TIP3    H266227   1.833   3.766   0.964 -2.1858 -1.5956 -0.1294
14938TIP3   OH266228   3.964   1.589   2.637 -0.3128  0.4690 -0.1583
14938TIP3    H166229   4.056   1.617   2.639 -1.0280  3.0391  1.9850
14938TIP3    H266230   3.966   1.501   2.674  1.3105  0.4153 -0.2815
14939TIP3   OH266231   6.607   1.131  15.685 -0.1496  0.6583 -0.1433
14939TIP3    H166232   6.602   1.066  15.755  0.2945  0.6856 -0.0871
14939TIP3    H266233   6.692   1.174  15.697 -0.3156  1.0531 -0.3532
14940TIP3   OH266234   1.384   0.718   1.541 -0.5229 -0.5954  0.7077
14940TIP3    H166235   1.397   0.624   1.549  0.0210 -0.8171 -1.8564
14940TIP3    H266236   1.457   0.757   1.588  1.1868 -1.5766 -0.9985
14941TIP3   OH266237   6.322   2.484  15.458 -0.1467 -0.4503  0.4288
14941TIP3    H166238   6.410   2.513  15.482 -0.7912  1.7010  0.3327
14941TIP3    H266239   6.309   2.403  15.507  2.1544 -1.2538 -0.1470
14942TIP3   OH266240   0.124   4.226   5.427 -0.1413 -0.0909  0.3360
14942TIP3    H166241   0.164   4.176   5.498  1.1754 -0.9837 -0.9726
14942TIP3    H266242   0.029   4.217   5.442  0.0971 -0.0593  2.0780
14943TIP3   OH266243   0.433   0.331   2.258 -0.1500 -0.1608  0.4645
14943TIP3    H166244   0.351   0.342   2.210 -0.2642  0.5416  0.8048
14943TIP3    H266245   0.411   0.353   2.348  0.6145  0.9184  0.4013
14944TIP3   OH266246   1.061   4.437   0.936 -0.1074  0.1774  0.1170
14944TIP3    H166247   1.058   4.421   0.842 -2.9616  0.8988 -0.0101
14944TIP3    H266248   1.047   4.532   0.945 -1.5815 -0.1135  1.2673
14945TIP3   OH266249   5.255   4.143   4.518  0.1043 -0.1574 -0.3572
14945TIP3    H166250   5.308   4.080   4.566 -0.6465 -1.1768 -0.8314
14945TIP3    H266251   5.317   4.188   4.460  0.9331  0.7500  1.1889
14946TIP3   OH266252   0.076   0.298  16.704 -0.2932  0.2136  0.1904
14946TIP3    H166253   0.168   0.277  16.723 -0.5515 -0.0382  1.2323
14946TIP3    H266254   0.043   0.222  16.656 -0.3103 -0.2883  0.9792
14947TIP3   OH266255   4.906   6.548   3.237 -0.1107  0.0637  0.5512
14947TIP3    H166256   4.983   6.553   3.294  1.9724 -2.3617 -1.7966
14947TIP3    H266257   4.867   6.463   3.257  0.3204 -0.5677 -1.1318
14948TIP3   OH266258   4.258   3.064  16.450  0.3029  0.2297 -0.0381
14948TIP3    H166259   4.213   3.066  16.366  1.1943 -2.0799 -0.6570
14948TIP3    H266260   4.275   3.155  16.471  0.7393  0.8659 -2.7626
14949TIP3   OH266261   1.905   3.434   0.115  0.1901  0.0306 -0.2110
14949TIP3    H166262   1.841   3.394   0.174 -0.5376 -0.4756 -1.3109
14949TIP3    H266263   1.858   3.445   0.033  1.6123 -0.7028 -1.1659
14950TIP3   OH266264   4.869   5.483  16.897 -0.0844 -0.3712  0.0859
14950TIP3    H166265   4.852   5.480  16.803  1.7723 -0.9086 -0.2837
14950TIP3    H266266   4.786   5.511  16.936 -0.8999 -0.1666 -1.6966
14951TIP3   OH266267   5.112   5.899   3.769 -0.5008  0.3495 -0.2843
14951TIP3    H166268   5.025   5.875   3.738 -0.0609 -0.8801 -0.6325
14951TIP3    H266269   5.127   5.842   3.845  0.4360 -0.2911 -0.9233
14952TIP3   OH266270   1.710   4.846  14.797  0.1698 -0.2314  0.5995
14952TIP3    H166271   1.635   4.895  14.764  0.5286 -0.6698 -0.9385
14952TIP3    H266272   1.674   4.760  14.820  0.0933 -0.2349  0.4662
14953TIP3   OH266273   1.141   3.115  12.657  0.0153  0.1307  0.0947
14953TIP3    H166274   1.196   3.068  12.720 -0.4528 -0.0862  0.3461
14953TIP3    H266275   1.122   3.051  12.589 -0.6615 -0.0607  0.4610
14954TIP3   OH266276   0.895   5.691   1.265  0.4740  0.2144 -0.1500
14954TIP3    H166277   0.862   5.647   1.186  0.0374 -0.5719  0.4580
14954TIP3    H266278   0.961   5.631   1.300  0.3451  0.3513  0.3325
14955TIP3   OH266279   5.501   4.371   5.731 -0.1883 -0.5588 -0.0594
14955TIP3    H166280   5.464   4.296   5.684 -1.1112 -1.3073  1.7450
14955TIP3    H266281   5.574   4.334   5.782  1.1986  0.3510 -1.3221
14956TIP3   OH266282   0.387   6.036   0.196 -0.3954  0.2343  0.2623
14956TIP3    H166283   0.387   6.078   0.110  0.3443  0.4698  0.3633
14956TIP3    H266284   0.447   5.962   0.186  1.4053  1.4854  1.1067
14957TIP3   OH266285   4.856   2.959  13.368 -0.1333 -0.1594  0.4267
14957TIP3    H166286   4.885   2.876  13.330  0.2004 -0.7595  1.9268
14957TIP3    H266287   4.817   2.935  13.452 -0.9570  1.1069  0.4378
14958TIP3   OH266288   4.386   2.994  12.147 -0.0975 -0.1334 -0.1491
14958TIP3    H166289   4.365   2.910  12.187 -0.7897  0.2260  0.2619
14958TIP3    H266290   4.479   3.007  12.165 -0.0714 -0.6403  0.0987
14959TIP3   OH266291   0.873   0.418  10.689 -0.3609  0.0410 -0.2435
14959TIP3    H166292   0.832   0.505  10.684 -1.8155 -0.5669  0.6866
14959TIP3    H266293   0.802   0.359  10.712  0.8865 -1.2022  0.5643
14960TIP3   OH266294   1.312   4.659  14.265  0.1062 -0.3820 -0.3801
14960TIP3    H166295   1.293   4.744  14.226  0.8566 -0.2185 -0.3967
14960TIP3    H266296   1.343   4.605  14.193 -0.7855 -0.8173 -0.4555
14961TIP3   OH266297   4.478   4.398  14.292  0.2175 -0.1360 -0.1071
14961TIP3    H166298   4.502   4.489  14.311  0.3986 -0.2042 -0.0014
14961TIP3    H266299   4.519   4.380  14.207  1.8549 -0.7274  0.7602
14962TIP3   OH266300   3.125   5.672  14.072  0.0777  0.3807 -0.2949
14962TIP3    H166301   3.176   5.751  14.061 -0.1210  1.1007  2.9918
14962TIP3    H266302   3.175   5.618  14.132 -1.5342 -0.2838  0.5315
14963TIP3   OH266303   4.699   5.302  14.764 -0.0567 -0.1026  0.2287
14963TIP3    H166304   4.753   5.269  14.693 -0.5226 -2.7507  0.9748
14963TIP3    H266305   4.630   5.236  14.774 -0.8727  0.9582  2.1303
14964TIP3   OH266306   2.798   2.038   4.396  0.1525  0.0810 -0.2013
14964TIP3    H166307   2.724   2.031   4.336  0.3337  0.4715 -0.4679
14964TIP3    H266308   2.809   1.949   4.430 -0.2580 -0.0383 -0.3770
14965TIP3   OH266309   4.958   2.729  12.460 -0.2723  0.3601 -0.0855
14965TIP3    H166310   4.986   2.653  12.512 -0.3431 -0.6755 -1.4723
14965TIP3    H266311   5.010   2.721  12.379 -1.1799  1.0919 -0.7521
14966TIP3   OH266312   6.219   2.222   3.403 -0.4648  0.2595 -0.1859
14966TIP3    H166313   6.178   2.303   3.432 -0.1788  0.2133  0.3412
14966TIP3    H266314   6.148   2.174   3.359 -1.6629 -0.8682  2.7171
14967TIP3   OH266315   3.477   4.137   0.461  0.0164 -0.1110 -0.0470
14967TIP3    H166316   3.401   4.171   0.509  0.5852 -0.3059  1.0134
14967TIP3    H266317   3.476   4.184   0.378  0.8230  2.6238  1.3760
14968TIP3   OH266318   0.737   2.430   4.746  0.3602  0.8443  0.3304
14968TIP3    H166319   0.790   2.354   4.723 -0.3318 -0.4385  2.6474
14968TIP3    H266320   0.797   2.490   4.790  0.9189  1.7423 -1.5507
14969TIP3   OH266321   0.377   0.491  15.406  0.0256  0.7540  0.4130
14969TIP3    H166322   0.444   0.426  15.427 -0.2889  0.5484  0.7994
14969TIP3    H266323   0.426   0.570  15.385  0.4934 -0.0074 -1.6041
14970TIP3   OH266324   0.611   2.096   3.844  0.3419  0.2461  0.7606
14970TIP3    H166325   0.690   2.106   3.897  1.3960 -0.6332 -0.5661
14970TIP3    H266326   0.632   2.139   3.761 -0.5670 -0.0250  0.3740
14971TIP3   OH266327   2.545   0.632  10.982 -0.4921  0.4926 -0.4420
14971TIP3    H166328   2.478   0.617  11.048  0.5851  0.1290  0.6032
14971TIP3    H266329   2.502   0.611  10.899 -1.6814  0.3634  0.1824
14972TIP3   OH266330   2.459   3.960  12.384  0.1784  0.0030  0.9709
14972TIP3    H166331   2.436   3.909  12.462 -0.7823 -0.7933  0.2063
14972TIP3    H266332   2.510   4.034  12.417  0.7234 -0.9018  2.2288
14973TIP3   OH266333   4.334   0.227  13.291  0.5008 -0.5226 -0.1552
14973TIP3    H166334   4.408   0.264  13.242  2.0954 -1.7289  1.2435
14973TIP3    H266335   4.279   0.187  13.223 -0.0676  2.2274 -1.4602
14974TIP3   OH266336   0.064   2.797  16.808 -0.0039 -0.2746 -0.0088
14974TIP3    H166337  -0.013   2.749  16.841 -0.1148  1.0793  1.8252
14974TIP3    H266338   0.028   2.876  16.767  0.4023  0.6083  1.2897
14975TIP3   OH266339   6.402   3.888   0.203 -0.2812  0.2228  0.7302
14975TIP3    H166340   6.480   3.857   0.156 -1.2578 -2.8645  0.8809
14975TIP3    H266341   6.424   3.878   0.295 -0.4528  0.4682  0.7974
14976TIP3   OH266342   2.508   4.901  16.540 -0.3784  0.0461 -0.1436
14976TIP3    H166343   2.564   4.908  16.463 -0.3812  1.9149 -0.0193
14976TIP3    H266344   2.553   4.838  16.597  2.2835  2.3310  0.4758
14977TIP3   OH266345   5.710   3.018   5.802 -0.2161 -0.4691  0.0214
14977TIP3    H166346   5.736   2.961   5.874 -0.4330 -1.8847 -0.9839
14977TIP3    H266347   5.792   3.059   5.773 -0.0846 -0.1263  0.8497
14978TIP3   OH266348   3.039   3.404  12.617  0.0266  0.3722 -0.1644
14978TIP3    H166349   2.983   3.467  12.662  0.3601  0.1674  0.5588
14978TIP3    H266350   3.120   3.451  12.600  0.7635 -0.2033  1.5325
14979TIP3   OH266351   3.114   5.000   3.761 -0.5405  0.4701  0.2347
14979TIP3    H166352   3.081   5.030   3.677 -2.0694 -1.7980 -0.0415
14979TIP3    H266353   3.169   4.925   3.740 -2.8346 -1.6521  1.3163
14980TIP3   OH266354   3.458   5.278   1.757  0.1100  0.7279  0.8413
14980TIP3    H166355   3.552   5.292   1.768  0.5341 -2.4734  2.5024
14980TIP3    H266356   3.449   5.183   1.750 -2.9402  1.0007 -0.3668
14981TIP3   OH266357   0.247   2.413   0.884  0.4049  0.4040  0.2979
14981TIP3    H166358   0.167   2.367   0.858  0.0727  1.3837 -0.4746
14981TIP3    H266359   0.296   2.348   0.935  1.7004 -2.1824 -3.7573
14982TIP3   OH266360   6.438   5.080  11.292 -0.0597  0.1119 -0.0439
14982TIP3    H166361   6.443   5.172  11.267  0.0532 -0.1661 -1.1113
14982TIP3    H266362   6.383   5.040  11.225 -0.6911 -0.4724  0.8083
14983TIP3   OH266363   3.589   1.678  13.324 -0.2437  0.3000  0.2484
14983TIP3    H166364   3.608   1.598  13.373  0.0856  0.5809  0.5879
14983TIP3    H266365   3.670   1.730  13.330  0.0584  0.0418 -1.1886
14984TIP3   OH266366   1.702   4.188   5.834 -0.0758 -0.1358  0.3117
14984TIP3    H166367   1.687   4.261   5.774 -0.3973 -0.4422  0.0174
14984TIP3    H266368   1.646   4.118   5.801 -0.2446 -0.3125  0.9585
14985TIP3   OH266369   2.561   2.701  15.013 -0.3980  0.3463 -0.2716
14985TIP3    H166370   2.614   2.780  15.006 -0.6410  0.4437 -1.1367
14985TIP3    H266371   2.594   2.656  15.091 -0.7260  1.6360  0.6379
14986TIP3   OH266372   6.291   1.938   3.876  0.2170 -0.7736  0.1438
14986TIP3    H166373   6.244   1.996   3.817 -0.3039  0.9004  2.0556
14986TIP3    H266374   6.382   1.942   3.847 -0.3989 -2.3294 -2.2576
14987TIP3   OH266375   2.778   0.885  16.221 -0.1602 -0.3799  0.0438
14987TIP3    H166376   2.730   0.865  16.301  1.6738 -0.3575  1.2126
14987TIP3    H266377   2.809   0.975  16.233  0.8538 -0.6683 -0.2957
14988TIP3   OH266378   0.923   1.891  10.590  0.6900  0.1722 -0.5016
14988TIP3    H166379   0.976   1.951  10.644 -0.7588 -0.2444  1.4963
14988TIP3    H266380   0.833   1.914  10.611  0.0931 -1.6624 -0.9134
14989TIP3   OH266381   5.683   2.585  17.072  0.1727 -0.1310  0.2553
14989TIP3    H166382   5.634   2.592  16.990 -0.1855  0.0748  0.4852
14989TIP3    H266383   5.738   2.507  17.061  0.3081  0.0370 -0.2755
14990TIP3   OH266384   5.961   1.871   1.620 -0.7644  0.5609  0.2109
14990TIP3    H166385   6.036   1.853   1.678 -1.5302 -1.9067  0.5410
14990TIP3    H266386   5.997   1.930   1.553  1.6214 -0.9012  0.0850
14991TIP3   OH266387   1.075   4.035   3.720  0.1613  0.0690 -0.1134
14991TIP3    H166388   1.057   3.970   3.652 -1.1195 -0.2969  0.5440
14991TIP3    H266389   1.168   4.022   3.741  0.7077  0.4732 -2.0502
14992TIP3   OH266390   5.309   5.709  16.696 -0.3274  0.0653 -0.4470
14992TIP3    H166391   5.377   5.726  16.630  0.3350 -0.8771 -0.0319
14992TIP3    H266392   5.241   5.662  16.650  0.5566 -1.4280 -0.2813
14993TIP3   OH266393   5.765   4.913   0.171  0.7670  0.7888 -0.3417
14993TIP3    H166394   5.740   4.829   0.134 -1.0027  1.2530 -0.2967
14993TIP3    H266395   5.817   4.955   0.103 -0.2218  0.5587 -1.2627
14994TIP3   OH266396   0.519   1.815   4.417 -0.0407 -0.1786  0.0571
14994TIP3    H166397   0.442   1.868   4.398 -0.9206 -1.9344 -1.5745
14994TIP3    H266398   0.591   1.863   4.377 -0.4123  1.0113  0.7795
14995TIP3   OH266399   5.756   3.937   5.959  0.2410 -0.0186  0.1341
14995TIP3    H166400   5.791   4.015   5.915 -0.5487  3.1135  4.4805
14995TIP3    H266401   5.816   3.922   6.032 -1.6896 -1.1135  1.5812
14996TIP3   OH266402   1.754   1.309  14.100  0.1802  0.0645 -0.1577
14996TIP3    H166403   1.710   1.301  14.184  0.5531  2.2033  0.3030
14996TIP3    H266404   1.686   1.290  14.035 -0.6021  0.2482  0.5883
14997TIP3   OH266405   2.325   0.403   0.761  0.0879 -0.0518 -0.0951
14997TIP3    H166406   2.406   0.398   0.710  0.6413  0.3513  0.7135
14997TIP3    H266407   2.276   0.324   0.737  1.5676 -1.2989  0.8205
14998TIP3   OH266408   4.396   0.020   2.356  0.3045 -0.5600  0.3955
14998TIP3    H166409   4.342   0.041   2.281  0.2878 -1.7898  0.0458
14998TIP3    H266410   4.485   0.017   2.322  0.4382  0.0888  0.6813
14999TIP3   OH266411   2.259   5.967  10.725 -0.7789 -0.1944  0.1600
14999TIP3    H166412   2.330   6.017  10.766 -0.0409 -0.9419 -0.1924
14999TIP3    H266413   2.180   6.020  10.742  0.1678  1.9753 -1.6130
15000TIP3   OH266414   1.409   5.298  11.950  0.3004  0.0155 -0.3020
15000TIP3    H166415   1.327   5.322  11.907  0.3286  1.3688  0.3557
15000TIP3    H266416   1.469   5.369  11.929  0.2233  0.9233  2.1896
15001TIP3   OH266417   1.450   5.915  11.960  0.7427 -0.1361 -0.4082
15001TIP3    H166418   1.478   5.900  11.870  0.7476  1.3498 -0.6759
15001TIP3    H266419   1.531   5.911  12.011  0.9222  0.3374 -0.6528
15002TIP3   OH266420   5.915   2.484   4.949 -0.4204  0.3440 -0.3813
15002TIP3    H166421   5.962   2.468   4.867 -0.8162  2.1143 -0.9960
15002TIP3    H266422   5.906   2.397   4.988  2.1256 -0.2293 -0.8965
15003TIP3   OH266423   2.207   2.716  14.859  0.0670 -0.1885  0.5722
15003TIP3    H166424   2.264   2.644  14.832 -1.1250 -1.2302  0.7238
15003TIP3    H266425   2.126   2.673  14.886 -0.0026  1.0605  2.5657
15004TIP3   OH266426   5.092   3.275  16.509 -0.1564 -0.4895 -0.4076
15004TIP3    H166427   5.028   3.291  16.578  0.2169 -0.6581 -0.0172
15004TIP3    H266428   5.138   3.197  16.537 -0.5627 -1.0558 -1.2687
15005TIP3   OH266429   2.426   0.343   3.239  0.3311  0.3513 -0.4830
15005TIP3    H166430   2.375   0.380   3.167 -0.5657  1.9845  0.9235
15005TIP3    H266431   2.392   0.254   3.249  0.3036  0.1764 -1.8955
15006TIP3   OH266432   0.243   2.980   1.327 -0.9900 -0.1277  0.0282
15006TIP3    H166433   0.297   2.963   1.405 -1.6634  2.8030  1.2373
15006TIP3    H266434   0.291   3.047   1.279 -2.2167  0.5320 -0.3114
15007TIP3   OH266435   0.926   2.705   5.979  0.4201  0.0464  0.0511
15007TIP3    H166436   0.918   2.761   6.056  2.0811  1.3949 -0.6897
15007TIP3    H266437   0.993   2.747   5.925  0.0710 -1.4265 -1.6456
15008TIP3   OH266438   2.497   0.595  13.426  0.5979  0.1972 -0.0251
15008TIP3    H166439   2.452   0.552  13.354  0.9320  0.8945 -0.6632
15008TIP3    H266440   2.427   0.627  13.483  0.3160  0.1756 -0.3596
15009TIP3   OH266441   5.430   4.473   2.394 -0.4362 -0.0980 -0.1344
15009TIP3    H166442   5.375   4.475   2.472  0.4797 -1.4213  0.5728
15009TIP3    H266443   5.496   4.540   2.409 -0.2026 -0.4165  0.2837
15010TIP3   OH266444   1.310   1.197   1.603  0.2880  0.0284 -0.1863
15010TIP3    H166445   1.395   1.162   1.629 -0.4729 -0.5729  1.7140
15010TIP3    H266446   1.330   1.279   1.557  1.8863 -0.0939  0.2408
15011TIP3   OH266447   1.531   1.410   5.020 -0.1138  0.2478 -0.3874
15011TIP3    H166448   1.548   1.323   5.056 -0.6458  0.0186 -0.6829
15011TIP3    H266449   1.505   1.462   5.096 -0.2235  0.0355 -0.2772
15012TIP3   OH266450   4.795   6.723   2.844 -0.8227  0.0731  0.3842
15012TIP3    H166451   4.811   6.807   2.888  1.5388 -0.6733  1.0732
15012TIP3    H266452   4.807   6.742   2.751  0.7130  0.3282  0.6092
15013TIP3   OH266453   0.973   5.137   5.114  0.6796 -0.5963 -0.4833
15013TIP3    H166454   0.972   5.065   5.050  1.7439 -0.4689 -0.6644
15013TIP3    H266455   0.883   5.169   5.115  0.0707 -2.2231 -0.0656
15014TIP3   OH266456   2.232   5.935  12.029 -0.6636  0.2102 -0.1965
15014TIP3    H166457   2.236   5.872  11.957  0.8823 -0.0027  0.0559
15014TIP3    H266458   2.147   5.978  12.017 -2.6538 -3.1155  0.6735
15015TIP3   OH266459   3.508   5.714   4.556  0.0864  0.1419  0.3447
15015TIP3    H166460   3.520   5.626   4.592  0.5436  0.5002  1.0942
15015TIP3    H266461   3.428   5.708   4.505 -0.5710 -0.3894  1.4044
15016TIP3   OH266462   0.434   3.027  16.509 -0.5932 -0.3589 -0.0133
15016TIP3    H166463   0.488   3.020  16.430  0.4009  0.8841  0.5335
15016TIP3    H266464   0.497   3.033  16.581 -1.4860 -0.5783  0.8025
15017TIP3   OH266465   0.978   4.831   5.327 -0.2938 -0.1453 -0.1894
15017TIP3    H166466   0.932   4.901   5.373  0.0473 -0.6112  0.9031
15017TIP3    H266467   0.924   4.753   5.341  1.3295 -0.9758  2.1581
15018TIP3   OH266468   4.692   0.284   3.900  0.4461 -0.4374  0.5827
15018TIP3    H166469   4.634   0.231   3.845 -2.3219  0.2637  2.6054
15018TIP3    H266470   4.700   0.367   3.854 -2.6827  0.5213  1.5217
15019TIP3   OH266471   2.072   2.045  16.096 -0.8544  0.3001  0.0445
15019TIP3    H166472   2.004   1.982  16.120 -0.0772 -0.0321  1.4606
15019TIP3    H266473   2.151   2.014  16.140 -0.1717  1.6088 -0.2033
15020TIP3   OH266474   5.590   6.152   3.383  0.4201  0.2186  0.0912
15020TIP3    H166475   5.676   6.110   3.371 -0.3273 -1.6250  0.8428
15020TIP3    H266476   5.556   6.162   3.294  1.4164  1.0361 -0.2225
15021TIP3   OH266477   1.301   6.698   2.417  0.0558  0.1908  0.7676
15021TIP3    H166478   1.328   6.746   2.495 -0.9187 -1.4623  2.1928
15021TIP3    H266479   1.261   6.618   2.451 -2.9177  0.6553 -1.3176
15022TIP3   OH266480   4.991   1.976  16.325 -0.0460 -0.2910 -0.2889
15022TIP3    H166481   4.896   1.974  16.319 -0.0926  1.6896 -0.9795
15022TIP3    H266482   5.017   2.052  16.273  1.6674  1.1824  2.4322
15023TIP3   OH266483   0.210   0.814  16.895 -0.3614 -0.1915  0.0519
15023TIP3    H166484   0.269   0.844  16.826  1.7725 -1.6924  1.0837
15023TIP3    H266485   0.125   0.804  16.852 -0.2135  3.0546 -1.2714
15024TIP3   OH266486   2.500   4.633  17.283  0.1107  0.0950  0.7848
15024TIP3    H166487   2.433   4.573  17.251  0.6233 -1.3280  2.2661
15024TIP3    H266488   2.572   4.624  17.220  0.1417 -0.7807  0.9419
15025TIP3   OH266489   4.526   2.012  16.097 -0.6917 -0.4491  0.1034
15025TIP3    H166490   4.472   2.091  16.106  1.1941  1.0902 -1.3202
15025TIP3    H266491   4.472   1.953  16.044 -0.6937  1.4329 -2.1513
15026TIP3   OH266492   1.570   4.518   0.111 -0.0431 -0.0583  0.2141
15026TIP3    H166493   1.507   4.471   0.166 -1.0302 -0.0271 -0.8487
15026TIP3    H266494   1.630   4.560   0.173 -0.6028 -0.7236  1.2308
15027TIP3   OH266495   0.748   0.324   2.338 -0.3433  0.2067 -0.3438
15027TIP3    H166496   0.680   0.298   2.276 -0.9150 -0.2873  0.4828
15027TIP3    H266497   0.796   0.394   2.292 -1.5678  0.7565 -0.8324
15028TIP3   OH266498   5.931   0.668   5.302  0.3864 -0.1025  0.5853
15028TIP3    H166499   6.021   0.676   5.334  0.3282  1.0607  0.4798
15028TIP3    H266500   5.935   0.696   5.211  0.0524 -0.7923  0.3564
15029TIP3   OH266501   5.144   2.216   5.677  0.1642  0.0753 -0.1721
15029TIP3    H166502   5.173   2.181   5.761 -1.0583 -0.3897  0.0831
15029TIP3    H266503   5.130   2.139   5.623 -1.4278  0.1961  0.0158
15030TIP3   OH266504   3.699   6.133   1.275  1.0002  0.6543  0.3033
15030TIP3    H166505   3.674   6.042   1.258  1.6429  0.8091 -1.8066
15030TIP3    H266506   3.746   6.130   1.358 -0.7512 -0.5724  1.3186
15031TIP3   OH266507   3.687   1.957  11.656  0.2253  0.3492 -0.5023
15031TIP3    H166508   3.684   1.872  11.700 -1.7520  0.5751 -0.1288
15031TIP3    H266509   3.781   1.973  11.643  0.6861 -1.4889  0.1574
15032TIP3   OH266510   2.718   1.945  17.156 -0.1245 -0.0400  0.2198
15032TIP3    H166511   2.651   1.895  17.205  0.1177  0.7057  1.3582
15032TIP3    H266512   2.668   2.010  17.107 -0.2268  1.4225  2.1263
15033TIP3   OH266513   3.213   2.376  13.674 -0.0467 -0.8353  0.2114
15033TIP3    H166514   3.153   2.314  13.633  0.4655 -1.7986  0.8738
15033TIP3    H266515   3.300   2.338  13.660  0.3717  0.2152 -0.1789
15034TIP3   OH266516   3.356   5.823   6.200  0.4456 -0.3584  0.1504
15034TIP3    H166517   3.419   5.761   6.166  1.2793  0.1904  0.6610
15034TIP3    H266518   3.395   5.856   6.281  0.3122  1.2709 -0.4136
15035TIP3   OH266519   2.476   0.115   5.763  0.5712  0.0182 -0.1429
15035TIP3    H166520   2.494   0.026   5.730 -0.2745 -1.6162  3.3387
15035TIP3    H266521   2.550   0.135   5.820 -0.2796  0.5864  0.8040
15036TIP3   OH266522   3.346   3.814   6.356  0.1663 -0.3066 -0.1742
15036TIP3    H166523   3.395   3.787   6.434 -1.9872  1.4634  1.9319
15036TIP3    H266524   3.259   3.778   6.369 -0.8271  1.8079 -0.6512
15037TIP3   OH266525   4.030   4.057   1.926 -0.5330  0.2186  0.2525
15037TIP3    H166526   4.116   4.097   1.931 -0.4369  0.3007 -1.5127
15037TIP3    H266527   3.974   4.112   1.982  0.7690 -0.5629  2.4317
15038TIP3   OH266528   5.715   1.753   2.824 -0.0881  0.4782 -0.4542
15038TIP3    H166529   5.709   1.702   2.904  0.8090  0.4624 -0.3866
15038TIP3    H266530   5.779   1.706   2.771  0.4313  1.2992 -0.5645
15039TIP3   OH266531   1.940   2.426  13.963 -0.1055 -0.0029 -0.6422
15039TIP3    H166532   1.967   2.462  14.047  2.6584 -0.6864 -1.1256
15039TIP3    H266533   1.905   2.502  13.915 -0.4742  0.6582  0.6212
15040TIP3   OH266534   4.712   5.884   1.850  0.2034  0.2330  0.4866
15040TIP3    H166535   4.702   5.901   1.944  0.3370 -0.2448  0.5889
15040TIP3    H266536   4.769   5.955   1.819  2.4264 -1.0883  1.2960
15041TIP3   OH266537   4.523   1.070   3.196  0.6178 -0.1849 -0.5578
15041TIP3    H166538   4.558   1.153   3.227 -0.2368  1.1659 -3.0121
15041TIP3    H266539   4.600   1.014   3.185  1.6473  1.4689 -2.2573
15042TIP3   OH266540   1.701   6.252   6.177 -0.4870 -0.0391 -0.6069
15042TIP3    H166541   1.677   6.159   6.178 -0.1184 -0.1837 -2.6344
15042TIP3    H266542   1.622   6.297   6.149 -0.1235  0.0582 -1.5034
15043TIP3   OH266543   2.776   6.179  12.658 -0.6627  0.0379 -0.3795
15043TIP3    H166544   2.687   6.209  12.675 -0.1882  1.1093  0.2892
15043TIP3    H266545   2.824   6.258  12.631  0.5657 -0.1054  1.2073
15044TIP3   OH266546   4.295   1.455   2.372  0.3194  0.1390  0.4341
15044TIP3    H166547   4.331   1.394   2.308  1.0640 -0.9239  1.8321
15044TIP3    H266548   4.304   1.541   2.330  2.8582 -0.2713 -0.0211
15045TIP3   OH266549   1.298   0.705  12.801 -0.2702 -0.4671  0.5775
15045TIP3    H166550   1.385   0.737  12.778 -1.2661  1.1117 -1.2652
15045TIP3    H266551   1.278   0.747  12.884 -0.2276  1.1823 -0.2066
15046TIP3   OH266552   2.838   0.470   3.532 -0.5619  0.3641  0.3272
15046TIP3    H166553   2.866   0.451   3.442 -0.8740 -0.7846  0.4541
15046TIP3    H266554   2.759   0.418   3.544  0.8569 -1.6011  2.0735
15047TIP3   OH266555   0.001   0.288  14.322  0.2086  0.1878  0.1100
15047TIP3    H166556  -0.063   0.233  14.368  1.2716 -0.1717  1.2043
15047TIP3    H266557   0.019   0.240  14.241 -0.7591  0.1990 -0.1214
15048TIP3   OH266558   0.310   4.291  15.240  0.4449 -0.0797  0.4882
15048TIP3    H166559   0.368   4.286  15.164  0.0316  0.9698  0.0822
15048TIP3    H266560   0.239   4.348  15.211 -0.2119 -0.4493  1.3539
15049TIP3   OH266561   1.027   2.912   1.938 -0.0450  0.2503  0.0285
15049TIP3    H166562   1.069   2.833   1.972  2.0635 -0.0596 -2.8886
15049TIP3    H266563   0.945   2.880   1.899  0.2412 -0.2963 -0.1293
15050TIP3   OH266564   3.522   4.033  12.714  0.2994 -0.6397  0.4708
15050TIP3    H166565   3.483   3.967  12.656 -0.7789 -0.7601  1.2889
15050TIP3    H266566   3.604   3.993  12.744 -0.2949 -1.5910  0.8869
15051TIP3   OH266567   4.496   0.329   1.788 -0.3386 -0.2808 -0.4562
15051TIP3    H166568   4.403   0.318   1.767 -0.4743 -1.4328  0.6821
15051TIP3    H266569   4.497   0.351   1.881  0.5387 -0.2384 -0.4721
15052TIP3   OH266570   3.712   2.941  15.272 -0.2862 -0.1875  0.4214
15052TIP3    H166571   3.805   2.921  15.265  0.3368  1.6573  2.2202
15052TIP3    H266572   3.691   2.988  15.191  1.0977  1.7639  1.1114
15053TIP3   OH266573   3.530   3.985   1.757 -0.1607 -0.2249 -0.4922
15053TIP3    H166574   3.562   4.056   1.700 -1.9055  1.3144  0.3348
15053TIP3    H266575   3.497   4.030   1.834 -0.5329 -2.0523  0.4626
15054TIP3   OH266576   1.896   6.431  14.416  0.0242  0.5612  0.5063
15054TIP3    H166577   1.829   6.418  14.349 -0.1359  1.2661  0.5228
15054TIP3    H266578   1.875   6.367  14.484  1.2567 -1.4778 -0.8993
15055TIP3   OH266579   0.915   3.400   5.502  0.3860  0.3016 -0.5417
15055TIP3    H166580   0.997   3.364   5.535  0.5048 -0.6503 -1.7896
15055TIP3    H266581   0.939   3.486   5.468  0.5950  0.5795  0.2971
15056TIP3   OH266582   3.752   0.603   2.796  0.6034  0.1166 -0.3596
15056TIP3    H166583   3.703   0.567   2.870 -1.5309 -1.0408 -2.1791
15056TIP3    H266584   3.834   0.554   2.795  0.5220 -0.0767  1.0154
15057TIP3   OH266585   3.615   4.914  13.648  0.2385 -0.7435 -0.1379
15057TIP3    H166586   3.559   4.843  13.615 -0.9668 -0.0585  0.3571
15057TIP3    H266587   3.686   4.870  13.693 -1.5600 -1.6781  1.9273
15058TIP3   OH266588   4.417   2.443  16.750  0.2756 -0.4085 -0.4939
15058TIP3    H166589   4.409   2.456  16.655 -2.2453 -1.4158 -0.4923
15058TIP3    H266590   4.435   2.350  16.759 -0.2051 -0.4451  0.0581
15059TIP3   OH266591   3.090   3.233  13.290 -0.2994  0.1413 -0.0710
15059TIP3    H166592   3.067   3.173  13.219  0.4561 -0.1428 -0.0835
15059TIP3    H266593   3.151   3.295  13.250  1.1481 -0.7809  0.6118
15060TIP3   OH266594   4.034   2.970   3.390 -0.0010  0.0856  0.0087
15060TIP3    H166595   3.952   2.977   3.440 -0.1402  1.3595 -0.3377
15060TIP3    H266596   4.100   2.947   3.455 -0.3512  0.7213  0.6149
15061TIP3   OH266597   6.239   4.079  11.017 -0.2113 -0.1713 -0.3712
15061TIP3    H166598   6.168   4.035  11.063 -0.2480 -0.0979 -0.3575
15061TIP3    H266599   6.252   4.027  10.938 -0.8844  0.3195 -0.8176
15062TIP3   OH266600   2.925   3.209  12.473 -0.9313 -0.0585  0.2598
15062TIP3    H166601   2.933   3.121  12.511 -1.4205 -0.7296 -1.1358
15062TIP3    H266602   2.980   3.264  12.529 -0.6102 -1.2422  1.1533
15063TIP3   OH266603   1.739   4.456  13.070 -0.1718 -0.4816 -0.1643
15063TIP3    H166604   1.669   4.490  13.126 -0.2771 -0.9971  0.0248
15063TIP3    H266605   1.789   4.534  13.045 -0.2291 -0.2179  0.5041
15064TIP3   OH266606   0.703   4.664  14.934  0.1226  0.0715  0.5211
15064TIP3    H166607   0.764   4.598  14.968 -1.2642 -1.2135  0.6432
15064TIP3    H266608   0.655   4.619  14.865  0.6210  1.6567 -0.9311
15065TIP3   OH266609   0.439   4.755  16.953 -0.0922  0.0837  0.2465
15065TIP3    H166610   0.376   4.811  16.908 -0.2605 -0.5156 -0.2719
15065TIP3    H266611   0.386   4.700  17.011 -0.0087 -0.1248  0.1278
15066TIP3   OH266612   6.646   1.523  15.398  0.2188 -0.3974  0.2652
15066TIP3    H166613   6.589   1.556  15.467 -0.9446  0.7826 -1.1652
15066TIP3    H266614   6.599   1.449  15.361 -1.3192  1.5186 -1.9514
15067TIP3   OH266615   0.474   3.983   5.732  0.3270  0.6947 -0.2203
15067TIP3    H166616   0.465   3.948   5.821  1.2499 -0.6527 -0.6302
15067TIP3    H266617   0.566   4.008   5.725  0.2099  0.9894 -0.7213
15068TIP3   OH266618   4.643   0.785  11.952 -0.7792  0.1085 -0.2484
15068TIP3    H166619   4.716   0.842  11.974 -0.7963  0.1154 -0.2089
15068TIP3    H266620   4.579   0.843  11.911 -0.8518  0.1429 -0.0885
15069TIP3   OH266621   3.170   2.523  16.764  0.1294 -0.1728 -0.8818
15069TIP3    H166622   3.108   2.587  16.798 -1.6864 -2.1875 -0.1930
15069TIP3    H266623   3.253   2.545  16.807 -0.6710  1.0574  0.1069
15070TIP3   OH266624   4.089   4.342   3.441 -0.7251  0.0208  0.5688
15070TIP3    H166625   4.165   4.380   3.485  0.5592  0.4250 -1.8070
15070TIP3    H266626   4.016   4.401   3.463 -0.0932  0.3861  1.7992
15071TIP3   OH266627   0.550   4.682  13.685  0.0566  0.1096 -0.2285
15071TIP3    H166628   0.613   4.682  13.757  1.2506 -1.3411 -1.2163
15071TIP3    H266629   0.468   4.652  13.726  0.9426 -1.6040  0.3875
15072TIP3   OH266630   0.909   5.627   3.000  0.2553  0.3772 -0.6191
15072TIP3    H166631   0.872   5.557   2.946 -0.9177  0.7252 -0.3014
15072TIP3    H266632   0.988   5.654   2.954  0.8092 -1.2513 -0.6727
15073TIP3   OH266633   2.093   0.595   5.630 -0.1554  0.3457 -0.9379
15073TIP3    H166634   2.113   0.670   5.686 -0.0546 -0.0253 -0.4679
15073TIP3    H266635   2.161   0.532   5.650 -1.3009 -0.6229  0.0873
15074TIP3   OH266636   0.696   3.849  17.207 -0.1406  0.4578  0.1423
15074TIP3    H166637   0.769   3.845  17.269  0.2541  1.1866 -0.2484
15074TIP3    H266638   0.656   3.935  17.223  0.6942  1.1827 -1.3679
15075TIP3   OH266639   1.690   1.097  11.787  0.6520 -0.3846  0.0859
15075TIP3    H166640   1.652   1.135  11.866 -0.5188  0.8539 -1.0231
15075TIP3    H266641   1.616   1.064  11.738  1.4176 -1.6270 -0.2699
15076TIP3   OH266642   0.426   4.676  15.177 -0.0768  0.2211 -0.0299
15076TIP3    H166643   0.434   4.715  15.264 -0.3070  2.6055 -1.0074
15076TIP3    H266644   0.367   4.602  15.189 -1.2234  1.3353  1.6076
15077TIP3   OH266645   1.148   0.731   2.823 -0.0770  0.1725  0.5924
15077TIP3    H166646   1.211   0.661   2.843  1.3668  1.3279  0.2712
15077TIP3    H266647   1.189   0.810   2.857 -0.5470  1.2120 -1.1229
15078TIP3   OH266648   5.827   2.085   1.805 -0.0672 -0.1628 -0.0233
15078TIP3    H166649   5.899   2.111   1.863 -0.0020  1.1208 -0.6495
15078TIP3    H266650   5.777   2.022   1.857 -1.6080  2.8730  2.5949
15079TIP3   OH266651   4.523   6.064   1.540 -0.1322  0.2581 -0.2708
15079TIP3    H166652   4.606   6.024   1.564 -1.0163 -0.2180  2.2628
15079TIP3    H266653   4.545   6.155   1.521  0.8493  0.4885  1.6866
15080TIP3   OH266654   2.580   0.261   6.133  0.6262  0.4859  0.0404
15080TIP3    H166655   2.634   0.220   6.065 -0.5520  0.5707 -0.9800
15080TIP3    H266656   2.615   0.227   6.215  0.6483 -1.4203 -0.7053
15081TIP3   OH266657   4.550   5.703  11.510 -0.3069 -0.1172 -0.1349
15081TIP3    H166658   4.536   5.616  11.548 -1.8340  0.0322 -0.3100
15081TIP3    H266659   4.618   5.689  11.445  0.1135 -1.0005  0.4654
15082TIP3   OH266660   6.354   1.288  11.292 -0.2308  0.2155 -0.6045
15082TIP3    H166661   6.290   1.357  11.308 -1.6816 -0.8802 -1.3861
15082TIP3    H266662   6.417   1.327  11.231 -0.3562  1.1991 -0.1279
15083TIP3   OH266663   5.631   3.236   5.229  0.1658  0.2693 -0.3495
15083TIP3    H166664   5.605   3.144   5.223  1.7559 -0.1722 -1.0368
15083TIP3    H266665   5.616   3.259   5.321  0.5134 -0.9285  0.0290
15084TIP3   OH266666   6.231   3.492   0.986 -0.3605 -0.0033 -0.4361
15084TIP3    H166667   6.307   3.436   1.004  1.5960  2.2242 -1.3372
15084TIP3    H266668   6.214   3.536   1.069 -0.6496 -0.4400 -0.2569
15085TIP3   OH266669   2.677   2.827   3.363 -0.2165  0.6665  0.2858
15085TIP3    H166670   2.767   2.803   3.345 -0.6242 -0.5515 -0.2358
15085TIP3    H266671   2.657   2.896   3.300 -0.9195 -1.9567 -2.6097
15086TIP3   OH266672   4.917   5.919  16.696 -0.0770 -0.1052  0.0105
15086TIP3    H166673   4.921   6.006  16.656  0.5667 -0.0300  0.2339
15086TIP3    H266674   4.857   5.870  16.640  0.5526  0.0959 -0.8592
15087TIP3   OH266675   6.697   6.475  14.479 -0.1974 -0.4494  0.2120
15087TIP3    H166676   6.655   6.537  14.539 -0.1701 -0.4182  0.1986
15087TIP3    H266677   6.651   6.488  14.396 -0.5439 -0.8136  0.3445
15088TIP3   OH266678   0.757   4.354   0.959 -0.0129  0.2491 -0.0052
15088TIP3    H166679   0.784   4.408   0.885  2.9745 -0.3070  0.5533
15088TIP3    H266680   0.676   4.312   0.931  0.4475  0.9017 -2.4915
15089TIP3   OH266681   3.255   5.915  17.384 -0.4976 -0.3461 -0.2000
15089TIP3    H166682   3.224   6.002  17.410  0.6351 -0.0837  0.3396
15089TIP3    H266683   3.180   5.857  17.400 -0.6231  0.2090  1.4124
15090TIP3   OH266684   5.111   6.094  15.282  0.5526 -0.0407  0.2308
15090TIP3    H166685   5.050   6.022  15.294 -0.4498  0.9441  1.3849
15090TIP3    H266686   5.057   6.173  15.292  2.0917  0.8767  2.0927
15091TIP3   OH266687   2.052   0.345  12.482 -0.2321 -0.1454 -0.3589
15091TIP3    H166688   1.985   0.363  12.417 -0.7102  1.7331  0.5931
15091TIP3    H266689   2.076   0.430  12.518  2.4841 -0.7779 -0.4382
15092TIP3   OH266690   1.946   5.646  15.988 -0.0171 -0.5090  0.1437
15092TIP3    H166691   1.997   5.596  15.924 -0.3796  0.0966 -0.6314
15092TIP3    H266692   2.009   5.666  16.057  1.0547  0.9297 -1.1772
15093TIP3   OH266693   3.522   4.694   1.847 -0.5809 -0.0263 -0.6165
15093TIP3    H166694   3.616   4.712   1.848 -0.2734 -1.3827 -1.8343
15093TIP3    H266695   3.499   4.687   1.755 -1.3243 -2.2424 -0.3412
15094TIP3   OH266696   0.306   3.673  14.071 -0.1044 -0.0121 -0.4323
15094TIP3    H166697   0.313   3.742  14.138  0.4061 -1.2848  0.8918
15094TIP3    H266698   0.260   3.715  13.999 -1.5339  1.1771  1.0784
15095TIP3   OH266699   5.117   0.681  12.152 -0.3157 -0.4556  0.2905
15095TIP3    H166700   5.156   0.620  12.215  1.4159  0.5843  0.2793
15095TIP3    H266701   5.176   0.678  12.076  0.5974  2.1909  0.8050
15096TIP3   OH266702   1.421   5.154   2.743  0.1168  0.1149 -0.0550
15096TIP3    H166703   1.424   5.061   2.764  0.0443 -0.1200 -1.0408
15096TIP3    H266704   1.349   5.188   2.796  0.5708 -0.2548  0.8087
15097TIP3   OH266705   5.481   2.147   4.995 -0.2561 -0.6527 -0.3356
15097TIP3    H166706   5.475   2.242   5.004  1.3339 -0.4252 -1.2413
15097TIP3    H266707   5.391   2.119   4.977 -1.0055  0.4717  1.4029
15098TIP3   OH266708   4.878   3.114  14.462  0.3155  0.3058 -0.1763
15098TIP3    H166709   4.952   3.115  14.401  0.7074 -0.1229  0.2814
15098TIP3    H266710   4.904   3.174  14.531  1.6240 -2.0744  1.5559
15099TIP3   OH266711   2.724   3.316   4.295  0.0461 -0.1626 -0.0433
15099TIP3    H166712   2.692   3.245   4.240  2.2854  0.8972 -2.9744
15099TIP3    H266713   2.649   3.374   4.308 -0.8302 -1.0813 -0.9325
15100TIP3   OH266714   2.269   1.476   4.156  1.0480  0.0417 -0.1320
15100TIP3    H166715   2.350   1.511   4.194  1.0216 -1.4509  1.3802
15100TIP3    H266716   2.298   1.426   4.079  1.3033  1.3417 -0.9207
15101TIP3   OH266717   0.703   3.791   2.739  0.0932 -0.0342  0.1991
15101TIP3    H166718   0.615   3.816   2.710 -0.7892 -2.1711  0.8447
15101TIP3    H266719   0.739   3.744   2.664  0.2516 -0.0943  0.3142
15102TIP3   OH266720   6.070   6.206   2.184  0.1305  0.2324  1.3875
15102TIP3    H166721   6.021   6.261   2.123 -0.3101 -0.0938  1.4375
15102TIP3    H266722   6.161   6.227   2.168  0.1002 -0.6821 -0.2330
15103TIP3   OH266723   0.417   4.365   6.331  0.1591  0.8523 -0.3664
15103TIP3    H166724   0.460   4.365   6.245  0.5773 -1.9609 -0.2543
15103TIP3    H266725   0.377   4.278   6.337 -0.2131  1.1457  2.1330
15104TIP3   OH266726   2.319   2.107  14.813  0.5986  0.7609 -0.0616
15104TIP3    H166727   2.272   2.158  14.747  0.3359  0.6590  0.0494
15104TIP3    H266728   2.341   2.170  14.881  1.1971  0.9477 -0.4138
15105TIP3   OH266729   1.278   3.328   2.330  0.2359 -0.3071  0.3909
15105TIP3    H166730   1.333   3.406   2.323 -0.7281  0.5281  1.5821
15105TIP3    H266731   1.277   3.291   2.242 -0.0936  1.6180 -0.4712
15106TIP3   OH266732   2.280   1.994  14.445 -0.0237 -0.0276 -0.4776
15106TIP3    H166733   2.280   1.995  14.349 -1.1317 -1.5391 -0.5324
15106TIP3    H266734   2.325   1.913  14.468  0.6581  0.5562  0.3159
15107TIP3   OH266735   6.061   1.169   1.161 -0.0219  0.5839 -0.0593
15107TIP3    H166736   6.104   1.252   1.182 -1.8306  1.4977  0.2492
15107TIP3    H266737   6.081   1.155   1.069  0.9190  0.9565  0.0654
15108TIP3   OH266738   4.838   3.745   5.248 -0.8017 -0.3426  0.1089
15108TIP3    H166739   4.816   3.689   5.322  0.0020 -0.6223  0.1467
15108TIP3    H266740   4.931   3.728   5.231 -0.4230  1.2705  0.3808
15109TIP3   OH266741   2.888   3.120   3.855  0.1255 -0.6010  0.2901
15109TIP3    H166742   2.835   3.040   3.858  0.7019 -1.0837 -1.3022
15109TIP3    H266743   2.914   3.127   3.763  2.8789 -0.4193  1.0038
15110TIP3   OH266744   1.120   0.491   1.370  0.2497 -0.9041  0.6851
15110TIP3    H166745   1.104   0.571   1.421  0.5250  0.1915 -0.8715
15110TIP3    H266746   1.209   0.502   1.337 -0.3047 -1.0491 -0.9293
15111TIP3   OH266747   4.454   0.647   0.695  0.2191 -0.7852 -0.2956
15111TIP3    H166748   4.415   0.693   0.769 -1.6993 -0.6263 -1.3345
15111TIP3    H266749   4.449   0.709   0.623 -0.2283 -1.7670 -1.1397
15112TIP3   OH266750   1.342   5.682  11.642 -0.5016  0.0150 -0.3289
15112TIP3    H166751   1.307   5.626  11.710  1.0144  1.9459  2.2015
15112TIP3    H266752   1.390   5.623  11.584 -0.1763 -1.5012  1.4114
15113TIP3   OH266753   1.371   6.261   5.061  0.1086 -0.3009 -0.3475
15113TIP3    H166754   1.326   6.237   5.141 -0.4805 -1.7330 -1.0742
15113TIP3    H266755   1.441   6.197   5.052  1.0304  0.6603 -0.3068
15114TIP3   OH266756   0.044   0.940  12.874  0.0929  0.0656  0.3048
15114TIP3    H166757  -0.034   0.959  12.926  0.7480  1.4354  0.8301
15114TIP3    H266758   0.092   1.022  12.871  1.1287 -0.5375 -0.7024
15115TIP3   OH266759   0.976   2.482  12.831  0.1829  0.5824  0.0589
15115TIP3    H166760   0.977   2.447  12.920 -0.2816 -0.2304 -0.2478
15115TIP3    H266761   0.970   2.577  12.843 -0.1030  0.4672  0.8894
15116TIP3   OH266762   0.650   6.732  14.490 -0.3637 -0.8908  0.6305
15116TIP3    H166763   0.663   6.677  14.568 -0.5719  1.1675  2.1962
15116TIP3    H266764   0.579   6.689  14.442  0.0452 -2.4306  1.3377
15117TIP3   OH266765   3.087   3.932   3.572 -0.0013  0.5361 -0.2274
15117TIP3    H166766   3.072   3.982   3.653 -0.3343  2.6637 -1.5230
15117TIP3    H266767   3.158   3.872   3.594  0.9100  2.0629  1.2563
15118TIP3   OH266768   5.440   3.385  12.462  0.4074 -0.7737  0.2409
15118TIP3    H166769   5.456   3.345  12.377 -0.6850 -0.9150  0.0852
15118TIP3    H266770   5.411   3.474  12.441 -0.2889 -0.9487  0.4340
15119TIP3   OH266771   1.831   3.942   2.028  0.3182  0.4368 -0.0180
15119TIP3    H166772   1.832   3.883   1.952  0.4791 -1.7620  1.5641
15119TIP3    H266773   1.800   4.025   1.994 -1.6593 -1.0299 -2.0841
15120TIP3   OH266774   5.312   2.303   1.622  0.0606 -0.3680 -0.0240
15120TIP3    H166775   5.290   2.238   1.556  0.8478  0.4462 -1.1349
15120TIP3    H266776   5.248   2.290   1.692 -0.0399 -2.0456 -0.4009
15121TIP3   OH266777   3.813   4.399  15.589  0.0299  0.3337  0.2253
15121TIP3    H166778   3.821   4.435  15.501  1.2770 -0.9231 -0.2116
15121TIP3    H266779   3.823   4.474  15.648  0.1105  1.0472 -0.6833
15122TIP3   OH266780   6.152   2.644  13.345 -0.1597  0.2603  0.1321
15122TIP3    H166781   6.058   2.635  13.326 -0.1049  0.6004 -0.3247
15122TIP3    H266782   6.182   2.711  13.284  0.2962  0.4591  0.5700
15123TIP3   OH266783   0.798   5.726  10.989  0.0066  0.1621  0.0797
15123TIP3    H166784   0.796   5.726  10.894 -1.1274  2.3559  0.0586
15123TIP3    H266785   0.889   5.702  11.011  0.3003 -0.2874 -1.5297
15124TIP3   OH266786   1.652   4.563  14.778  0.5072  0.6586  0.0121
15124TIP3    H166787   1.657   4.572  14.683 -1.0817  1.4257 -0.0271
15124TIP3    H266788   1.633   4.470  14.792 -2.3330  1.0557 -0.6376
15125TIP3   OH266789   2.156   6.272  14.790 -0.0191 -0.5867 -0.0106
15125TIP3    H166790   2.137   6.330  14.717  1.8687  1.5171  1.0552
15125TIP3    H266791   2.089   6.292  14.855 -1.1051 -1.7665 -0.6948
15126TIP3   OH266792   6.185   3.222  10.676  0.7415 -0.1098 -0.1785
15126TIP3    H166793   6.279   3.218  10.690  0.7307 -0.1089 -0.1043
15126TIP3    H266794   6.153   3.281  10.745  0.7356  0.1922 -0.4350
15127TIP3   OH266795   3.791   2.829  13.002  0.1830 -0.1639 -0.2330
15127TIP3    H166796   3.831   2.867  13.080  0.2150 -0.3153 -0.1745
15127TIP3    H266797   3.835   2.745  12.991 -0.8802 -0.8555  0.5013
15128TIP3   OH266798   3.602   6.603   3.424 -0.4926 -0.1285 -0.1929
15128TIP3    H166799   3.573   6.512   3.424 -0.9404 -0.0952  2.5403
15128TIP3    H266800   3.521   6.654   3.430 -0.1941  0.3898 -0.4953
15129TIP3   OH266801   1.172   4.252  17.240  0.4007  0.0277 -0.5316
15129TIP3    H166802   1.260   4.218  17.230  0.2234 -0.8914  0.7789
15129TIP3    H266803   1.137   4.207  17.317 -0.6707  1.5017 -0.1022
15130TIP3   OH266804   6.564   3.438  12.337 -0.9844  0.3094  0.2263
15130TIP3    H166805   6.590   3.515  12.387 -0.5521  1.5049 -1.7082
15130TIP3    H266806   6.645   3.389  12.324 -0.8422  0.6941 -0.3885
15131TIP3   OH266807   3.155   2.373   5.540  0.0203 -0.2291  0.2157
15131TIP3    H166808   3.247   2.386   5.564  0.2205 -1.1854  0.0239
15131TIP3    H266809   3.105   2.411   5.612  0.5711  0.2520  0.3423
15132TIP3   OH266810   2.084   3.080  12.762 -0.9675  0.5659 -0.0392
15132TIP3    H166811   2.157   3.093  12.822 -0.5971 -0.0143 -0.3574
15132TIP3    H266812   2.027   3.156  12.778 -0.2664  1.0709  0.1545
15133TIP3   OH266813   5.375   1.944   4.637 -0.4527  0.0186 -0.0501
15133TIP3    H166814   5.331   1.866   4.672  0.8485 -1.8533 -2.2534
15133TIP3    H266815   5.468   1.922   4.638 -0.1741  0.8839 -2.1376
15134TIP3   OH266816   6.711   4.863   3.273 -0.8416  0.0369  0.1643
15134TIP3    H166817   6.794   4.819   3.290 -1.0170 -0.0518  0.7927
15134TIP3    H266818   6.690   4.839   3.182 -0.0883  0.2212 -0.0605
15135TIP3   OH266819   0.814   1.622   2.820  0.0649  0.0315  0.0022
15135TIP3    H166820   0.786   1.638   2.910 -0.1575 -1.2334  0.1825
15135TIP3    H266821   0.861   1.701   2.795  0.1879  0.3820  1.2546
15136TIP3   OH266822   6.473   3.765   1.984 -0.4264 -0.5827  0.4279
15136TIP3    H166823   6.534   3.710   1.934  1.7839  1.7722  0.3337
15136TIP3    H266824   6.525   3.797   2.058 -1.6020  1.3617  0.4692
15137TIP3   OH266825   1.145   2.066  15.969 -0.3845 -0.1634  0.3467
15137TIP3    H166826   1.238   2.086  15.953 -0.2984 -0.3405  0.6256
15137TIP3    H266827   1.140   1.971  15.963 -0.1339 -0.3540  2.4590
15138TIP3   OH266828   0.653   6.554  16.074 -0.0507  0.0362  0.0064
15138TIP3    H166829   0.563   6.582  16.057 -0.9045 -1.9559  0.8635
15138TIP3    H266830   0.674   6.496  16.002  1.6296  2.5256 -1.6624
15139TIP3   OH266831   1.665   1.757  13.937 -0.0451 -0.1099 -0.0421
15139TIP3    H166832   1.667   1.847  13.906  0.2251 -0.3403 -0.7233
15139TIP3    H266833   1.686   1.704  13.859 -0.1740 -0.7560  0.3506
15140TIP3   OH266834   3.887   4.381  12.949  0.3891 -0.2615  0.0781
15140TIP3    H166835   3.866   4.318  12.881  0.8858 -0.2284 -0.1156
15140TIP3    H266836   3.969   4.350  12.986  0.1588 -0.2386  0.6148
15141TIP3   OH266837   3.424   0.421  12.375  0.3016 -0.4939  0.1249
15141TIP3    H166838   3.507   0.435  12.330  0.1272  1.7740  0.4071
15141TIP3    H266839   3.422   0.488  12.444 -0.9267 -1.7368  1.3747
15142TIP3   OH266840   5.384   0.825  11.014 -0.1477  0.3130  0.0595
15142TIP3    H166841   5.479   0.822  11.019  0.0287  0.5015 -2.1408
15142TIP3    H266842   5.355   0.739  11.043  0.6785  0.2550  0.7354
15143TIP3   OH266843   5.276   1.380  15.546 -0.2404  0.4028  0.4948
15143TIP3    H166844   5.205   1.440  15.569 -1.3080 -0.8492  0.5801
15143TIP3    H266845   5.260   1.302  15.599  1.1946  0.0664  0.4954
15144TIP3   OH266846   5.870   0.072   4.797  0.5823  0.2325 -0.2923
15144TIP3    H166847   5.831   0.130   4.732  1.2391 -0.0723 -0.9698
15144TIP3    H266848   5.954   0.045   4.759  0.9602  0.0096  0.6572
15145TIP3   OH266849   5.644   3.022   6.455 -0.0886  0.1632 -0.7441
15145TIP3    H166850   5.657   2.943   6.508  0.9046 -1.3003 -3.0100
15145TIP3    H266851   5.702   3.087   6.495  0.3126 -0.7454  0.2154
15146TIP3   OH266852   6.745   4.371   5.162 -0.2081  0.3984 -0.5930
15146TIP3    H166853   6.707   4.458   5.168 -0.9359  0.0727 -0.4263
15146TIP3    H266854   6.754   4.342   5.252  2.2301  1.2068 -0.4795
15147TIP3   OH266855   5.677   0.285   1.309 -0.2903 -0.1326  0.0595
15147TIP3    H166856   5.661   0.367   1.356 -2.0252 -1.2545  1.5627
15147TIP3    H266857   5.600   0.274   1.253  0.4350 -0.2183 -0.9352
15148TIP3   OH266858   2.448   5.535   5.572 -0.6155 -0.2428 -0.1274
15148TIP3    H166859   2.525   5.577   5.612  0.1562  0.1486 -1.9248
15148TIP3    H266860   2.406   5.489   5.644 -0.3180  1.8817  1.4989
15149TIP3   OH266861   0.378   5.141   4.678 -0.8476  0.0236 -1.0179
15149TIP3    H166862   0.473   5.145   4.690 -0.6993  1.0215 -2.2680
15149TIP3    H266863   0.347   5.224   4.714 -1.2369 -0.2528 -0.7147
15150TIP3   OH266864   4.405   0.610   1.688 -0.6692  0.0751  0.2706
15150TIP3    H166865   4.421   0.569   1.773 -0.8800  1.5154  1.0427
15150TIP3    H266866   4.472   0.677   1.681 -1.2936  0.6612 -0.2111
15151TIP3   OH266867   4.848   4.797   5.489  0.9459  0.7249 -0.7864
15151TIP3    H166868   4.770   4.830   5.446 -0.1791  0.3738  0.8897
15151TIP3    H266869   4.907   4.872   5.492  0.8273  0.9218 -2.3152
15152TIP3   OH266870   1.500   5.023   3.256 -0.5541  0.3187  0.6359
15152TIP3    H166871   1.515   5.116   3.243 -3.8764  0.5889 -2.5803
15152TIP3    H266872   1.531   4.982   3.176 -0.0106 -1.2830  1.6195
15153TIP3   OH266873   3.318   1.987  16.446  0.5650 -0.2051  0.2599
15153TIP3    H166874   3.343   1.896  16.459 -1.2781 -0.6168  1.1639
15153TIP3    H266875   3.287   2.017  16.531  1.7571  1.5050  0.1502
15154TIP3   OH266876   2.209   5.628   0.666 -0.2987 -0.3872  0.5275
15154TIP3    H166877   2.222   5.714   0.708  0.7296 -1.7790  3.3331
15154TIP3    H266878   2.232   5.643   0.575  0.2923  2.2255  1.0039
15155TIP3   OH266879   5.094   0.145  14.528  0.0853 -0.6563  0.0242
15155TIP3    H166880   5.053   0.231  14.533 -0.2023 -0.8290  0.7494
15155TIP3    H266881   5.070   0.112  14.441  1.6083  0.6793 -0.9546
15156TIP3   OH266882   4.661   2.151   5.875 -0.0885 -0.3977 -0.4136
15156TIP3    H166883   4.581   2.197   5.900 -0.6014 -1.7757  0.6234
15156TIP3    H266884   4.639   2.106   5.793 -0.2517 -0.4347 -0.3502
15157TIP3   OH266885   0.484   5.067   6.054 -0.0612 -0.2606 -0.6242
15157TIP3    H166886   0.451   5.083   5.965  0.7246  2.6567 -0.4977
15157TIP3    H266887   0.569   5.110   6.057 -1.3543  2.5595  2.3534
15158TIP3   OH266888   5.092   5.418  15.369  0.5848  0.4666  0.7777
15158TIP3    H166889   5.073   5.350  15.304 -2.9105  0.3173  1.7174
15158TIP3    H266890   5.140   5.485  15.321  0.2037 -0.6949 -1.3451
15159TIP3   OH266891   5.951   6.665  14.589  0.6395  0.4639  0.0054
15159TIP3    H166892   6.026   6.614  14.560  0.5741  0.2550  0.2049
15159TIP3    H266893   5.988   6.749  14.617  0.6130  1.0424 -1.5723
15160TIP3   OH266894   0.644   4.990   2.740 -0.5534  0.2358 -0.2050
15160TIP3    H166895   0.569   4.931   2.730  0.2824 -0.9623  0.3630
15160TIP3    H266896   0.653   5.001   2.835  0.5103 -0.3350 -0.2291
15161TIP3   OH266897   3.441   6.330  13.346 -0.3933  0.5557  0.2120
15161TIP3    H166898   3.502   6.390  13.301 -2.2218  0.5672 -2.5041
15161TIP3    H266899   3.354   6.359  13.318 -1.4225 -2.4409 -0.0745
15162TIP3   OH266900   6.334   1.680   5.361  0.7473 -0.8001  0.8445
15162TIP3    H166901   6.333   1.679   5.456  0.6091 -0.6911  0.8452
15162TIP3    H266902   6.251   1.721   5.336  1.3903  0.5063  0.7030
15163TIP3   OH266903   6.046   4.002  12.630  0.3377  0.2633 -0.2088
15163TIP3    H166904   6.084   3.949  12.559  1.8530 -0.1634  0.8685
15163TIP3    H266905   5.951   3.991  12.620  0.5848 -2.0249 -0.5095
15164TIP3   OH266906   6.190   1.628  12.357 -0.1988 -0.5757 -0.4425
15164TIP3    H166907   6.140   1.705  12.329 -1.3415 -1.2768 -0.4090
15164TIP3    H266908   6.160   1.558  12.298  0.3670 -1.1383 -0.0731
15165TIP3   OH266909   2.498   3.923  14.337  0.2185 -0.5782 -0.8203
15165TIP3    H166910   2.407   3.950  14.325  0.5120  0.5382 -0.6496
15165TIP3    H266911   2.506   3.906  14.431  1.0327  2.7345 -0.1912
15166TIP3   OH266912   5.210   3.677  12.509 -0.2015 -0.1124 -0.1407
15166TIP3    H166913   5.128   3.640  12.477 -0.6749  0.4286  0.4068
15166TIP3    H266914   5.233   3.624  12.585  0.0258 -0.3448 -0.3710
15167TIP3   OH266915   0.009   1.128  16.312 -0.2681 -0.3736  0.0431
15167TIP3    H166916  -0.022   1.179  16.387  2.3281 -0.8217  1.5466
15167TIP3    H266917  -0.029   1.041  16.325 -0.5400 -0.2059  0.3820
15168TIP3   OH266918   3.275   6.449   4.357  0.0792 -0.8910  0.2090
15168TIP3    H166919   3.229   6.420   4.436  0.6766 -2.3673  0.0478
15168TIP3    H266920   3.208   6.445   4.288 -0.6744  1.2058  0.7299
15169TIP3   OH266921   3.212   4.049   1.064 -0.0596 -0.0624 -0.2429
15169TIP3    H166922   3.281   4.086   1.010  0.0934  1.4324  0.9301
15169TIP3    H266923   3.193   3.964   1.023  2.7059 -0.7166 -0.4014
15170TIP3   OH266924   5.095   1.707   3.740 -0.3957  0.1438 -0.0290
15170TIP3    H166925   5.041   1.669   3.809  0.8117 -0.6003  0.5432
15170TIP3    H266926   5.156   1.765   3.786 -0.3940  0.6316 -0.6180
15171TIP3   OH266927   1.234   6.307   2.114  0.4086  0.1818 -0.5637
15171TIP3    H166928   1.201   6.222   2.142  0.5235 -0.1857 -1.5208
15171TIP3    H266929   1.221   6.308   2.020  1.1401  0.9081 -0.6697
15172TIP3   OH266930   1.425   0.304  13.908 -0.8875 -0.0563  0.0336
15172TIP3    H166931   1.422   0.209  13.920  0.4703 -0.3793 -1.7327
15172TIP3    H266932   1.360   0.323  13.841  0.3283 -0.0945 -1.2147
15173TIP3   OH266933   0.602   2.537   3.905 -0.1478 -0.0779 -0.5033
15173TIP3    H166934   0.695   2.533   3.880 -0.1821  0.4371 -0.7412
15173TIP3    H266935   0.600   2.602   3.976 -0.0875 -1.3463  0.6898
15174TIP3   OH266936   0.634   2.867  12.366  0.7586  0.6229  0.6183
15174TIP3    H166937   0.652   2.773  12.375 -1.4552  0.0008 -0.6650
15174TIP3    H266938   0.567   2.884  12.433 -0.8181  0.6194 -0.8987
15175TIP3   OH266939   0.666   0.783   5.512 -0.0280  0.1491  0.0117
15175TIP3    H166940   0.675   0.709   5.573 -0.1349 -1.4903 -1.8582
15175TIP3    H266941   0.750   0.829   5.517 -0.4161  0.7498  2.1731
15176TIP3   OH266942   5.475   1.001   4.549  0.1153 -0.0547  0.5338
15176TIP3    H166943   5.445   1.085   4.515  0.3756 -0.1009  0.1784
15176TIP3    H266944   5.456   0.938   4.479 -0.9411 -0.4595  1.1755
15177TIP3   OH266945   6.643   4.861  13.838 -0.0822 -0.1372 -0.8261
15177TIP3    H166946   6.696   4.891  13.764 -0.5582 -1.0928 -1.5859
15177TIP3    H266947   6.638   4.936  13.897  2.8513 -0.2862 -0.2726
15178TIP3   OH266948   6.340   2.479  11.612 -0.3345  0.1232 -0.3349
15178TIP3    H166949   6.364   2.440  11.696 -2.0393 -0.7756 -0.2129
15178TIP3    H266950   6.416   2.465  11.556  1.5877  2.3505  1.4987
15179TIP3   OH266951   0.354   1.428   1.766  0.4380  0.0299  0.5322
15179TIP3    H166952   0.264   1.397   1.755  0.9488 -0.7873 -1.7272
15179TIP3    H266953   0.347   1.523   1.764 -0.5985  0.0976  2.9123
15180TIP3   OH266954   5.229   2.158   2.558  0.1891 -0.2120  0.4551
15180TIP3    H166955   5.160   2.149   2.625 -0.6848  2.9542  0.1422
15180TIP3    H266956   5.297   2.209   2.601 -0.0941  1.2999 -0.8228
15181TIP3   OH266957   2.082   2.838  13.051  0.0996 -0.0726 -0.0560
15181TIP3    H166958   2.074   2.821  13.145 -0.1041 -0.9502 -0.2159
15181TIP3    H266959   2.039   2.922  13.038 -0.6995 -0.3843  0.5021
15182TIP3   OH266960   4.848   1.978   5.161 -0.0400  0.3665  0.1526
15182TIP3    H166961   4.844   1.923   5.239 -0.4101  2.4644  1.7072
15182TIP3    H266962   4.761   1.969   5.121 -0.3305  0.3500  0.7758
15183TIP3   OH266963   1.253   0.453  11.396  0.2186  0.2925 -0.7165
15183TIP3    H166964   1.259   0.442  11.301  2.2930 -2.1899 -0.4025
15183TIP3    H266965   1.336   0.421  11.430  0.3824  3.0330  1.8858
15184TIP3   OH266966   1.703   3.931  12.165 -0.0086  0.2307  0.0255
15184TIP3    H166967   1.793   3.947  12.136 -0.8870  2.9781 -1.5426
15184TIP3    H266968   1.694   3.982  12.245 -0.6969  1.6635 -0.9267
15185TIP3   OH266969   1.095   4.154   5.257  0.6664 -0.2006 -0.0421
15185TIP3    H166970   1.023   4.166   5.195 -0.9224 -2.0913  1.3188
15185TIP3    H266971   1.090   4.229   5.315 -0.6153 -0.5842  0.3749
15186TIP3   OH266972   2.325   0.636   4.687 -0.0531  0.7233 -0.2569
15186TIP3    H166973   2.386   0.572   4.724 -0.0850  1.5736  1.3551
15186TIP3    H266974   2.349   0.719   4.728 -1.7500  1.2394 -0.2153
15187TIP3   OH266975   1.552   5.538  13.982  0.4150  0.1485  0.1370
15187TIP3    H166976   1.517   5.561  14.068 -0.8178 -0.9490 -0.0442
15187TIP3    H266977   1.521   5.608  13.924  1.1075  0.8008  0.5376
15188TIP3   OH266978   0.509   1.006  11.385  0.3428 -0.2101  0.5105
15188TIP3    H166979   0.455   0.949  11.439 -0.6805  0.9655  0.7598
15188TIP3    H266980   0.569   0.946  11.339  0.0967 -1.3597  1.6485
15189TIP3   OH266981   2.116   5.210  12.045  0.4734  0.7136 -0.2282
15189TIP3    H166982   2.057   5.182  11.974  0.4576  1.6432 -0.5992
15189TIP3    H266983   2.146   5.128  12.085 -1.0760  0.2128 -0.0237
15190TIP3   OH266984   0.158   2.862  12.952  0.2094 -0.8027  0.3368
15190TIP3    H166985   0.095   2.790  12.946 -1.3899  0.6505 -2.0321
15190TIP3    H266986   0.235   2.830  12.907 -0.2923 -1.2291 -0.2340
15191TIP3   OH266987   0.884   0.974  12.104 -0.3165 -0.1070  0.0721
15191TIP3    H166988   0.811   1.018  12.148 -1.5432 -3.3683  1.6057
15191TIP3    H266989   0.947   1.045  12.086 -2.6043  2.3956  1.2132
15192TIP3   OH266990   4.287   2.360   1.343  0.1933 -0.4025 -0.2612
15192TIP3    H166991   4.225   2.307   1.392  0.3341 -0.0561  0.2994
15192TIP3    H266992   4.279   2.330   1.253 -0.6092 -0.5318 -0.1511
15193TIP3   OH266993   6.656   6.740  16.305 -0.0714 -0.1338  0.2071
15193TIP3    H166994   6.699   6.826  16.305 -1.8230  0.8141 -0.9599
15193TIP3    H266995   6.614   6.734  16.391 -0.5436  0.5416  0.0391
15194TIP3   OH266996   1.608   5.071  16.096  0.4531  0.6505 -0.0065
15194TIP3    H166997   1.543   5.141  16.108 -0.3553 -0.1411  0.2681
15194TIP3    H266998   1.659   5.071  16.177 -0.9346 -0.4838  0.9154
15195TIP3   OH266999   5.283   1.808   0.371 -0.2839 -0.0155 -0.5623
15195TIP3    H167000   5.355   1.828   0.311 -1.4831  0.4502 -1.9201
15195TIP3    H267001   5.294   1.869   0.443  0.4255  0.3535 -0.9698
15196TIP3   OH267002   6.584   3.144  15.112 -0.1072  0.1082  0.5899
15196TIP3    H167003   6.546   3.061  15.142 -1.4895  0.6000  0.2654
15196TIP3    H267004   6.627   3.122  15.030  0.8380 -0.5739  1.2385
15197TIP3   OH267005   1.525   4.382   1.565 -0.2419 -0.3415 -0.2369
15197TIP3    H167006   1.618   4.358   1.570  0.0924  0.9998  0.2301
15197TIP3    H267007   1.479   4.298   1.569  0.8949 -0.9461  0.7621
15198TIP3   OH267008   3.232   3.347   6.761 -0.2495  0.7913 -0.3940
15198TIP3    H167009   3.248   3.289   6.835  1.5895  2.8735  0.9498
15198TIP3    H267010   3.138   3.363   6.764 -0.8500 -2.0106 -0.8353
15199TIP3   OH267011   6.073   5.386  14.089  0.1598  0.5271  0.1032
15199TIP3    H167012   5.999   5.388  14.028  0.9071  2.1717 -0.7833
15199TIP3    H267013   6.033   5.404  14.175 -0.8099 -1.2251  0.0682
15200TIP3   OH267014   2.833   4.081   4.246 -0.2588  0.2980  0.6125
15200TIP3    H167015   2.916   4.101   4.203 -0.3790 -1.4364 -0.5190
15200TIP3    H267016   2.779   4.041   4.178 -2.1953  1.7432  1.2198
15201TIP3   OH267017   1.466   6.160  16.318  0.5600 -0.1055  0.4065
15201TIP3    H167018   1.530   6.089  16.324  1.6162  0.6746 -1.0171
15201TIP3    H267019   1.445   6.181  16.410  0.5472 -1.9321  0.8548
15202TIP3   OH267020   0.149   0.244   5.649 -0.1530  0.3963 -0.6793
15202TIP3    H167021   0.074   0.194   5.681 -0.2376 -0.8850 -2.7350
15202TIP3    H267022   0.115   0.297   5.577  0.6519  0.8223 -0.7644
15203TIP3   OH267023   5.278   0.892   2.130 -0.8035  0.0865  0.0042
15203TIP3    H167024   5.340   0.818   2.126 -0.9602  0.0183 -1.5968
15203TIP3    H267025   5.259   0.901   2.223  1.7662  0.2297  0.6014
15204TIP3   OH267026   2.194   4.306   6.514 -0.3217 -0.6970 -0.0848
15204TIP3    H167027   2.192   4.356   6.596 -0.8602  0.7126 -0.9214
15204TIP3    H267028   2.159   4.367   6.448  3.6283 -0.3413 -2.1465
15205TIP3   OH267029   0.662   0.304   4.975  0.1576  0.2430 -0.4380
15205TIP3    H167030   0.707   0.264   4.900  2.7755  0.8515  0.7099
15205TIP3    H267031   0.706   0.388   4.988  0.6429 -0.3441  2.4811
15206TIP3   OH267032   0.572   5.310  12.565 -0.2681 -0.2788 -0.0185
15206TIP3    H167033   0.608   5.262  12.640  1.4334  0.1217 -0.5252
15206TIP3    H267034   0.498   5.258  12.536  1.2283 -2.3944 -0.2861
15207TIP3   OH267035   3.205   1.249  12.423  0.1819  0.3677  0.2031
15207TIP3    H167036   3.192   1.191  12.497 -1.4281 -0.7714 -0.8962
15207TIP3    H267037   3.124   1.243  12.373  0.4025  2.6898 -0.5845
15208TIP3   OH267038   1.152   5.619  13.234 -0.0964  0.7386 -0.2829
15208TIP3    H167039   1.174   5.527  13.219 -1.8019  0.2704 -0.0873
15208TIP3    H267040   1.223   5.668  13.191  0.5675 -0.6461 -0.8269
15209TIP3   OH267041   5.258   6.224  14.572  0.3731 -0.0502  0.3196
15209TIP3    H167042   5.222   6.160  14.511 -1.0772  0.2298  0.8391
15209TIP3    H267043   5.205   6.214  14.651  0.9633  0.9284  0.8577
15210TIP3   OH267044   3.271   3.893   0.375  0.1018  0.0377  0.3010
15210TIP3    H167045   3.211   3.836   0.326  1.1995 -1.6942  0.8804
15210TIP3    H267046   3.358   3.864   0.348  0.7642  2.7310 -0.7976
15211TIP3   OH267047   0.670   6.173  16.839  0.0342  0.0397  0.0776
15211TIP3    H167048   0.698   6.125  16.917  2.0297  0.4960 -0.3198
15211TIP3    H267049   0.671   6.108  16.769  0.0358  0.0438  0.0738
15212TIP3   OH267050   2.378   2.987  15.603  0.5095 -0.2097 -0.0434
15212TIP3    H167051   2.432   2.950  15.534 -1.0257 -0.0357 -1.3951
15212TIP3    H267052   2.305   3.028  15.557  0.0330  0.9244  1.6315
15213TIP3   OH267053   1.040   1.725  14.585 -0.3800 -0.1947 -0.3663
15213TIP3    H167054   1.005   1.643  14.620 -0.9630 -0.4441 -1.4666
15213TIP3    H267055   1.074   1.772  14.661 -3.7907  0.4055  0.9442
15214TIP3   OH267056   5.173   1.359   6.326  1.1409 -0.1765  0.3831
15214TIP3    H167057   5.189   1.310   6.406 -2.7589  0.6905  1.9147
15214TIP3    H267058   5.197   1.298   6.256 -1.8323 -3.8567  2.1650
15215TIP3   OH267059   1.509   5.245   5.496  0.2006 -0.0694 -0.3481
15215TIP3    H167060   1.585   5.252   5.439 -0.7336  1.1456 -1.5077
15215TIP3    H267061   1.518   5.316   5.559 -0.1781  0.3597 -0.7675
15216TIP3   OH267062   6.123   6.104   3.727  0.2124  0.3229  0.2101
15216TIP3    H167063   6.180   6.100   3.804  0.6124  2.8247  0.1196
15216TIP3    H267064   6.035   6.110   3.763  0.3691  1.0631  0.4922
15217TIP3   OH267065   4.026   5.722  14.443 -0.3962  0.4307  0.2481
15217TIP3    H167066   3.984   5.773  14.374 -0.1376  1.7647  1.0474
15217TIP3    H267067   4.050   5.640  14.400 -0.2025  1.2317 -1.2564
15218TIP3   OH267068   3.107   3.038  15.237  0.7810 -0.2130  0.1013
15218TIP3    H167069   3.088   3.120  15.191  0.1658  0.1119  0.9132
15218TIP3    H267070   3.108   3.061  15.329 -0.0819 -1.2382  0.3948
15219TIP3   OH267071   0.058   0.414  15.763  0.1279 -0.0216 -0.0646
15219TIP3    H167072   0.043   0.466  15.842  0.1320 -0.1268  0.0053
15219TIP3    H267073  -0.022   0.423  15.712  0.5259  0.9302 -0.5512
15220TIP3   OH267074   2.931   5.188   4.600  0.1766 -0.0208 -0.6165
15220TIP3    H167075   2.887   5.266   4.634 -2.0656 -1.2112 -0.6310
15220TIP3    H267076   2.982   5.155   4.675  1.7598  1.8178 -0.8262
15221TIP3   OH267077   2.537   6.297  16.618  0.2145  0.7016 -0.3373
15221TIP3    H167078   2.519   6.390  16.606  1.5369  0.9459 -0.5516
15221TIP3    H267079   2.569   6.290  16.708  0.4107  0.5019 -0.4223
15222TIP3   OH267080   0.672   5.900   5.445 -0.0495  0.0157 -0.0172
15222TIP3    H167081   0.586   5.926   5.477  0.3248  0.1158  0.9482
15222TIP3    H267082   0.702   5.975   5.394 -0.0077  0.5226  0.7217
15223TIP3   OH267083   3.767   4.257   6.048  0.1943 -0.2094  0.1564
15223TIP3    H167084   3.681   4.215   6.045 -0.2505  0.7021 -0.1329
15223TIP3    H267085   3.799   4.240   6.137  0.3087 -1.6687 -0.1306
15224TIP3   OH267086   0.905   0.916   5.559 -0.2469 -0.2343  0.1822
15224TIP3    H167087   0.954   0.997   5.569 -0.4539 -0.1142  0.2184
15224TIP3    H267088   0.912   0.873   5.644 -0.8449  0.1414  0.4314
15225TIP3   OH267089   4.619   4.320   0.624 -0.4522 -0.2978 -0.8324
15225TIP3    H167090   4.598   4.380   0.553  0.4373  1.8682  0.6437
15225TIP3    H267091   4.551   4.335   0.690  0.8345  0.5779  0.3668
15226TIP3   OH267092   6.233   5.076  15.576  0.1996  0.8118 -0.2072
15226TIP3    H167093   6.249   5.044  15.665  0.0957 -0.7151 -0.7137
15226TIP3    H267094   6.275   5.012  15.519  0.1715  1.7136 -1.2728
15227TIP3   OH267095   5.068   6.304  14.050 -0.4430 -0.1902 -0.3000
15227TIP3    H167096   5.048   6.284  14.141  0.9773 -0.5336 -0.0313
15227TIP3    H267097   4.998   6.362  14.021 -0.6449  0.3184  1.1608
15228TIP3   OH267098   0.416   2.544  11.677 -0.1493  0.3140  0.1037
15228TIP3    H167099   0.436   2.484  11.605 -0.8569  0.6407 -0.3774
15228TIP3    H267100   0.389   2.625  11.633  0.5073  0.8985  0.7392
15229TIP3   OH267101   5.799   6.628   1.259 -0.4303  0.2481 -0.6196
15229TIP3    H167102   5.894   6.629   1.263 -0.4089  1.3423 -0.8514
15229TIP3    H267103   5.780   6.608   1.167 -0.4615 -1.1643 -0.3251
15230TIP3   OH267104   2.441   4.003  13.166 -0.1194 -0.0795  0.2272
15230TIP3    H167105   2.495   4.052  13.228 -1.6634  0.1810  1.4464
15230TIP3    H267106   2.489   3.923  13.149 -0.1617 -0.7000  2.7204
15231TIP3   OH267107   2.952   1.959   4.176  0.3404 -0.2972  0.5334
15231TIP3    H167108   2.879   1.957   4.238 -0.3245 -1.4671 -0.2356
15231TIP3    H267109   2.946   2.045   4.135 -1.2385 -0.7089 -0.1966
15232TIP3   OH267110   2.990   6.573   3.257 -0.0025  0.1144 -0.6334
15232TIP3    H167111   2.908   6.586   3.211  0.6730  0.8015 -1.6855
15232TIP3    H267112   2.969   6.588   3.349 -1.1882 -0.4126 -0.8065
15233TIP3   OH267113   3.152   5.522  15.661 -0.0720 -0.1254  0.1157
15233TIP3    H167114   3.196   5.601  15.630  1.8119 -1.5808 -1.1030
15233TIP3    H267115   3.160   5.526  15.757  2.6736 -0.2229 -0.0192
15234TIP3   OH267116   4.383   6.021   4.134  0.1986  0.0327 -0.0138
15234TIP3    H167117   4.450   6.058   4.192  1.7576 -0.2182 -1.5503
15234TIP3    H267118   4.406   5.928   4.128  0.4560  0.1635 -1.4757
15235TIP3   OH267119   2.515   4.360  15.456  0.2337 -0.1429 -0.1186
15235TIP3    H167120   2.550   4.332  15.540 -0.1084 -0.5138 -0.0971
15235TIP3    H267121   2.589   4.352  15.395  1.1466  2.2381  0.5509
15236TIP3   OH267122   5.882   5.580   4.315  0.3074  1.0945 -0.4483
15236TIP3    H167123   5.808   5.521   4.331 -0.5810  2.5154  0.9319
15236TIP3    H267124   5.937   5.532   4.253 -1.4575 -0.2604 -1.0671
15237TIP3   OH267125   6.654   0.436  11.286 -0.2419 -0.1831  0.1228
15237TIP3    H167126   6.665   0.450  11.191 -1.6107 -0.9619 -0.1797
15237TIP3    H267127   6.717   0.366  11.307 -1.0489 -1.1591 -0.5696
15238TIP3   OH267128   4.004   1.263  14.449 -0.0562 -0.5381  0.6951
15238TIP3    H167129   3.992   1.273  14.355 -0.6367  0.4857  0.8591
15238TIP3    H267130   3.929   1.308  14.488  0.9706  0.4080  1.6660
15239TIP3   OH267131   4.677   3.994   5.147  0.3562 -0.1641 -0.2005
15239TIP3    H167132   4.738   3.997   5.220  1.3082 -0.2197 -0.9699
15239TIP3    H267133   4.627   4.076   5.153 -1.1660 -1.1610  1.7958
15240TIP3   OH267134   3.534   5.871  14.708  0.2584 -0.0916  0.3938
15240TIP3    H167135   3.575   5.858  14.793 -0.3004  1.1517  0.8861
15240TIP3    H267136   3.496   5.959  14.713 -1.1219 -0.5896 -0.5755
15241TIP3   OH267137   4.891   0.882   1.396  0.0473 -0.3005  0.6016
15241TIP3    H167138   4.947   0.890   1.318 -0.1178 -1.2569  0.3687
15241TIP3    H267139   4.943   0.921   1.466 -0.1888  1.4533 -0.1517
15242TIP3   OH267140   2.339   2.070  11.620  0.2306 -0.4417 -0.1750
15242TIP3    H167141   2.267   2.007  11.631 -0.1724 -0.5604 -2.7654
15242TIP3    H267142   2.296   2.155  11.619  0.8009  0.0624  3.5697
15243TIP3   OH267143   4.451   2.507   1.886 -0.0478 -0.5559 -0.3123
15243TIP3    H167144   4.479   2.422   1.920 -0.7194 -0.7591 -0.2609
15243TIP3    H267145   4.524   2.566   1.907  0.7825 -1.2720 -1.0719
15244TIP3   OH267146   6.100   5.433   4.608  0.0950 -0.4226 -0.6340
15244TIP3    H167147   6.011   5.398   4.616  0.1344 -0.3417  0.2468
15244TIP3    H267148   6.097   5.517   4.653  0.7890 -0.7319 -0.0012
15245TIP3   OH267149   2.217   0.729   0.506 -0.4039  0.1343 -0.1671
15245TIP3    H167150   2.301   0.771   0.487 -0.9171  0.9324 -0.7695
15245TIP3    H267151   2.228   0.691   0.593  0.3413  0.8748  0.0787
15246TIP3   OH267152   0.502   4.011  16.570 -0.1361 -0.6610  0.1200
15246TIP3    H167153   0.549   4.063  16.635 -0.2372  0.0928 -0.4068
15246TIP3    H267154   0.525   3.920  16.592 -1.1378 -0.5022  1.9464
15247TIP3   OH267155   3.085   3.547   5.189 -0.3763 -0.4232 -0.4924
15247TIP3    H167156   3.059   3.616   5.129  0.6356  1.4452  1.0897
15247TIP3    H267157   3.173   3.522   5.161  0.2696  0.7503  0.3881
15248TIP3   OH267158   6.467   4.591  13.644  0.0370  0.1862 -0.2572
15248TIP3    H167159   6.407   4.565  13.714 -1.5415  2.3101 -0.7387
15248TIP3    H267160   6.543   4.628  13.690 -0.2988  0.1422  0.3458
15249TIP3   OH267161   1.562   1.444  11.835  0.5985  0.1946  0.4222
15249TIP3    H167162   1.596   1.402  11.756 -1.1409  1.2633 -0.9661
15249TIP3    H267163   1.603   1.530  11.836  0.3978  0.2887  0.5277
15250TIP3   OH267164   0.518   6.182  12.970 -0.1217 -0.2877  0.4245
15250TIP3    H167165   0.474   6.217  13.047 -0.8842  0.5502 -0.3554
15250TIP3    H267166   0.519   6.255  12.908 -1.0311 -1.4125 -0.9787
15251TIP3   OH267167   3.253   5.249   2.622  0.0909  0.7651  0.4738
15251TIP3    H167168   3.267   5.190   2.548 -1.4624  0.4817  0.3619
15251TIP3    H267169   3.294   5.332   2.595 -0.2091  0.5818 -0.5943
15252TIP3   OH267170   2.646   5.931   6.145  0.1364 -0.2879  0.0679
15252TIP3    H167171   2.714   5.895   6.202  0.8099  0.9812  0.1027
15252TIP3    H267172   2.584   5.973   6.205  0.4301  0.3586 -0.0671
15253TIP3   OH267173   4.088   3.363   4.741  0.0699  0.0420  0.2136
15253TIP3    H167174   4.183   3.357   4.729  0.2419  1.0959  0.9357
15253TIP3    H267175   4.063   3.280   4.782  0.5631 -0.5289 -0.6135
15254TIP3   OH267176   1.250   0.666   1.995 -0.0035 -0.4168 -0.4982
15254TIP3    H167177   1.238   0.619   2.078  2.8809 -1.8966 -0.7731
15254TIP3    H267178   1.292   0.748   2.019 -1.4903  0.3171 -0.3310
15255TIP3   OH267179   5.758   6.641   1.857 -0.2137  0.7121 -0.3507
15255TIP3    H167180   5.841   6.668   1.896 -0.8986  0.8525  1.0405
15255TIP3    H267181   5.715   6.723   1.833 -0.3986  0.6730 -0.1472
15256TIP3   OH267182   2.755   5.661   3.830  0.5559  0.3810 -0.8395
15256TIP3    H167183   2.744   5.737   3.773  0.8531 -0.1653 -1.6445
15256TIP3    H267184   2.829   5.613   3.792  1.4041  0.5100  0.5805
15257TIP3   OH267185   5.049   3.000   1.150  0.4597  0.0966 -0.4063
15257TIP3    H167186   5.124   3.053   1.124 -0.5644  2.4176  1.0271
15257TIP3    H267187   5.067   2.977   1.242 -1.1271  1.8678  0.4091
15258TIP3   OH267188   0.400   2.801   0.986  0.1550 -0.0269 -0.3363
15258TIP3    H167189   0.422   2.891   0.960  0.0071  0.4893  1.2557
15258TIP3    H267190   0.452   2.746   0.927 -0.9312  1.0385 -2.4114
15259TIP3   OH267191   2.222   6.674  15.263 -0.3025  0.3747  0.4020
15259TIP3    H167192   2.222   6.713  15.175  0.4851 -0.0795  0.1859
15259TIP3    H267193   2.252   6.584  15.249  1.3335  0.7463  1.3166
15260TIP3   OH267194   6.728   1.292   0.018 -0.1474  0.0200 -0.5203
15260TIP3    H167195   6.745   1.202  -0.010 -1.7947 -0.2547 -0.7771
15260TIP3    H267196   6.753   1.294   0.110  2.2422  0.0187 -1.1017
15261TIP3   OH267197   4.034   2.012   0.491 -0.2829  0.3268  0.0893
15261TIP3    H167198   4.102   2.065   0.450  0.1490 -1.7154 -2.0416
15261TIP3    H267199   3.964   2.074   0.511  1.8064  2.3641  1.6372
15262TIP3   OH267200   5.736   1.458  17.077  0.4783  0.5104  0.3021
15262TIP3    H167201   5.688   1.496  17.003  0.4402 -1.5212 -0.7932
15262TIP3    H267202   5.826   1.448  17.045  1.0820  1.9947  1.4674
15263TIP3   OH267203   5.328   2.700  13.587  0.0576  0.5239 -0.2441
15263TIP3    H167204   5.240   2.681  13.554  0.1598  0.8346 -0.7093
15263TIP3    H267205   5.352   2.782  13.545  0.0628  1.1117  0.8720
15264TIP3   OH267206   1.625   1.348   1.544  0.4661  0.1190 -0.3980
15264TIP3    H167207   1.611   1.346   1.450  2.9590  1.6531 -0.8963
15264TIP3    H267208   1.658   1.261   1.565 -2.3803 -1.0868 -0.3980
15265TIP3   OH267209   3.455   4.010   6.732 -0.8228  0.3811  0.0174
15265TIP3    H167210   3.518   3.949   6.694 -1.0015  0.2043  0.0094
15265TIP3    H267211   3.503   4.094   6.736 -0.6017  0.2574 -0.0292
15266TIP3   OH267212   5.854   4.072  15.100 -0.2588  0.3028  0.5243
15266TIP3    H167213   5.803   4.008  15.050  0.1050  1.0091 -0.8006
15266TIP3    H267214   5.945   4.057  15.073 -0.1558  1.2761  0.2889
15267TIP3   OH267215   4.016   6.558   3.930 -0.6087 -0.1591 -0.2316
15267TIP3    H167216   4.012   6.487   3.867  0.4996  0.9905 -1.6690
15267TIP3    H267217   4.088   6.534   3.989  0.0619 -0.0309 -0.9882
15268TIP3   OH267218   6.547   5.779  12.505  0.2382 -0.3194  0.5925
15268TIP3    H167219   6.511   5.829  12.578 -1.0608  1.5244 -1.1915
15268TIP3    H267220   6.633   5.819  12.489 -0.6843  1.2991 -0.6568
15269TIP3   OH267221   3.606   5.887   4.371 -0.4776 -0.5672 -0.2772
15269TIP3    H167222   3.541   5.875   4.301 -0.4469 -0.1857 -0.3761
15269TIP3    H267223   3.580   5.825   4.439 -0.5710 -0.8673 -0.5832
15270TIP3   OH267224   1.843   6.019  15.457 -0.3350 -0.2649  0.0082
15270TIP3    H167225   1.756   5.994  15.488 -0.1045  0.9242  1.7388
15270TIP3    H267226   1.868   6.093  15.513  0.9619  0.7203 -1.7752
15271TIP3   OH267227   6.021   3.320  14.142 -0.2961  0.3273 -0.0669
15271TIP3    H167228   5.930   3.314  14.111 -0.5210  0.2086  0.6082
15271TIP3    H267229   6.062   3.383  14.083 -0.8934  0.6005 -0.1997
15272TIP3   OH267230   4.475   5.895   3.492  0.1304 -0.5584 -0.4548
15272TIP3    H167231   4.382   5.873   3.503  0.2794 -0.9820 -0.0644
15272TIP3    H267232   4.510   5.824   3.439  0.2431 -0.4114 -0.5782
15273TIP3   OH267233   3.080   4.758  13.962  0.3463 -0.0953  0.1980
15273TIP3    H167234   3.133   4.719  13.894  0.1548 -0.1265  0.0656
15273TIP3    H267235   3.012   4.807  13.915 -1.0422 -1.7815  0.3313
15274TIP3   OH267236   6.064   5.940  14.427 -0.2198 -0.3456 -0.1968
15274TIP3    H167237   6.141   5.935  14.370  0.0393  2.6995 -0.3034
15274TIP3    H267238   5.998   5.888  14.381  0.5561  0.4000 -2.3163
15275TIP3   OH267239   0.493   3.173   1.781 -0.0751  0.1844 -0.4657
15275TIP3    H167240   0.519   3.258   1.745  1.0831  1.0302  2.1256
15275TIP3    H267241   0.402   3.185   1.806 -0.1506  0.3997 -0.8307
15276TIP3   OH267242   2.172   0.020  12.322  0.3230 -0.1562 -0.5921
15276TIP3    H167243   2.111   0.079  12.277 -2.8030 -2.6711  0.0159
15276TIP3    H267244   2.207  -0.036  12.253 -1.0075 -1.0899 -0.5572
15277TIP3   OH267245   2.394   4.102   6.534 -0.4653 -0.2539  0.4627
15277TIP3    H167246   2.420   4.092   6.443 -0.0645 -0.7589  0.6298
15277TIP3    H267247   2.320   4.163   6.531  0.1233  0.4588 -0.1075
15278TIP3   OH267248   6.583   5.505  15.734 -0.1428  0.3160  0.1949
15278TIP3    H167249   6.621   5.522  15.820 -0.7782 -0.2864  0.5989
15278TIP3    H267250   6.641   5.551  15.673 -0.8093  2.4772  1.0987
15279TIP3   OH267251   5.881   3.138  14.736 -0.3242 -0.2820  0.1665
15279TIP3    H167252   5.974   3.113  14.737 -0.5287 -1.1523 -0.6316
15279TIP3    H267253   5.881   3.230  14.712  0.3104 -0.5239 -0.8325
15280TIP3   OH267254   6.288   2.682  16.951 -0.0357  0.6112  0.2368
15280TIP3    H167255   6.322   2.718  17.033  0.2158 -1.4467  1.0877
15280TIP3    H267256   6.202   2.647  16.974  1.3365 -2.9566  0.5656
15281TIP3   OH267257   3.305   0.136   5.562 -0.2417  0.2120  0.2029
15281TIP3    H167258   3.341   0.113   5.647  0.6509  0.2443 -0.1606
15281TIP3    H267259   3.219   0.173   5.582 -0.2854 -0.3207  1.0398
15282TIP3   OH267260   5.658   0.835  15.308  0.1261  0.0589  0.6199
15282TIP3    H167261   5.709   0.915  15.319 -0.5899  0.6210 -0.0000
15282TIP3    H267262   5.723   0.767  15.290  0.7716  0.4203  1.5225
15283TIP3   OH267263   6.489   3.605   1.335  0.0058  0.5158 -0.0893
15283TIP3    H167264   6.448   3.637   1.416  1.6451 -0.4093  1.1484
15283TIP3    H267265   6.567   3.559   1.363  0.0542 -0.8051 -2.1452
15284TIP3   OH267266   1.494   3.841   1.784 -0.2824 -0.3641 -0.1783
15284TIP3    H167267   1.422   3.839   1.721 -2.7003  0.9055  2.3430
15284TIP3    H267268   1.491   3.755   1.827 -0.0533 -0.4388 -0.3102
15285TIP3   OH267269   6.419   0.132   3.352 -0.0711  0.4747  0.3304
15285TIP3    H167270   6.435   0.052   3.403  0.9362  1.7124  2.0531
15285TIP3    H267271   6.505   0.156   3.317 -0.3790  0.7881 -0.2361
15286TIP3   OH267272   5.167   1.397  13.849 -0.3424 -0.2730 -0.0806
15286TIP3    H167273   5.220   1.468  13.812 -1.8781  0.6485 -0.5954
15286TIP3    H267274   5.208   1.317  13.815  0.6932  0.4017 -0.4833
15287TIP3   OH267275   0.980   5.269  15.349 -0.1943 -0.6196 -0.1200
15287TIP3    H167276   0.939   5.259  15.435  1.0397  0.0648  0.5808
15287TIP3    H267277   1.062   5.220  15.356 -0.3743 -1.0939 -1.1405
15288TIP3   OH267278   3.840   1.376  15.321 -0.8344 -0.5890 -0.3075
15288TIP3    H167279   3.789   1.298  15.346  1.1095 -1.5087  1.0599
15288TIP3    H267280   3.900   1.389  15.394 -1.5097  2.6409 -0.1877
15289TIP3   OH267281   5.337   5.893  15.340  0.7251  0.0936 -0.2665
15289TIP3    H167282   5.362   5.958  15.275 -1.2417 -0.1321 -1.3289
15289TIP3    H267283   5.253   5.926  15.375 -0.0250 -1.5663 -0.4303
15290TIP3   OH267284   4.064   1.708   4.410  0.3994 -0.0337 -0.1190
15290TIP3    H167285   4.004   1.642   4.446 -0.0779 -0.2125 -1.1963
15290TIP3    H267286   4.105   1.747   4.487 -0.8448 -0.1435  0.6395
15291TIP3   OH267287   3.570   1.921   1.957  0.2898  0.6911 -0.4272
15291TIP3    H167288   3.630   1.982   1.999  1.1539 -0.6956  0.4253
15291TIP3    H267289   3.614   1.836   1.963 -2.2743 -0.6429  1.3640
15292TIP3   OH267290   5.285   3.477   4.911 -0.3836 -0.3830  0.1585
15292TIP3    H167291   5.221   3.476   4.982 -1.4354 -1.2196 -0.7573
15292TIP3    H267292   5.370   3.472   4.955 -0.9859 -0.1921  1.3731
15293TIP3   OH267293   1.743   1.783  12.157  0.5476 -0.3090 -0.0034
15293TIP3    H167294   1.785   1.867  12.142  1.5222 -1.0229 -1.5178
15293TIP3    H267295   1.715   1.754  12.070  0.6708 -1.7561  0.4134
15294TIP3   OH267296   3.566   4.566  14.129  0.1635 -0.2138  0.1787
15294TIP3    H167297   3.660   4.548  14.121  0.2320 -0.5259  1.5076
15294TIP3    H267298   3.547   4.625  14.056  1.3765 -0.2053 -0.1536
15295TIP3   OH267299   4.190   3.672   2.530  0.0256  0.5758 -0.2844
15295TIP3    H167300   4.164   3.580   2.524  0.8318  0.0268  3.0361
15295TIP3    H267301   4.258   3.682   2.463 -0.1733 -1.1648 -0.8020
15296TIP3   OH267302   5.641   3.489  10.941 -0.2015 -0.5267 -0.0065
15296TIP3    H167303   5.695   3.534  10.876 -0.0484  2.9293  2.2601
15296TIP3    H267304   5.554   3.484  10.900  0.5566 -1.3720 -1.6316
15297TIP3   OH267305   4.096   0.815   5.490 -0.2294  0.2929  0.1428
15297TIP3    H167306   4.036   0.747   5.458  1.3691 -0.0928 -2.3560
15297TIP3    H267307   4.151   0.769   5.553 -0.6477 -0.1220  0.2157
15298TIP3   OH267308   4.810   2.660  14.405 -0.1255 -0.3215  0.1541
15298TIP3    H167309   4.798   2.726  14.474 -0.4378 -0.6095  0.3786
15298TIP3    H267310   4.813   2.577  14.452 -0.8739 -0.5716 -0.2273
15299TIP3   OH267311   4.738   5.389   0.783 -0.0039 -0.6696  0.2311
15299TIP3    H167312   4.792   5.317   0.815  2.3530  1.0580  0.4335
15299TIP3    H267313   4.759   5.462   0.840 -1.9772  0.3424 -0.2424
15300TIP3   OH267314   3.422   0.435   0.937 -0.4577 -0.4976 -0.0086
15300TIP3    H167315   3.394   0.369   1.001 -1.6933  0.5354  0.5793
15300TIP3    H267316   3.341   0.483   0.915  0.5429  1.5123  0.4180
15301TIP3   OH267317   5.083   0.048  12.440  0.3402  0.2168 -0.0186
15301TIP3    H167318   5.077   0.143  12.439 -2.4552  0.1416 -1.1223
15301TIP3    H267319   5.163   0.029  12.489 -1.2372  3.0536  4.2494
15302TIP3   OH267320   6.372   3.952   4.199 -0.2650 -0.3761 -0.3322
15302TIP3    H167321   6.399   3.931   4.288  0.8022  0.3641 -0.4611
15302TIP3    H267322   6.409   4.039   4.182 -0.9746 -0.2407 -1.2784
15303TIP3   OH267323   1.350   3.380  16.605 -0.6321 -0.4924  0.0598
15303TIP3    H167324   1.259   3.405  16.618 -0.8995 -0.6789 -1.2810
15303TIP3    H267325   1.345   3.294  16.563  0.0998  0.1922 -1.5038
15304TIP3   OH267326   2.975   2.157  14.803  0.1054  0.1019 -0.3849
15304TIP3    H167327   3.028   2.127  14.729  0.6883  1.5575 -0.5832
15304TIP3    H267328   2.887   2.166  14.768  0.1321 -0.3617 -0.5820
15305TIP3   OH267329   5.017   4.525   5.861  0.1984  0.3961  0.0890
15305TIP3    H167330   4.940   4.552   5.912 -0.3559 -0.2855 -0.3626
15305TIP3    H267331   5.014   4.579   5.782  0.8036  1.1339  0.5584
15306TIP3   OH267332   4.025   5.313   6.046 -0.1799 -0.4586 -0.0188
15306TIP3    H167333   4.093   5.260   6.089 -1.2599 -1.2195  0.7972
15306TIP3    H267334   3.959   5.249   6.020 -0.2013  0.1619 -1.5944
15307TIP3   OH267335   0.184   1.581  15.686  0.2227 -0.5779 -0.8671
15307TIP3    H167336   0.167   1.502  15.635  1.9486 -1.7499  0.2337
15307TIP3    H267337   0.280   1.584  15.695  0.1204  0.9407  0.1913
15308TIP3   OH267338   1.789   0.001   3.774  0.2297  0.1451 -0.1410
15308TIP3    H167339   1.872   0.004   3.727 -0.5517  1.7502 -1.5340
15308TIP3    H267340   1.760  -0.090   3.766  1.8983 -0.4904  0.5377
15309TIP3   OH267341   2.187   5.065   2.044 -0.1073 -0.1355  0.1154
15309TIP3    H167342   2.104   5.110   2.058 -1.4534 -1.9630 -1.3952
15309TIP3    H267343   2.234   5.076   2.126 -1.2744  2.0729  0.5522
15310TIP3   OH267344   0.834   6.272  16.456 -0.2339 -0.3696  0.3488
15310TIP3    H167345   0.782   6.332  16.509 -0.5127 -1.1166  0.9433
15310TIP3    H267346   0.913   6.257  16.507 -1.0738 -2.1173  1.2246
15311TIP3   OH267347   2.480   1.105  11.411 -0.1255  0.4005  0.0113
15311TIP3    H167348   2.419   1.031  11.405 -0.7441  0.8296  0.8431
15311TIP3    H267349   2.499   1.113  11.505  1.3463  0.1842 -0.2366
15312TIP3   OH267350   1.064   2.674   4.446  0.2178  0.2255 -0.3410
15312TIP3    H167351   0.977   2.707   4.468  1.1577  2.0422  0.9524
15312TIP3    H267352   1.122   2.716   4.509  1.9086 -1.9182 -0.3301
15313TIP3   OH267353   1.965   0.876   2.374 -0.1389  0.4898 -0.2702
15313TIP3    H167354   1.913   0.925   2.310 -1.1969  0.7482  0.7736
15313TIP3    H267355   2.002   0.804   2.323 -0.8431  0.7742 -1.2149
15314TIP3   OH267356   1.572   0.412  16.228  0.4517 -0.2631 -0.0345
15314TIP3    H167357   1.629   0.367  16.165  0.7842 -1.2537  0.9374
15314TIP3    H267358   1.626   0.420  16.307 -0.2326  0.2072  0.3958
15315TIP3   OH267359   2.371   2.098  13.562 -0.3420 -0.0958 -0.1786
15315TIP3    H167360   2.389   2.006  13.546 -0.6059 -0.4472  1.4404
15315TIP3    H267361   2.390   2.141  13.478  0.7007 -1.4737 -0.6798
15316TIP3   OH267362   5.858   6.693   0.378  0.5492  0.1288  0.1691
15316TIP3    H167363   5.871   6.602   0.349  1.3424 -0.1396  1.3082
15316TIP3    H267364   5.918   6.744   0.324 -0.8385  0.1968 -1.4166
15317TIP3   OH267365   3.787   0.495  15.566 -0.4206 -0.2786 -0.0089
15317TIP3    H167366   3.867   0.521  15.520 -1.4109 -0.7220 -2.1243
15317TIP3    H267367   3.813   0.420  15.619  0.8039  0.3089  0.2482
15318TIP3   OH267368   0.447   5.561  12.361  0.7287 -0.3398 -0.0853
15318TIP3    H167369   0.368   5.517  12.393 -0.4330 -0.0687 -2.3893
15318TIP3    H267370   0.501   5.571  12.439 -1.2956 -0.9610  1.5037
15319TIP3   OH267371   1.843   1.684  13.475 -0.3552 -0.3178 -0.6627
15319TIP3    H167372   1.880   1.772  13.481  0.8924 -0.9325  1.8675
15319TIP3    H267373   1.756   1.698  13.437  0.2855  1.8271 -1.5275
15320TIP3   OH267374   6.715   2.230   3.293  0.1942 -0.2171 -0.1548
15320TIP3    H167375   6.649   2.250   3.227  1.2710 -1.6520 -1.7692
15320TIP3    H267376   6.700   2.294   3.363 -2.6143 -0.2528 -0.6125
15321TIP3   OH267377   1.912   1.482  13.227  0.0117  0.0636 -0.4877
15321TIP3    H167378   1.966   1.537  13.169  0.7447 -0.6119 -0.4685
15321TIP3    H267379   1.904   1.533  13.307  0.0364  0.4733 -0.7397
15322TIP3   OH267380   5.083   4.869   5.225  0.0177 -0.0862  0.1325
15322TIP3    H167381   5.083   4.807   5.152  0.2859  0.7423 -0.5962
15322TIP3    H267382   5.005   4.923   5.209  1.4233  1.7329 -1.0139
15323TIP3   OH267383   4.472   5.042   3.561  0.1628  0.6312 -0.5345
15323TIP3    H167384   4.559   5.005   3.570 -0.3957 -0.8748 -1.0583
15323TIP3    H267385   4.438   5.047   3.651  0.6122  0.8266 -0.3720
15324TIP3   OH267386   6.334   3.984   6.217  0.1752  0.0453 -0.2297
15324TIP3    H167387   6.376   3.899   6.224  0.1619 -0.0230 -0.8734
15324TIP3    H267388   6.305   4.005   6.306  0.6270 -0.3880  0.0193
15325TIP3   OH267389   4.854   6.349  15.755 -0.6841 -0.3477  0.5656
15325TIP3    H167390   4.804   6.408  15.698  1.0398  1.1533  0.5046
15325TIP3    H267391   4.944   6.354  15.721  0.0064 -0.9434  2.2190
15326TIP3   OH267392   4.804   6.012   5.106 -0.3070  0.2147  0.4055
15326TIP3    H167393   4.873   5.991   5.169  1.8278  1.9836 -1.1807
15326TIP3    H267394   4.799   5.935   5.049  3.1586  1.3102 -1.7176
15327TIP3   OH267395   6.499   0.362  10.448 -0.1890 -0.0486  0.2992
15327TIP3    H167396   6.406   0.342  10.459 -0.2022  0.8112  2.0927
15327TIP3    H267397   6.505   0.457  10.462  1.0553 -0.2171  1.0191
15328TIP3   OH267398   5.486   1.354   0.069 -0.2710 -0.0378  0.4726
15328TIP3    H167399   5.495   1.386  -0.021 -2.0189  0.0501  0.2889
15328TIP3    H267400   5.565   1.301   0.083  1.7838  2.7202  0.1530
15329TIP3   OH267401   0.897   3.974  14.163 -0.4230  0.6370  0.0059
15329TIP3    H167402   0.911   4.066  14.185 -2.7649  0.6265  1.9187
15329TIP3    H267403   0.922   3.968  14.071  1.1447  2.8339  0.2000
15330TIP3   OH267404   4.677   2.226   0.404 -0.1084 -0.3022 -0.1361
15330TIP3    H167405   4.650   2.134   0.404 -0.8817 -0.1991 -3.2676
15330TIP3    H267406   4.761   2.227   0.359 -0.9663  0.6428 -1.8175
15331TIP3   OH267407   0.895   5.286  11.698  0.2149  0.1428 -0.1235
15331TIP3    H167408   0.982   5.249  11.711  0.9675  1.4314 -1.2498
15331TIP3    H267409   0.864   5.247  11.616 -0.9616 -1.5092  1.0559
15332TIP3   OH267410   4.137   5.122   4.855  0.3262  0.1053 -0.4266
15332TIP3    H167411   4.163   5.037   4.890 -2.0189 -0.7024 -0.4788
15332TIP3    H267412   4.143   5.181   4.930  0.6152 -0.4036 -0.0415
15333TIP3   OH267413   2.273   5.716  10.833  0.0634 -0.2467  0.3272
15333TIP3    H167414   2.268   5.801  10.790 -1.1469 -0.3422  0.2486
15333TIP3    H267415   2.184   5.683  10.832  0.8255 -2.5399 -1.6664
15334TIP3   OH267416   4.339   1.195  16.646  0.4075 -0.3583 -0.3522
15334TIP3    H167417   4.381   1.110  16.639  3.1771  0.7987  0.7508
15334TIP3    H267418   4.346   1.233  16.558  0.1745 -0.8203 -0.5701
15335TIP3   OH267419   6.335   4.521  12.107 -0.0698  0.2896 -0.1418
15335TIP3    H167420   6.401   4.556  12.167 -1.6433  0.6432  1.4938
15335TIP3    H267421   6.328   4.429  12.130 -0.7943  0.4619  0.3822
15336TIP3   OH267422   6.018   5.239   1.692  0.1234  0.2362 -0.2633
15336TIP3    H167423   6.010   5.203   1.781 -1.9828 -1.1013 -0.9153
15336TIP3    H267424   6.010   5.163   1.635 -0.0142  1.2520 -1.6424
15337TIP3   OH267425   0.909   1.439   3.277  0.6277  0.0877 -0.6515
15337TIP3    H167426   0.830   1.387   3.290  0.3656  0.0714 -2.1384
15337TIP3    H267427   0.905   1.506   3.344  1.2222 -2.0446  1.6478
15338TIP3   OH267428   5.471   2.959  14.341 -0.1292  0.6055  0.1539
15338TIP3    H167429   5.452   3.011  14.419  3.4897  0.1692  1.4927
15338TIP3    H267430   5.487   2.870  14.374 -1.8357 -0.4237 -1.5689
15339TIP3   OH267431   2.078   0.121  17.270 -0.0504 -0.3393 -0.2051
15339TIP3    H167432   2.104   0.212  17.288  0.5440 -0.8445  1.6877
15339TIP3    H267433   2.102   0.073  17.349 -2.3488 -1.7640 -0.2784
15340TIP3   OH267434   0.044   1.011   1.761 -0.5076  0.4782 -0.7529
15340TIP3    H167435  -0.037   0.962   1.750  0.6542 -1.4673 -1.0503
15340TIP3    H267436   0.046   1.034   1.854 -0.9904 -0.2051 -0.5658
15341TIP3   OH267437   5.560   4.410   3.892  0.3703  0.9709 -0.0305
15341TIP3    H167438   5.566   4.448   3.804 -0.5741  0.1304 -0.4820
15341TIP3    H267439   5.643   4.432   3.933  0.8884  1.2627 -1.1817
15342TIP3   OH267440   5.170   2.427   2.169  0.0399 -0.3096  0.3644
15342TIP3    H167441   5.081   2.459   2.188  0.3152  0.3880  0.5348
15342TIP3    H267442   5.166   2.333   2.186 -0.2401 -0.0275  2.0653
15343TIP3   OH267443   0.605   3.246  12.634 -0.0537  0.0186  0.7593
15343TIP3    H167444   0.696   3.219  12.618 -0.2171  0.7888 -1.8791
15343TIP3    H267445   0.580   3.293  12.555 -2.6865  0.0936  1.5602
15344TIP3   OH267446   3.932   5.239   3.402 -0.0654  0.8467 -0.3034
15344TIP3    H167447   3.887   5.168   3.448  0.6035 -0.2310 -1.2442
15344TIP3    H267448   3.862   5.291   3.364 -0.5808  0.8878  0.6515
15345TIP3   OH267449   5.142   3.192   2.586  0.5593  0.4058  0.4722
15345TIP3    H167450   5.130   3.098   2.594  0.0549  0.5195  1.0922
15345TIP3    H267451   5.237   3.204   2.580  0.6739 -0.0837  1.2130
15346TIP3   OH267452   6.144   2.671  12.299  0.1591  0.1965  0.3010
15346TIP3    H167453   6.153   2.741  12.234 -2.9245  1.1030  0.6713
15346TIP3    H267454   6.102   2.713  12.374  0.1886 -1.6241  1.3946
15347TIP3   OH267455   4.767   2.575   5.367  0.2365  0.1779 -0.0031
15347TIP3    H167456   4.762   2.602   5.275 -1.0543 -1.2677 -0.3996
15347TIP3    H267457   4.825   2.639   5.407  2.5909 -0.3218 -2.2723
15348TIP3   OH267458   1.703   5.919  11.655  0.6447 -0.0719  0.3421
15348TIP3    H167459   1.631   5.918  11.591 -1.2220  1.2059  2.2933
15348TIP3    H267460   1.766   5.982  11.620  0.1803 -0.1823 -0.7333
15349TIP3   OH267461   1.165   5.251  12.430 -0.1163 -0.3292 -0.1386
15349TIP3    H167462   1.222   5.215  12.362  0.4274 -0.6458  0.4778
15349TIP3    H267463   1.111   5.314  12.384 -0.1408 -0.9417 -0.9814
15350TIP3   OH267464   3.229   2.512   3.697 -0.0882 -0.1795 -0.5996
15350TIP3    H167465   3.161   2.527   3.631  1.3374 -1.1987 -2.4160
15350TIP3    H267466   3.293   2.582   3.680  0.8073 -1.0851 -1.0677
15351TIP3   OH267467   3.849   5.346   3.825 -0.1886 -0.5152  0.2104
15351TIP3    H167468   3.815   5.380   3.908 -0.5983  0.7487 -0.4480
15351TIP3    H267469   3.775   5.297   3.788 -0.5040  0.1931 -0.1029
15352TIP3   OH267470   4.716   1.652  15.263  0.0528 -0.3576  0.7817
15352TIP3    H167471   4.696   1.686  15.350 -2.0596 -2.0988  1.0610
15352TIP3    H267472   4.754   1.566  15.279 -0.2352 -0.6388 -0.0000
15353TIP3   OH267473   6.618   4.485  11.601 -0.3877 -0.0186 -0.2054
15353TIP3    H167474   6.606   4.568  11.646 -0.3783  0.1891 -0.5758
15353TIP3    H267475   6.610   4.418  11.669 -1.0200  0.2543 -0.0033
15354TIP3   OH267476   5.683   3.126   2.427  0.4017  0.5119 -0.6735
15354TIP3    H167477   5.768   3.088   2.450  0.5547  1.0170 -0.3932
15354TIP3    H267478   5.700   3.177   2.348 -0.2971 -1.9149 -2.5209
15355TIP3   OH267479   5.687   4.976  12.099  0.0630 -0.4839 -0.0981
15355TIP3    H167480   5.764   5.028  12.078  0.9505 -1.2589  1.0768
15355TIP3    H267481   5.666   5.000  12.189 -1.0084 -0.3701 -0.3638
15356TIP3   OH267482   5.540   0.900   3.580  0.8203  0.8041 -0.0681
15356TIP3    H167483   5.579   0.813   3.589  1.0099  0.7329 -1.3567
15356TIP3    H267484   5.454   0.884   3.540  0.7493  1.1876 -0.0728
15357TIP3   OH267485   2.388   1.282   0.720  0.9748 -0.0403  0.2926
15357TIP3    H167486   2.377   1.375   0.741  0.0328 -0.3435  1.2519
15357TIP3    H267487   2.451   1.250   0.784 -0.4009 -0.5341  1.4444
15358TIP3   OH267488   5.254   2.307  15.856 -0.0414 -0.3461  0.0274
15358TIP3    H167489   5.172   2.296  15.808 -0.3694 -2.4143  0.9484
15358TIP3    H267490   5.282   2.218  15.876  1.4493  0.3750  1.3542
15359TIP3   OH267491   2.460   5.150   1.120  0.0557 -0.3138 -0.6691
15359TIP3    H167492   2.378   5.107   1.096 -1.3981  1.7625  0.2805
15359TIP3    H267493   2.484   5.112   1.204 -1.2444  0.6876  0.1910
15360TIP3   OH267494   0.800   3.810  16.196 -0.5881  0.0718  0.2894
15360TIP3    H167495   0.890   3.805  16.229 -0.3092  2.2979  0.0578
15360TIP3    H267496   0.802   3.883  16.134 -2.1866 -0.9298 -1.0309
15361TIP3   OH267497   1.116   4.857  13.903 -0.3989 -0.1415 -0.4903
15361TIP3    H167498   1.131   4.797  13.831  0.3730  0.1020 -0.5502
15361TIP3    H267499   1.176   4.930  13.885 -0.3709  0.0274  0.2638
15362TIP3   OH267500   4.844   2.113  14.039  0.3189 -0.0008  0.1359
15362TIP3    H167501   4.816   2.189  13.987 -2.9181 -2.1738 -1.6168
15362TIP3    H267502   4.939   2.114  14.032  0.3500  3.1713 -0.8089
15363TIP3   OH267503   4.688   3.170   0.061  0.4594 -0.1268  0.4075
15363TIP3    H167504   4.670   3.090   0.012 -0.7720  0.5867 -0.3460
15363TIP3    H267505   4.650   3.156   0.148  0.0877 -0.2901  0.2168
15364TIP3   OH267506   1.267   4.568   3.663 -0.3522  0.0060 -0.1527
15364TIP3    H167507   1.231   4.542   3.578 -1.9596 -0.0204  0.5056
15364TIP3    H267508   1.195   4.611   3.708  0.6713  0.6337  0.9521
15365TIP3   OH267509   6.374   4.338  15.173 -0.6450 -0.4194  0.0141
15365TIP3    H167510   6.387   4.373  15.085 -0.9708  0.3382  0.2600
15365TIP3    H267511   6.450   4.283  15.188  0.1032  0.5206 -0.2249
15366TIP3   OH267512   6.729   6.225  15.733  0.5705 -0.7886 -0.0767
15366TIP3    H167513   6.737   6.131  15.752 -1.0390 -0.7110  1.1178
15366TIP3    H267514   6.636   6.238  15.716  1.1075  0.1927 -2.6886
15367TIP3   OH267515   3.828   6.624  14.830  0.3739  0.1791 -0.6413
15367TIP3    H167516   3.862   6.577  14.907  0.4092  0.2142 -0.6354
15367TIP3    H267517   3.795   6.555  14.773 -0.5438  0.2012 -0.1668
15368TIP3   OH267518   3.040   4.975  16.424  0.8404  0.0281 -0.1959
15368TIP3    H167519   3.071   4.996  16.336  1.1412  1.4875  0.2295
15368TIP3    H267520   3.119   4.967  16.476  0.6303  0.1848  0.1501
15369TIP3   OH267521   2.759   3.472  12.550 -0.7750 -0.3796 -0.2853
15369TIP3    H167522   2.801   3.387  12.560  1.1951  0.5785  0.1492
15369TIP3    H267523   2.681   3.455  12.498 -0.0395 -2.3290 -0.8205
15370TIP3   OH267524   2.431   2.230   4.543 -0.2353 -0.1801  0.3043
15370TIP3    H167525   2.436   2.292   4.616 -0.4746 -0.5983  0.6805
15370TIP3    H267526   2.484   2.270   4.474  0.6077 -0.1257  0.9627
15371TIP3   OH267527   0.804   3.049   5.600  0.0034  0.3250  0.3481
15371TIP3    H167528   0.868   3.075   5.534 -0.4346  0.3464 -0.0737
15371TIP3    H267529   0.848   3.065   5.684 -0.6231  3.5715  0.1750
15372TIP3   OH267530   3.951   6.205  13.459  0.2169 -0.3752  0.9262
15372TIP3    H167531   3.868   6.159  13.475 -0.1947  0.1836  0.4255
15372TIP3    H267532   3.950   6.278  13.522 -0.9851  1.2892 -0.9087
15373TIP3   OH267533   4.892   2.854   3.021 -1.0807  0.3047 -0.0892
15373TIP3    H167534   4.900   2.871   3.114 -0.0805 -0.3473 -0.0387
15373TIP3    H267535   4.982   2.836   2.992 -1.4309  0.1049 -1.0903
15374TIP3   OH267536   5.408   4.154   1.903  0.0457  0.4570  0.4308
15374TIP3    H167537   5.450   4.116   1.981 -0.4254 -0.2786  0.3304
15374TIP3    H267538   5.474   4.147   1.834  1.0801  2.5655  1.1066
15375TIP3   OH267539   4.563   3.150  15.139 -0.4149 -0.7380 -0.2649
15375TIP3    H167540   4.468   3.154  15.132 -0.3459  0.2712 -0.8076
15375TIP3    H267541   4.584   3.058  15.124 -1.3403 -1.0665  0.3961
15376TIP3   OH267542   4.856   5.981  15.175  0.5577  0.1274 -0.2076
15376TIP3    H167543   4.854   5.975  15.270 -2.3375 -0.8752 -0.2361
15376TIP3    H267544   4.865   5.890  15.145 -1.3869  0.1028 -0.8336
15377TIP3   OH267545   4.236   1.898   1.298 -0.2573 -0.1789 -0.3643
15377TIP3    H167546   4.264   1.910   1.207 -1.4408 -3.0849 -1.1934
15377TIP3    H267547   4.144   1.924   1.298 -0.6010 -1.3593 -0.3176
15378TIP3   OH267548   5.614   2.529   1.826  0.3641 -0.1554 -0.7741
15378TIP3    H167549   5.531   2.512   1.871  1.0407 -0.3864  0.4301
15378TIP3    H267550   5.617   2.464   1.755 -0.6504  0.1142 -1.0856
15379TIP3   OH267551   2.916   0.238   4.261 -0.5049  0.0031  0.1992
15379TIP3    H167552   2.977   0.300   4.301 -1.0642  1.2790 -0.8528
15379TIP3    H267553   2.836   0.244   4.314  0.6416 -2.7803  2.5214
15380TIP3   OH267554   6.735   3.158   2.794  0.6739 -0.3564  0.5167
15380TIP3    H167555   6.764   3.126   2.709  2.8100  0.2040  0.9644
15380TIP3    H267556   6.710   3.249   2.778  1.4008 -0.1459  0.5132
15381TIP3   OH267557   4.642   2.072  11.169  0.3026 -0.0607  0.4941
15381TIP3    H167558   4.676   1.985  11.147  0.3242 -0.2947  1.4154
15381TIP3    H267559   4.554   2.055  11.204  0.2054  0.3163  0.4332
15382TIP3   OH267560   4.364   5.959   1.774  0.2291  0.1031  0.9100
15382TIP3    H167561   4.419   5.919   1.706  2.0664  1.2722  1.6403
15382TIP3    H267562   4.333   5.885   1.826 -0.4702 -0.7326 -0.6537
15383TIP3   OH267563   5.898   6.756  15.094  0.2295  0.1537 -0.3291
15383TIP3    H167564   5.883   6.692  15.024 -0.6966 -0.2020  0.1725
15383TIP3    H267565   5.928   6.704  15.168 -1.6090  0.0982  0.4380
15384TIP3   OH267566   5.318   0.402   1.506 -0.0558  0.1506  0.1325
15384TIP3    H167567   5.288   0.312   1.494  1.9302 -0.6680  0.9209
15384TIP3    H267568   5.237   0.454   1.504 -1.0367 -1.2346 -3.3303
15385TIP3   OH267569   1.703   2.523   0.851  0.1341 -0.4563  0.0791
15385TIP3    H167570   1.754   2.498   0.773  0.2757  1.4609 -0.4780
15385TIP3    H267571   1.616   2.486   0.835  0.0499  0.2507 -1.1928
15386TIP3   OH267572   2.917   1.890   6.480  0.0347 -0.0695  0.4563
15386TIP3    H167573   3.005   1.914   6.451  0.2085 -0.5098  0.6180
15386TIP3    H267574   2.915   1.914   6.572  0.6184 -1.7753  0.9319
15387TIP3   OH267575   4.020   0.913   2.140 -0.2179  0.4267 -0.1692
15387TIP3    H167576   4.001   0.964   2.219  0.6975 -0.0519  0.3815
15387TIP3    H267577   3.965   0.835   2.149 -1.5182  1.2231 -0.9472
15388TIP3   OH267578   3.828   6.289  17.247 -0.0162 -0.1215  0.3938
15388TIP3    H167579   3.801   6.375  17.216 -0.3581 -0.6622 -0.8521
15388TIP3    H267580   3.863   6.245  17.170  1.6967 -0.5313  1.3490
15389TIP3   OH267581   2.727   1.100   3.924 -0.2551 -0.1518  0.1435
15389TIP3    H167582   2.807   1.151   3.940  1.2243 -2.3764  0.2181
15389TIP3    H267583   2.706   1.118   3.833  1.3554 -0.8383 -0.3992
15390TIP3   OH267584   1.207   2.347   3.877  0.3586  0.3919  0.2763
15390TIP3    H167585   1.164   2.356   3.792  0.9880  1.8180  0.0870
15390TIP3    H267586   1.179   2.261   3.909 -0.5808  0.2085 -0.9734
15391TIP3   OH267587   5.046   1.824  10.616  0.1366 -0.3478  0.1567
15391TIP3    H167588   4.994   1.902  10.640  0.2877  0.2754 -1.4254
15391TIP3    H267589   4.987   1.751  10.634 -0.4403  0.1931  0.5672
15392TIP3   OH267590   1.850   3.735   2.941 -0.1172  0.0296 -0.5346
15392TIP3    H167591   1.855   3.646   2.906 -0.3971  0.2436 -1.1364
15392TIP3    H267592   1.916   3.784   2.891  0.3607  0.0597  0.1150
15393TIP3   OH267593   5.605   0.512   3.351  0.0288 -0.8373 -0.1757
15393TIP3    H167594   5.672   0.460   3.306 -0.9687 -2.4813  0.1645
15393TIP3    H267595   5.564   0.564   3.281  0.3168 -1.3067 -0.7033
15394TIP3   OH267596   0.228   2.144  15.343 -0.2612  0.2614 -0.3638
15394TIP3    H167597   0.212   2.194  15.423  0.4741 -0.0734  0.0048
15394TIP3    H267598   0.141   2.119  15.312 -0.6746  2.1933 -0.8530
15395TIP3   OH267599   4.560   4.295  14.653  0.0447  0.2935  0.1328
15395TIP3    H167600   4.542   4.273  14.744 -0.9719 -1.7668 -0.5129
15395TIP3    H267601   4.628   4.233  14.627 -1.2402 -0.6212 -1.1188
15396TIP3   OH267602   2.188   0.228  14.547  0.3126 -0.5158 -0.1342
15396TIP3    H167603   2.239   0.307  14.529  0.9443  0.0775  3.4116
15396TIP3    H267604   2.154   0.201  14.462  3.1920  1.3713 -2.0755
15397TIP3   OH267605   6.645   3.454   0.523  0.2924  0.5028 -0.1411
15397TIP3    H167606   6.555   3.466   0.493  0.4864  0.7655 -0.6244
15397TIP3    H267607   6.649   3.362   0.550  0.1956  0.1674 -1.2266
15398TIP3   OH267608   6.064   2.911  15.532 -0.1358 -0.0547  0.0670
15398TIP3    H167609   6.059   2.900  15.437 -3.9684  0.5889  0.0336
15398TIP3    H267610   6.129   2.847  15.560 -0.6511 -2.0046 -2.7794
15399TIP3   OH267611   5.286   5.025  17.084 -0.0055  0.0943  0.6445
15399TIP3    H167612   5.219   5.083  17.047 -0.7305  0.0588  1.8230
15399TIP3    H267613   5.250   4.937  17.075 -0.7964  0.1728  2.5033
15400TIP3   OH267614   5.917   6.350  14.495  0.0585 -0.2842  0.2625
15400TIP3    H167615   5.934   6.379  14.406  0.3200  0.5189  0.5676
15400TIP3    H267616   5.994   6.376  14.545 -0.2206 -0.4404  0.7898
15401TIP3   OH267617   4.138   5.145   2.844  0.1106  0.1162  0.1422
15401TIP3    H167618   4.143   5.236   2.816 -2.4108  0.0912 -0.6291
15401TIP3    H267619   4.157   5.093   2.766 -1.0268  0.0299 -0.1007
15402TIP3   OH267620   1.137   0.768  16.133 -0.9815 -0.1309 -0.2402
15402TIP3    H167621   1.056   0.783  16.084 -0.5088  2.9813 -0.2764
15402TIP3    H267622   1.117   0.795  16.223 -0.4321 -0.8438  0.1052
15403TIP3   OH267623   4.133   4.405  13.393  0.0475 -0.5239  0.0967
15403TIP3    H167624   4.069   4.341  13.363  1.2010 -1.7168  0.0786
15403TIP3    H267625   4.086   4.459  13.456 -0.9387 -1.4374  0.1674
15404TIP3   OH267626   2.235   4.363   2.296  0.2624 -0.2077  0.0629
15404TIP3    H167627   2.210   4.423   2.226  0.5661  0.6680  0.6845
15404TIP3    H267628   2.164   4.369   2.360  1.5720  1.7303  1.4864
15405TIP3   OH267629   5.950   2.844   2.963  0.4929 -0.2020  0.2042
15405TIP3    H167630   5.990   2.890   2.889  1.3266 -0.0598  0.7392
15405TIP3    H267631   5.855   2.855   2.948  0.6579  0.8531 -0.2084
15406TIP3   OH267632   4.143   4.831   1.210 -0.1814  0.6663 -0.2796
15406TIP3    H167633   4.229   4.869   1.191 -0.3850  1.2430 -0.0657
15406TIP3    H267634   4.132   4.763   1.143  0.0048  1.2786 -0.9471
15407TIP3   OH267635   5.780   1.311  11.306 -0.3458 -0.5135  0.2057
15407TIP3    H167636   5.873   1.309  11.282 -0.5895  2.0170 -1.3224
15407TIP3    H267637   5.779   1.286  11.399  1.6529 -1.9955 -0.0906
15408TIP3   OH267638   2.632   0.859   4.013  0.2204  0.2214  0.0282
15408TIP3    H167639   2.660   0.951   4.009 -1.1427  0.6938  0.6157
15408TIP3    H267640   2.610   0.836   3.923  0.4603  0.5136 -0.1052
15409TIP3   OH267641   2.486   2.672  14.469 -0.7770 -0.4877 -0.3020
15409TIP3    H167642   2.447   2.641  14.387 -1.6034  2.4211 -1.1223
15409TIP3    H267643   2.413   2.712  14.516  0.7707  4.0461 -1.3356
15410TIP3   OH267644   5.960   1.292   2.853 -0.0830 -0.2591 -0.3254
15410TIP3    H167645   5.943   1.246   2.771 -1.5286 -0.8584  0.2793
15410TIP3    H267646   5.937   1.228   2.921 -1.2754  1.0394  0.5321
15411TIP3   OH267647   3.555   2.016  17.289 -0.3823 -0.6413  0.5427
15411TIP3    H167648   3.603   2.079  17.235 -3.7180  1.3506 -0.3994
15411TIP3    H267649   3.547   2.058  17.374 -2.0611  0.0119  0.1020
15412TIP3   OH267650   0.460   1.499   1.057 -0.4254 -0.1652 -0.6401
15412TIP3    H167651   0.457   1.539   0.969  0.8960  0.1839 -0.5524
15412TIP3    H267652   0.383   1.534   1.101 -0.7990  0.1083 -1.4774
15413TIP3   OH267653   0.266   5.147  13.464  0.2131  0.6113 -0.0290
15413TIP3    H167654   0.294   5.056  13.471 -1.1184  0.2021  0.1971
15413TIP3    H267655   0.348   5.196  13.453  0.8674 -0.7222 -1.4849
15414TIP3   OH267656   3.285   2.032  13.907  0.6677  0.0529  0.2439
15414TIP3    H167657   3.195   2.064  13.919  0.0379 -1.0874 -1.0559
15414TIP3    H267658   3.284   1.992  13.820  2.6267  0.5885 -0.0643
15415TIP3   OH267659   2.110   1.559   5.549  0.4123  0.4708 -0.2558
15415TIP3    H167660   2.119   1.620   5.622  1.3967  0.7114 -0.5588
15415TIP3    H267661   2.183   1.581   5.491 -1.0534  1.1285 -1.9479
15416TIP3   OH267662   3.370   0.652  11.944 -0.3592  0.0455 -0.3455
15416TIP3    H167663   3.322   0.652  11.861 -1.7020 -1.4883  0.3588
15416TIP3    H267664   3.315   0.702  12.004 -0.7474 -1.0775  0.2736
15417TIP3   OH267665   5.169   6.647   2.701  0.5170  0.7812 -0.0351
15417TIP3    H167666   5.189   6.616   2.790 -1.2609 -0.9200 -0.1514
15417TIP3    H267667   5.110   6.580   2.665  2.2793  0.6512 -3.0370
15418TIP3   OH267668   2.212   1.642   3.212 -0.1406  0.3356 -0.2020
15418TIP3    H167669   2.139   1.596   3.254  0.2252  0.8700  1.0796
15418TIP3    H267670   2.171   1.698   3.147 -0.6680 -1.0995 -1.1541
15419TIP3   OH267671   3.084   3.191   4.894  0.1008 -0.0420  0.9662
15419TIP3    H167672   3.033   3.270   4.877  1.4071  0.9288  1.4801
15419TIP3    H267673   3.078   3.141   4.812 -0.2335  0.8726  0.4222
15420TIP3   OH267674   5.868   3.348  17.308 -0.2416  0.1461  0.2617
15420TIP3    H167675   5.955   3.360  17.346 -1.1153  0.2424  2.3687
15420TIP3    H267676   5.872   3.262  17.266  0.3804 -0.6420  1.8579
15421TIP3   OH267677   6.481   1.201  13.715 -0.3009 -0.1269  0.2725
15421TIP3    H167678   6.499   1.174  13.805 -0.7701  2.7017  1.2877
15421TIP3    H267679   6.428   1.280  13.723  0.9277  1.1091 -2.4550
15422TIP3   OH267680   1.533   4.954  13.593  0.2414  0.1871 -0.2554
15422TIP3    H167681   1.628   4.951  13.589  0.2559 -1.9056  0.5394
15422TIP3    H267682   1.513   5.046  13.611  2.1601  0.4818  0.5958
15423TIP3   OH267683   0.807   4.612  15.358  0.1146  0.1004 -0.3430
15423TIP3    H167684   0.769   4.686  15.309  1.2894  0.4078 -0.8182
15423TIP3    H267685   0.900   4.633  15.365 -0.0646  0.3599  2.5364
15424TIP3   OH267686   5.375   3.552  14.639  0.1383  0.3894  0.2638
15424TIP3    H167687   5.386   3.549  14.544  0.6573 -0.3288  0.3351
15424TIP3    H267688   5.280   3.555  14.652  0.0724  2.6793 -0.2926
15425TIP3   OH267689   5.725   3.646   3.707  0.1419 -0.2925 -0.6237
15425TIP3    H167690   5.799   3.589   3.690 -0.1777 -0.3157 -2.1096
15425TIP3    H267691   5.649   3.587   3.707  0.0002 -0.1132 -0.2735
15426TIP3   OH267692   4.963   1.118  14.589  0.1554 -0.2914  0.0360
15426TIP3    H167693   4.975   1.057  14.662  0.3485 -2.0138 -1.3686
15426TIP3    H267694   4.869   1.129  14.581  0.1524  0.4615  0.9550
15427TIP3   OH267695   1.355   0.571  17.180 -0.2602 -0.3256 -0.6458
15427TIP3    H167696   1.442   0.543  17.152  0.1010  0.9962 -0.9090
15427TIP3    H267697   1.350   0.547  17.272  0.9069  0.7457 -0.2749
15428TIP3   OH267698   5.462   0.650  12.179 -0.2013  1.0014 -0.5885
15428TIP3    H167699   5.454   0.584  12.248  0.0247  2.3870  0.8194
15428TIP3    H267700   5.555   0.652  12.158 -0.3430  0.2153 -1.3161
15429TIP3   OH267701   3.662   0.124   3.170 -0.2504 -0.5117  0.2504
15429TIP3    H167702   3.618   0.048   3.133  1.1301 -1.1045 -0.2713
15429TIP3    H267703   3.659   0.190   3.101 -1.6003 -0.0080  0.7668
15430TIP3   OH267704   2.956   1.241   3.690 -0.2019 -0.0434 -0.1298
15430TIP3    H167705   2.971   1.334   3.669  1.2611 -0.2160  0.0547
15430TIP3    H267706   2.863   1.227   3.671 -0.5017  1.5164  0.0622
15431TIP3   OH267707   2.245   4.006   4.475 -0.3406 -0.2006 -0.1039
15431TIP3    H167708   2.265   4.002   4.382 -0.8424  0.1874 -0.2338
15431TIP3    H267709   2.240   4.099   4.494  0.2088 -0.2698  0.4165
15432TIP3   OH267710   1.631   2.886  16.750  0.0821 -0.1540 -0.3392
15432TIP3    H167711   1.562   2.829  16.783 -1.3109  1.6430  0.0097
15432TIP3    H267712   1.684   2.830  16.693 -2.6201 -1.2631 -1.9497
15433TIP3   OH267713   6.118   5.245  11.870  0.6724 -0.1419 -0.2815
15433TIP3    H167714   6.132   5.170  11.928  1.1305 -0.6404 -1.0089
15433TIP3    H267715   6.157   5.319  11.916  2.1729 -0.7589 -0.4707
15434TIP3   OH267716   2.263   3.313  16.194  0.2091 -0.3007 -0.5274
15434TIP3    H167717   2.180   3.274  16.166  0.4910 -1.8644  0.6856
15434TIP3    H267718   2.321   3.239  16.208  0.9842  0.5773  1.2487
15435TIP3   OH267719   6.512   1.339  16.721 -0.3464  0.1176 -0.5660
15435TIP3    H167720   6.476   1.296  16.799  1.1082 -0.2194 -0.0540
15435TIP3    H267721   6.523   1.431  16.747  1.8475 -0.3427  0.2879
15436TIP3   OH267722   2.867   2.165   5.991 -0.0414 -0.0360  0.0627
15436TIP3    H167723   2.919   2.125   6.060 -0.7503  0.7394  1.0796
15436TIP3    H267724   2.778   2.134   6.006 -0.1103 -0.3350 -0.8835
15437TIP3   OH267725   4.358   0.223   2.807 -0.0635  1.1137  0.1010
15437TIP3    H167726   4.402   0.279   2.871  1.0105  0.8126 -0.3466
15437TIP3    H267727   4.427   0.199   2.745 -0.1156 -1.8428  1.0285
15438TIP3   OH267728   3.457   4.317  12.776 -0.5965 -0.2858  0.3873
15438TIP3    H167729   3.451   4.228  12.743  0.1961 -0.1619 -0.1044
15438TIP3    H267730   3.486   4.369  12.701  0.1200  0.1859  0.9753
15439TIP3   OH267731   4.220   3.252   0.565 -0.7214  0.0369 -0.3351
15439TIP3    H167732   4.195   3.194   0.637  1.0851 -0.9042 -0.4019
15439TIP3    H267733   4.281   3.314   0.605  1.3972 -1.3577 -1.2674
15440TIP3   OH267734   3.013   6.719   3.953 -0.8044  0.4181 -0.1332
15440TIP3    H167735   3.002   6.800   3.902 -0.8200  1.2471  1.1499
15440TIP3    H267736   2.945   6.724   4.020  0.0067 -0.0494  0.7289
15441TIP3   OH267737   5.816   1.347  15.290  0.1735  0.3757 -0.2423
15441TIP3    H167738   5.727   1.377  15.270  0.4016  1.2047 -0.0511
15441TIP3    H267739   5.863   1.354  15.207 -0.4174 -1.9408 -0.8417
15442TIP3   OH267740   6.559   1.299  15.074 -0.2857 -0.2051  0.1352
15442TIP3    H167741   6.648   1.323  15.100 -0.1915  0.1351 -0.4691
15442TIP3    H267742   6.572   1.240  14.999 -0.5676  0.0706 -0.1342
15443TIP3   OH267743   0.664   3.040   0.431  0.8892 -0.0553  0.0479
15443TIP3    H167744   0.702   3.036   0.344 -1.4166 -1.6486 -1.0137
15443TIP3    H267745   0.639   3.131   0.443  0.4926  0.0393 -1.3435
15444TIP3   OH267746   2.353   1.340   1.617 -0.1433 -0.0872  0.1755
15444TIP3    H167747   2.319   1.287   1.544 -0.7385  0.8428 -0.2308
15444TIP3    H267748   2.332   1.430   1.593  3.2610  0.6886 -0.4915
15445TIP3   OH267749   3.475   2.429  14.788  0.2803  0.1522 -0.2257
15445TIP3    H167750   3.401   2.372  14.810  1.0850 -0.5680  0.6767
15445TIP3    H267751   3.471   2.436  14.692  0.6677 -2.1739 -0.4832
15446TIP3   OH267752   0.310   0.854   4.276  0.1430  0.2825  0.1566
15446TIP3    H167753   0.336   0.911   4.348  1.4405 -0.5581  0.3787
15446TIP3    H267754   0.340   0.898   4.197 -2.3641  1.8263 -0.0631
15447TIP3   OH267755   4.037   6.192   2.146 -0.1777  0.0670 -0.5133
15447TIP3    H167756   4.129   6.171   2.134  0.0732  0.9628 -0.1969
15447TIP3    H267757   3.995   6.107   2.161  0.7314 -0.2653  0.2721
15448TIP3   OH267758   6.097   4.626   0.445  0.5675 -0.3084 -0.4724
15448TIP3    H167759   6.078   4.593   0.357 -1.3550  0.8545 -0.5657
15448TIP3    H267760   6.029   4.588   0.500  1.2811 -0.3917  0.3651
15449TIP3   OH267761   3.068   2.845   1.293  0.0369 -0.0711 -0.6540
15449TIP3    H167762   2.977   2.873   1.281 -0.3883 -1.5224 -1.0180
15449TIP3    H267763   3.085   2.858   1.386 -1.6096 -2.6624  0.1267
15450TIP3   OH267764   5.259   2.596   3.756  0.0817 -0.7603  0.3521
15450TIP3    H167765   5.199   2.623   3.687 -0.5408 -2.6496  0.1067
15450TIP3    H267766   5.307   2.522   3.719  2.9893  0.9818  0.3524
15451TIP3   OH267767   0.965   1.087   4.232 -0.4262  0.2931 -0.4539
15451TIP3    H167768   1.042   1.031   4.220 -0.1037  1.1279 -2.9476
15451TIP3    H267769   1.002   1.175   4.244 -0.8866  0.9994 -3.4615
15452TIP3   OH267770   4.953   4.866   4.138  0.2240  0.0215  0.4391
15452TIP3    H167771   4.924   4.801   4.201 -1.3555  0.2717  0.0151
15452TIP3    H267772   4.886   4.864   4.069  0.0762  2.1402  0.4661
15453TIP3   OH267773   1.000   1.385  11.005 -0.1963 -0.0490  0.3025
15453TIP3    H167774   1.050   1.448  10.953  0.0346  0.3852  1.0504
15453TIP3    H267775   0.916   1.379  10.960  0.1698 -0.0398 -0.3977
15454TIP3   OH267776   1.810   0.999   2.783  0.1069  0.0183  0.1541
15454TIP3    H167777   1.877   0.980   2.717 -1.7055 -0.7581 -1.5892
15454TIP3    H267778   1.731   0.957   2.749 -1.1666  0.4492  2.3734
15455TIP3   OH267779   1.087   4.585  17.254  0.1192 -0.1288  0.3396
15455TIP3    H167780   1.047   4.540  17.329 -0.7947  0.8141  0.4420
15455TIP3    H267781   1.180   4.588  17.275 -0.2361  1.0252  1.9551
15456TIP3   OH267782   0.401   0.594   1.953 -0.6079 -0.6399  0.0965
15456TIP3    H167783   0.338   0.585   1.881  1.9492  1.5489 -2.7361
15456TIP3    H267784   0.457   0.516   1.946  0.8143  0.4348 -1.7856
15457TIP3   OH267785   0.751   6.126  15.262  0.2667 -0.5116 -0.5368
15457TIP3    H167786   0.677   6.173  15.300 -0.7047 -0.7911 -1.9787
15457TIP3    H267787   0.721   6.102  15.174  2.1983 -0.3608 -1.2807
15458TIP3   OH267788   4.890   3.676  14.536 -0.1824  0.5689  0.2360
15458TIP3    H167789   4.945   3.631  14.600  1.8826  2.3205 -0.1821
15458TIP3    H267790   4.923   3.648  14.451 -0.5064  0.9964 -0.0389
15459TIP3   OH267791   4.270   0.847   1.318  0.0499 -0.6373  1.0139
15459TIP3    H167792   4.274   0.890   1.232  0.5823  0.0799  1.3846
15459TIP3    H267793   4.345   0.788   1.319  0.8613  0.3521  1.4811
15460TIP3   OH267794   6.704   0.702   1.805 -0.1117  0.3227  0.8111
15460TIP3    H167795   6.656   0.623   1.830  0.2555  0.1410  0.9444
15460TIP3    H267796   6.685   0.713   1.711 -0.4355  0.2689  0.8700
15461TIP3   OH267797   5.587   5.205  13.413 -0.0149  0.2903 -0.5448
15461TIP3    H167798   5.519   5.242  13.471  0.3423  0.0897  0.0069
15461TIP3    H267799   5.581   5.110  13.427 -0.8718  0.1206 -1.8958
15462TIP3   OH267800   0.597   0.228   2.547 -0.5632 -0.0668 -0.2848
15462TIP3    H167801   0.635   0.273   2.472  0.4909  2.3485  1.5619
15462TIP3    H267802   0.625   0.137   2.537  1.7294  0.6927 -1.5030
15463TIP3   OH267803   4.753   3.516  14.210 -0.0149  0.5720  0.1313
15463TIP3    H167804   4.706   3.549  14.286  0.0092  0.1423  0.3384
15463TIP3    H267805   4.845   3.518  14.236 -0.1657 -2.0936  1.1592
15464TIP3   OH267806   4.433   1.427  11.794  0.2318  0.4815  0.3473
15464TIP3    H167807   4.394   1.416  11.881 -0.3671  2.7983  0.4398
15464TIP3    H267808   4.358   1.447  11.737  0.7184 -0.1356 -0.5217
15465TIP3   OH267809   2.843   3.788  17.139  0.1460 -0.1009  0.1944
15465TIP3    H167810   2.935   3.805  17.158  0.2125  0.0620 -0.2535
15465TIP3    H267811   2.823   3.707  17.187 -0.1244  1.0760  2.1688
15466TIP3   OH267812   1.909   6.650  17.025 -0.1382 -0.2932 -0.2452
15466TIP3    H167813   1.888   6.707  16.951  0.0573  0.3283  0.1672
15466TIP3    H267814   1.885   6.562  16.995 -1.2792  0.1104 -0.5836
15467TIP3   OH267815   2.205   1.177  15.234 -0.3744  0.2803  0.1218
15467TIP3    H167816   2.250   1.262  15.229 -0.5994  0.4847  1.3979
15467TIP3    H267817   2.127   1.188  15.179  0.5891  0.2406 -1.3211
15468TIP3   OH267818   1.635   2.518  16.680 -0.0152  0.2247 -0.0753
15468TIP3    H167819   1.681   2.475  16.752 -0.1741  0.4517  0.1642
15468TIP3    H267820   1.704   2.567  16.634  0.7632 -2.5459 -2.1246
15469TIP3   OH267821   5.106   2.921   2.667 -0.3334  0.3605 -0.4114
15469TIP3    H167822   5.078   2.831   2.650  0.9199  0.1196 -1.3748
15469TIP3    H267823   5.192   2.912   2.708 -0.1545  1.1099 -0.6044
15470TIP3   OH267824   5.144   1.084  15.913  0.3196  0.3479  0.5220
15470TIP3    H167825   5.055   1.099  15.945 -0.1366 -0.3944 -0.3549
15470TIP3    H267826   5.161   0.991  15.931 -0.0374 -0.1674 -1.4758
15471TIP3   OH267827   6.435   6.240   0.033  0.3353 -0.5002  0.1452
15471TIP3    H167828   6.376   6.164   0.040  1.2102 -1.0472  2.5793
15471TIP3    H267829   6.453   6.248  -0.061 -2.4366 -1.1877 -0.5434
15472TIP3   OH267830   5.963   0.722   3.951  0.4488  0.5679  0.1286
15472TIP3    H167831   6.040   0.769   3.983  0.4228  0.4095  0.4214
15472TIP3    H267832   5.998   0.659   3.888  0.4341  1.3340 -0.6773
15473TIP3   OH267833   5.067   4.537  15.669  0.3433 -0.3451 -0.0512
15473TIP3    H167834   4.997   4.593  15.637  0.6456  0.8920  1.3016
15473TIP3    H267835   5.128   4.598  15.712  1.7805 -1.4819 -0.3966
15474TIP3   OH267836   4.129   0.466  13.922  0.5439 -0.1241 -0.4265
15474TIP3    H167837   4.085   0.544  13.890  0.4471  0.6356  1.4016
15474TIP3    H267838   4.079   0.393  13.886 -1.9359  0.6869  1.1018
15475TIP3   OH267839   5.714   4.360  12.205  0.0245 -0.1464 -0.5139
15475TIP3    H167840   5.772   4.349  12.130 -0.0793 -1.5257 -0.4123
15475TIP3    H267841   5.626   4.360  12.167 -0.0630 -1.5741 -0.3347
15476TIP3   OH267842   0.099   3.553  12.968 -0.9411 -0.6501 -0.3375
15476TIP3    H167843   0.189   3.544  13.000 -0.8572 -1.6791 -0.8305
15476TIP3    H267844   0.098   3.638  12.923 -0.8619  0.4607  1.6501
15477TIP3   OH267845   4.479   0.038   6.575 -0.3572 -0.4624 -0.3323
15477TIP3    H167846   4.483  -0.035   6.514  1.0363 -0.5127 -0.2082
15477TIP3    H267847   4.556   0.091   6.554 -0.0822 -0.2672  1.1141
15478TIP3   OH267848   0.165   2.353   4.256  0.8062 -0.0606  0.2120
15478TIP3    H167849   0.246   2.363   4.205  0.3654 -1.1182 -0.7626
15478TIP3    H267850   0.190   2.298   4.330  0.9313 -0.6580 -0.2608
15479TIP3   OH267851   1.094   4.036   4.359 -0.0435 -0.3146 -0.2354
15479TIP3    H167852   1.130   4.038   4.448  0.4741  0.2173 -0.4443
15479TIP3    H267853   1.162   3.995   4.306 -0.4529 -0.8582 -0.3510
15480TIP3   OH267854   1.255   2.234  16.405  0.3562  0.2660  0.1433
15480TIP3    H167855   1.317   2.304  16.424  0.1647  1.2714 -2.5227
15480TIP3    H267856   1.180   2.253  16.462  1.7749 -0.0823  2.2631
15481TIP3   OH267857   0.931   4.788   0.475 -0.6769 -0.5902  0.1248
15481TIP3    H167858   0.907   4.822   0.561 -0.5617 -0.4513  0.1016
15481TIP3    H267859   1.015   4.744   0.488 -0.8562 -0.9208  0.1678
15482TIP3   OH267860   1.921   4.597  11.913  0.0828 -0.0795  0.2474
15482TIP3    H167861   1.893   4.538  11.982 -1.8457 -0.7684 -1.0337
15482TIP3    H267862   1.870   4.676  11.926 -0.1327 -0.1325 -0.2413
15483TIP3   OH267863   3.979   2.160  13.683 -0.4436 -0.5151  0.1079
15483TIP3    H167864   4.024   2.213  13.748  1.1237  2.2383 -2.9380
15483TIP3    H267865   3.891   2.149  13.718 -0.1231  2.0900  2.0310
15484TIP3   OH267866   6.636   0.314  16.923  0.3717  0.7493  0.3027
15484TIP3    H167867   6.697   0.346  16.857 -0.4674 -0.3182 -1.0557
15484TIP3    H267868   6.662   0.358  17.004 -0.7344  4.9683 -1.3688
15485TIP3   OH267869   5.712   3.114  13.539 -0.2630 -0.3082  0.1017
15485TIP3    H167870   5.759   3.137  13.619 -1.3280  0.8930  0.4270
15485TIP3    H267871   5.780   3.096  13.475  0.6111 -0.6985  1.1096
15486TIP3   OH267872   2.473   6.671   0.505  0.0242 -0.2334  0.4703
15486TIP3    H167873   2.509   6.666   0.417 -0.8691 -0.2184  0.0964
15486TIP3    H267874   2.392   6.620   0.502 -1.4208  1.9109  0.5402
15487TIP3   OH267875   4.113   2.348   2.426  0.6736 -0.0212  0.6472
15487TIP3    H167876   4.164   2.332   2.505 -0.8873 -1.4721  1.4461
15487TIP3    H267877   4.040   2.403   2.455  0.3844 -0.1145  0.1160
15488TIP3   OH267878   4.103   2.291   3.764 -0.0027  0.1436 -0.5528
15488TIP3    H167879   4.121   2.383   3.779  0.9088 -0.4185  2.4217
15488TIP3    H267880   4.010   2.281   3.786  0.0517  0.2262 -0.2949
15489TIP3   OH267881   2.102   6.481   4.838  0.2740 -0.1065  0.3760
15489TIP3    H167882   2.026   6.466   4.781  1.4933 -1.9667 -0.8679
15489TIP3    H267883   2.079   6.439   4.921 -0.3690  0.0562  0.2841
15490TIP3   OH267884   2.730   5.400   0.324 -0.2318 -0.3420 -0.2605
15490TIP3    H167885   2.651   5.347   0.335 -1.2474  1.2622  0.5827
15490TIP3    H267886   2.800   5.349   0.364 -0.8438 -1.7377 -0.9189
15491TIP3   OH267887   0.867   4.473  13.647  0.3500  0.4217  0.6588
15491TIP3    H167888   0.794   4.530  13.669  0.0707  0.8798 -1.2950
15491TIP3    H267889   0.893   4.500  13.559  0.3716 -2.2926 -0.2495
15492TIP3   OH267890   1.621   3.959   5.382 -0.5116 -0.4066  0.6718
15492TIP3    H167891   1.598   3.866   5.380  0.7994 -0.7404 -0.5590
15492TIP3    H267892   1.592   3.992   5.297 -0.4657  0.1876  0.8840
15493TIP3   OH267893   3.312   5.036   1.925 -0.3253  0.3226  0.1142
15493TIP3    H167894   3.249   5.106   1.908  0.0739  0.3015 -1.6439
15493TIP3    H267895   3.377   5.044   1.855  1.0214 -0.3636  1.2186
15494TIP3   OH267896   4.902   5.091   2.777  0.1485 -0.2447  0.6183
15494TIP3    H167897   4.866   5.098   2.689 -0.0113 -0.5492  0.6564
15494TIP3    H267898   4.857   5.160   2.827  0.3698  0.0439  0.4212
15495TIP3   OH267899   5.954   1.069   0.027 -0.4055 -0.3284  0.2072
15495TIP3    H167900   5.880   1.009   0.040 -1.8704  1.4417  0.4318
15495TIP3    H267901   5.929   1.148   0.074  1.5124  0.4399  0.0019
15496TIP3   OH267902   6.020   3.463  16.513  0.1846 -0.3081  0.1549
15496TIP3    H167903   6.036   3.514  16.434  0.6692 -0.3632  0.2181
15496TIP3    H267904   5.924   3.463  16.523  0.1470  0.0187 -0.2167
15497TIP3   OH267905   2.064   2.737  12.378 -0.6583  0.5309 -0.2854
15497TIP3    H167906   2.119   2.766  12.451  0.6124  1.0566 -1.4079
15497TIP3    H267907   2.033   2.817  12.337 -0.8484  0.2501 -0.7009
15498TIP3   OH267908   1.404   4.651  16.466  0.9122 -0.1457 -0.7929
15498TIP3    H167909   1.437   4.564  16.443 -1.2731 -1.8873  1.9963
15498TIP3    H267910   1.340   4.672  16.398  1.9794 -0.3485 -1.8860
15499TIP3   OH267911   1.939   5.511   3.584  0.0789  0.3147 -0.0479
15499TIP3    H167912   1.930   5.523   3.489 -0.3826  2.0066  0.1896
15499TIP3    H267913   1.849   5.513   3.617  0.2092 -0.6419  0.4081
15500TIP3   OH267914   1.546   3.812  15.772 -0.6770 -0.1450 -0.0833
15500TIP3    H167915   1.576   3.882  15.714 -1.2668 -0.3690 -0.6733
15500TIP3    H267916   1.613   3.744  15.765  0.0999  0.4950  0.7897
15501TIP3   OH267917   4.524   5.166  12.554 -0.0789  0.3498 -0.3752
15501TIP3    H167918   4.520   5.070  12.548 -1.9029  0.3812 -0.1297
15501TIP3    H267919   4.472   5.187  12.631  0.0747  1.5659 -0.5881
15502TIP3   OH267920   3.755   1.438  14.813 -0.2561  0.1439 -0.2405
15502TIP3    H167921   3.760   1.342  14.816 -0.0704  0.1627  0.1938
15502TIP3    H267922   3.764   1.465  14.905 -2.7070  0.4541 -0.0124
15503TIP3   OH267923   1.794   2.497  11.097 -0.3268  0.2175 -0.1291
15503TIP3    H167924   1.851   2.428  11.062 -1.0690 -0.1696 -0.5864
15503TIP3    H267925   1.762   2.543  11.020 -0.7987  0.3065  0.1210
15504TIP3   OH267926   6.137   0.780  15.736 -0.1885  0.3235  0.3177
15504TIP3    H167927   6.083   0.831  15.797 -2.3715  0.5001 -1.6456
15504TIP3    H267928   6.196   0.844  15.697 -0.2961  0.6164  0.6243
15505TIP3   OH267929   0.364   4.863  15.631 -0.1795  0.0336 -0.6155
15505TIP3    H167930   0.315   4.925  15.686 -0.4819 -0.3217 -0.4733
15505TIP3    H267931   0.360   4.780  15.680  1.4538  0.2311 -0.0932
15506TIP3   OH267932   6.574   3.189   0.541 -0.4039  0.0527 -0.9373
15506TIP3    H167933   6.517   3.164   0.468  0.6072  1.0488 -2.0964
15506TIP3    H267934   6.661   3.157   0.516 -0.2543 -0.6867  0.4199
15507TIP3   OH267935   5.017   6.478   2.081  0.1155 -0.1873  0.2278
15507TIP3    H167936   5.028   6.573   2.087  0.7346 -0.2996  1.0413
15507TIP3    H267937   5.107   6.444   2.078 -0.0124 -0.8778  2.5108
15508TIP3   OH267938   3.192   1.202   4.730  0.1286  0.0934  0.8114
15508TIP3    H167939   3.207   1.243   4.645  1.3077  0.5056  1.1891
15508TIP3    H267940   3.105   1.164   4.724 -0.8254  2.2310  0.2738
15509TIP3   OH267941   5.915   5.428   3.161 -0.5173  0.4743 -0.5897
15509TIP3    H167942   5.943   5.519   3.160  0.2971  0.2296 -1.0711
15509TIP3    H267943   5.973   5.386   3.224 -0.0911  0.0504 -1.2530
15510TIP3   OH267944   1.131   1.019   3.578 -0.5297  0.4292 -0.1361
15510TIP3    H167945   1.125   1.103   3.534 -0.5774  0.2036 -0.5612
15510TIP3    H267946   1.042   1.000   3.607 -0.8190 -0.1757 -1.3534
15511TIP3   OH267947   6.220   5.140   0.256  0.4792 -0.0952  0.3064
15511TIP3    H167948   6.308   5.152   0.294  0.8842 -0.3512 -0.5356
15511TIP3    H267949   6.224   5.054   0.215 -0.5594 -0.6364  1.2811
15512TIP3   OH267950   3.463   2.824   1.989  0.6472  0.0068 -0.0021
15512TIP3    H167951   3.523   2.803   2.060  0.8064  0.0986 -0.1084
15512TIP3    H267952   3.391   2.870   2.031  0.8300  0.2272  0.0756
15513TIP3   OH267953   3.146   2.985  17.277 -0.0825  0.2504 -0.2890
15513TIP3    H167954   3.143   3.069  17.232 -0.3543  0.7142  0.5828
15513TIP3    H267955   3.072   2.987  17.338  0.1854 -0.4315  0.0748
15514TIP3   OH267956   2.208   4.260  13.410 -0.4704  0.1778 -0.4486
15514TIP3    H167957   2.261   4.313  13.470 -0.6718  0.5055 -0.5537
15514TIP3    H267958   2.254   4.264  13.327  0.1624 -0.8295 -0.1548
15515TIP3   OH267959   2.417   4.606  15.481 -0.2201  0.1425  0.0714
15515TIP3    H167960   2.452   4.517  15.480 -0.4578  0.0292  0.8870
15515TIP3    H267961   2.486   4.659  15.522  1.0132  0.8478 -2.7052
15516TIP3   OH267962   6.324   3.731   0.811 -0.0474 -0.0373  0.0764
15516TIP3    H167963   6.417   3.721   0.831 -0.0129  0.1888  0.0239
15516TIP3    H267964   6.283   3.655   0.852  0.4518 -1.4368 -1.8724
15517TIP3   OH267965   0.522   5.242  10.784  0.0566  0.0692 -0.3749
15517TIP3    H167966   0.592   5.191  10.827  0.6240 -0.5236 -1.9441
15517TIP3    H267967   0.449   5.181  10.777 -0.8623  0.8276  1.6988
15518TIP3   OH267968   4.401   1.349   4.753  0.2011  0.3375  0.7086
15518TIP3    H167969   4.461   1.393   4.692 -0.5409  0.3604 -0.0278
15518TIP3    H267970   4.457   1.290   4.804  0.8908  0.5768  0.2401
15519TIP3   OH267971   3.130   4.945  14.758  0.2508 -0.0583  0.2025
15519TIP3    H167972   3.079   4.996  14.695  1.1808 -0.2196 -0.7017
15519TIP3    H267973   3.119   4.854  14.729  0.3620 -0.1703  0.5113
15520TIP3   OH267974   1.218   1.075  15.264  0.1082  0.1033  0.6654
15520TIP3    H167975   1.206   1.026  15.345  0.2532 -0.4662  0.3460
15520TIP3    H267976   1.245   1.162  15.293 -1.7383  0.5227  1.3108
15521TIP3   OH267977   4.246   1.313   5.139 -0.1670 -0.0976 -0.3884
15521TIP3    H167978   4.333   1.278   5.118  0.3098  1.3377 -0.8952
15521TIP3    H267979   4.208   1.336   5.054 -0.9472 -0.4660 -0.1473
15522TIP3   OH267980   6.362   4.453   1.427  0.3079 -0.0159 -0.0443
15522TIP3    H167981   6.413   4.533   1.444  1.8165 -0.9566  0.0558
15522TIP3    H267982   6.348   4.415   1.514 -2.5542  1.3171  0.1997
15523TIP3   OH267983   4.870   4.157   1.612  0.3420  0.4550 -0.8674
15523TIP3    H167984   4.867   4.062   1.620  0.2372  0.6026  1.2917
15523TIP3    H267985   4.832   4.175   1.526 -0.7301 -1.3772 -0.8265
15524TIP3   OH267986   2.241   5.282   1.658 -0.3666  0.1755  0.1129
15524TIP3    H167987   2.304   5.350   1.635  0.2194  0.2616  1.8952
15524TIP3    H267988   2.157   5.327   1.659 -0.4234  0.2023 -1.5897
15525TIP3   OH267989   1.920   3.849  11.148 -0.1179  0.3511 -0.4227
15525TIP3    H167990   1.948   3.883  11.063 -1.7635  1.1049 -0.6914
15525TIP3    H267991   1.976   3.894  11.211 -0.0144  1.0532 -1.0034
15526TIP3   OH267992   1.872   2.646  14.596  0.1398  0.3331  0.0087
15526TIP3    H167993   1.847   2.616  14.683 -1.2738 -2.6954 -1.2929
15526TIP3    H267994   1.815   2.721  14.579 -0.5106  0.1244  1.1710
15527TIP3   OH267995   5.002   3.222   5.293  0.0140 -0.0570 -0.1419
15527TIP3    H167996   5.096   3.217   5.311  0.2189 -0.1805 -1.1922
15527TIP3    H267997   4.993   3.298   5.235 -0.8616  1.4833  1.9080
15528TIP3   OH267998   0.128   2.171  12.340  0.7097 -0.2890  0.0565
15528TIP3    H167999   0.114   2.186  12.434 -0.3250  0.9799 -0.2672
15528TIP3    H268000   0.040   2.155  12.306  0.9648  0.1881 -0.8415
15529TIP3   OH268001   2.632   4.707   0.845 -0.4839 -0.1700  0.3808
15529TIP3    H168002   2.590   4.780   0.799  0.7909  0.8845  0.8294
15529TIP3    H268003   2.697   4.674   0.783 -0.6804 -0.5862  0.3895
15530TIP3   OH268004   2.824   6.588   1.085 -0.3001 -0.2974 -0.5423
15530TIP3    H168005   2.873   6.544   1.016  1.4979 -1.1426  1.1829
15530TIP3    H268006   2.883   6.657   1.115  0.0359 -1.4834  1.7452
15531TIP3   OH268007   3.547   1.403   1.710  0.4812  0.4880 -0.6178
15531TIP3    H168008   3.557   1.336   1.644  0.7123 -1.7101  1.5207
15531TIP3    H268009   3.461   1.386   1.750  0.3338  1.7551 -0.3141
15532TIP3   OH268010   4.436   6.661   4.090  0.6545  0.5201  0.0582
15532TIP3    H168011   4.516   6.714   4.083  1.1913 -0.1444  1.0639
15532TIP3    H268012   4.366   6.726   4.097  1.2961  1.1116  1.2168
15533TIP3   OH268013   4.426   1.557  12.334  0.1836  0.6205 -0.4024
15533TIP3    H168014   4.513   1.517  12.332 -0.4472 -0.8004 -0.3284
15533TIP3    H268015   4.381   1.518  12.259 -0.7027  0.6072  0.1314
15534TIP3   OH268016   6.053   3.233  16.901  0.1850  0.8610  0.3535
15534TIP3    H168017   6.047   3.251  16.807  1.4410 -0.2911  0.0262
15534TIP3    H268018   5.968   3.195  16.924 -1.2244  3.7208  0.3440
15535TIP3   OH268019   6.635   3.473  16.848  0.0619 -0.1665  0.0225
15535TIP3    H168020   6.618   3.394  16.899 -0.9904 -1.4207 -2.1141
15535TIP3    H268021   6.569   3.536  16.878  0.2021 -0.4587  0.9765
15536TIP3   OH268022   3.975   4.193  16.901  0.4950 -0.1276 -0.0268
15536TIP3    H168023   4.025   4.162  16.977  1.2001 -1.5301 -1.0138
15536TIP3    H268024   4.021   4.272  16.873  0.0792  0.5437  1.1415
15537TIP3   OH268025   1.368   2.765   4.971  0.2128 -0.0895  0.1695
15537TIP3    H168026   1.299   2.715   4.928 -0.2176  1.7141 -1.3703
15537TIP3    H268027   1.334   2.781   5.059 -0.6907 -0.4536 -0.1028
15538TIP3   OH268028   3.993   6.312   3.819  0.2784 -0.4523  0.2246
15538TIP3    H168029   4.022   6.255   3.890  1.0586 -0.4991 -0.1196
15538TIP3    H268030   4.030   6.274   3.740  0.0045 -0.0075 -0.1279
15539TIP3   OH268031   3.315   1.396   5.998 -0.0727  0.1957 -0.1900
15539TIP3    H168032   3.295   1.320   5.944 -0.7872  1.7812 -2.3058
15539TIP3    H268033   3.323   1.361   6.087 -1.4905 -2.1686 -0.9017
15540TIP3   OH268034   5.092   6.166  16.439  0.2299 -0.1385  0.0195
15540TIP3    H168035   5.134   6.192  16.522  1.2032  0.2489 -0.5755
15540TIP3    H268036   5.158   6.113  16.394  1.0647  2.3605 -1.9564
15541TIP3   OH268037   5.125   4.026   3.521 -0.6692  0.4308 -0.0888
15541TIP3    H168038   5.070   3.972   3.577 -2.1834  1.1452 -0.8108
15541TIP3    H268039   5.144   4.104   3.573 -2.2564  1.1946 -0.5602
15542TIP3   OH268040   1.105   3.818   2.831  0.0717 -0.0881 -0.0773
15542TIP3    H168041   1.033   3.788   2.775 -0.8591  0.4412  0.7763
15542TIP3    H268042   1.178   3.833   2.772 -0.0592 -1.9879 -0.8047
15543TIP3   OH268043   4.453   4.493   3.384 -0.0700  0.1315 -0.6070
15543TIP3    H168044   4.504   4.521   3.308  0.7551 -1.7336 -0.7851
15543TIP3    H268045   4.518   4.461   3.446 -0.9450 -1.5864 -0.5211
15544TIP3   OH268046   3.794   4.085   4.077  0.2131  0.5033  0.7152
15544TIP3    H168047   3.739   4.042   4.143 -0.6144  1.9346  0.9967
15544TIP3    H268048   3.829   4.013   4.025 -1.2448 -0.5117  1.0731
15545TIP3   OH268049   5.004   2.899  14.830  0.0219  0.4215  0.5348
15545TIP3    H168050   4.990   2.869  14.740  1.0171  1.7675 -0.0985
15545TIP3    H268051   5.004   2.818  14.882  3.7801 -0.9260 -1.2176
15546TIP3   OH268052   2.168   3.828   0.958 -0.3531  0.1923  0.4997
15546TIP3    H168053   2.103   3.758   0.950 -0.4655  0.5189 -2.4342
15546TIP3    H268054   2.115   3.908   0.962 -0.1671  0.2799  1.3996
15547TIP3   OH268055   5.395   5.567   4.869  0.6061 -0.7317 -0.1047
15547TIP3    H168056   5.422   5.494   4.813  0.4603  0.0346 -1.2089
15547TIP3    H268057   5.304   5.584   4.843  0.1609 -1.0898  1.1719
15548TIP3   OH268058   1.910   6.004  16.132  0.0752  0.3647  0.4282
15548TIP3    H168059   2.001   5.975  16.126 -0.0012  0.2791 -0.5035
15548TIP3    H268060   1.876   5.960  16.210  0.4806 -0.6079  0.0725
15549TIP3   OH268061   1.732   2.956  13.766 -0.0369  0.1559 -0.2493
15549TIP3    H168062   1.783   3.032  13.739  0.7823 -0.1103  0.5092
15549TIP3    H268063   1.648   2.993  13.796  1.1396  1.0551  2.2489
15550TIP3   OH268064   3.994   0.076  13.650 -0.2565  0.3702  0.4006
15550TIP3    H168065   4.039   0.141  13.596 -1.4481  0.0552 -1.0512
15550TIP3    H268066   3.915   0.055  13.600 -0.2492 -1.6727  1.1659
15551TIP3   OH268067   6.616   4.618  14.048 -0.0633 -0.3990 -0.0793
15551TIP3    H168068   6.635   4.682  13.980  0.1982  1.0685  1.3316
15551TIP3    H268069   6.528   4.640  14.079  0.5042  0.1098  1.2610
15552TIP3   OH268070   4.612   1.324  16.821  0.1497  1.0246  0.0182
15552TIP3    H168071   4.614   1.419  16.808  0.0749  0.8323 -1.5568
15552TIP3    H268072   4.593   1.288  16.735 -1.0006 -0.3828  0.8079
15553TIP3   OH268073   0.473   1.863   5.271  0.1085  0.5394  0.0503
15553TIP3    H168074   0.410   1.799   5.305  2.8310 -2.3675  0.0991
15553TIP3    H268075   0.500   1.913   5.348 -0.3693  0.2109  0.4395
15554TIP3   OH268076   1.469   1.715   4.691 -0.4361  0.0294 -0.4289
15554TIP3    H168077   1.564   1.701   4.695 -0.2950  1.1519  1.4250
15554TIP3    H268078   1.431   1.630   4.712  0.2700  0.3149  2.4322
15555TIP3   OH268079   3.122   0.885   5.906 -0.3465  0.0343 -0.1379
15555TIP3    H168080   3.038   0.869   5.949  0.9883 -1.9111  1.9455
15555TIP3    H268081   3.107   0.963   5.853 -2.7778  1.2224  2.0842
15556TIP3   OH268082   3.576   5.179   5.166  0.6635 -0.1255  0.2244
15556TIP3    H168083   3.528   5.167   5.248 -1.6004 -0.5666 -1.0813
15556TIP3    H268084   3.645   5.113   5.169  1.1207  0.3805  2.0837
15557TIP3   OH268085   4.712   2.278   4.413 -0.1536  0.0745 -0.3672
15557TIP3    H168086   4.719   2.199   4.358  2.1702 -0.8672  1.1236
15557TIP3    H268087   4.787   2.332   4.387 -0.6891  0.9703 -0.0904
15558TIP3   OH268088   4.060   3.815  11.165 -0.0009 -0.0023  0.0991
15558TIP3    H168089   4.046   3.725  11.136 -0.2095 -0.1314  0.5901
15558TIP3    H268090   3.972   3.853  11.170  0.0898  0.2490 -0.1602
15559TIP3   OH268091   1.146   5.073  12.686 -0.0764 -0.0134 -0.0178
15559TIP3    H168092   1.145   5.097  12.594 -0.0499 -2.1236 -0.6156
15559TIP3    H268093   1.057   5.043  12.704  0.1237 -0.3665  0.4185
15560TIP3   OH268094   5.381   2.802  15.968 -0.2428 -0.4089 -0.1015
15560TIP3    H168095   5.335   2.732  16.015 -0.9078  1.0499  1.5040
15560TIP3    H268096   5.397   2.869  16.034  1.0238  0.6595 -1.4458
15561TIP3   OH268097   1.298   3.059   3.530 -0.4885 -0.1043  0.2981
15561TIP3    H168098   1.357   3.098   3.465 -0.2822 -0.1935  0.4311
15561TIP3    H268099   1.327   2.969   3.539 -0.1462  0.0632  0.9368
15562TIP3   OH268100   1.972   2.410  16.375  0.0427 -1.0967 -0.5137
15562TIP3    H168101   1.933   2.336  16.328 -1.8872 -0.7836  0.5006
15562TIP3    H268102   1.995   2.374  16.461 -0.4996 -0.6444 -0.1716
15563TIP3   OH268103   0.049   3.263   2.095 -0.4074  0.1478 -0.2184
15563TIP3    H168104   0.128   3.308   2.067 -1.0700  0.4498 -1.7645
15563TIP3    H268105  -0.022   3.312   2.054 -1.4171 -0.0267  1.2488
15564TIP3   OH268106   5.811   1.196   3.346  0.2294 -0.2846 -0.1280
15564TIP3    H168107   5.802   1.148   3.428 -1.1698  0.7158  0.3307
15564TIP3    H268108   5.905   1.193   3.327  0.7023  0.1293  1.9057
15565TIP3   OH268109   4.414   4.161  13.311 -0.0240 -0.3816 -0.2129
15565TIP3    H168110   4.474   4.226  13.276  0.3097 -0.3740  0.3739
15565TIP3    H268111   4.407   4.181  13.404  0.7167 -1.6774  0.1386
15566TIP3   OH268112   2.948   0.717   3.812 -0.1237 -0.5951 -0.0436
15566TIP3    H168113   2.946   0.748   3.902  0.0909  0.6217 -0.4308
15566TIP3    H268114   2.858   0.691   3.793 -0.5047  0.6036  0.0467
15567TIP3   OH268115   6.336   3.041  14.938 -0.1673  0.2260 -0.2548
15567TIP3    H168116   6.274   3.006  15.002 -0.7128  3.5296  1.2161
15567TIP3    H268117   6.389   2.965  14.913 -2.3362 -1.9624  1.2740
15568TIP3   OH268118   4.692   6.435  14.802  0.1145 -0.7150 -0.2330
15568TIP3    H168119   4.682   6.496  14.730  0.2966 -0.3677  0.0318
15568TIP3    H268120   4.719   6.489  14.876 -0.4839 -1.0005  0.2073
15569TIP3   OH268121   2.630   3.567   0.313  0.0638  0.0714  0.3585
15569TIP3    H168122   2.563   3.581   0.380  1.0323 -1.1777  1.6581
15569TIP3    H268123   2.705   3.533   0.362 -0.0923 -3.6912 -1.6302
15570TIP3   OH268124   5.079   1.792   4.042  0.5244 -0.4368  0.6610
15570TIP3    H168125   5.103   1.710   4.086  0.4502 -1.5797 -1.3444
15570TIP3    H268126   4.994   1.815   4.080  0.9946 -0.7123  1.9550
15571TIP3   OH268127   5.021   0.644   3.360  0.4004 -0.6616 -0.0058
15571TIP3    H168128   4.965   0.584   3.311 -0.3431 -0.6539  0.7932
15571TIP3    H268129   5.106   0.601   3.363  0.2316 -1.0469 -0.5712
15572TIP3   OH268130   1.159   5.936   4.965  0.2487  0.2874  0.0436
15572TIP3    H168131   1.084   5.948   4.907 -1.4886 -1.7147  1.7183
15572TIP3    H268132   1.219   5.881   4.915 -1.2293 -1.4266  0.0643
15573TIP3   OH268133   6.417   2.982   4.359 -0.2049 -0.0590  0.2226
15573TIP3    H168134   6.461   2.899   4.375  0.2332  0.4613  1.9272
15573TIP3    H268135   6.486   3.048   4.367 -0.2538  0.4412 -2.4881
15574TIP3   OH268136   0.153   5.321  16.745 -0.2476 -0.4232 -0.4486
15574TIP3    H168137   0.131   5.230  16.766 -0.7882 -0.1958 -0.0031
15574TIP3    H268138   0.086   5.373  16.789 -0.0073  0.1905 -0.7915
15575TIP3   OH268139   0.011   2.075  11.423  0.5254  0.4653  0.0405
15575TIP3    H168140  -0.069   2.053  11.471  0.3612  0.9682 -0.0016
15575TIP3    H268141   0.020   2.005  11.358  1.2353 -0.7397  1.3736
15576TIP3   OH268142   4.776   5.075   1.795 -0.4203  0.4663  0.8705
15576TIP3    H168143   4.720   5.153   1.801 -2.4153 -0.5942 -1.6917
15576TIP3    H268144   4.865   5.109   1.792 -1.2687  2.9342 -1.8668
15577TIP3   OH268145   3.038   5.731   6.627  0.8365  0.1376  0.1169
15577TIP3    H168146   3.063   5.693   6.711 -1.0227  0.7094  0.9659
15577TIP3    H268147   3.059   5.824   6.636  1.4979  0.0526 -0.4265
15578TIP3   OH268148   5.354   0.453  11.342 -0.0404  0.1617 -0.2500
15578TIP3    H168149   5.354   0.470  11.248  1.1819 -2.0997 -0.7312
15578TIP3    H268150   5.444   0.430  11.363 -0.7978 -2.2158  0.8338
15579TIP3   OH268151   3.655   3.968   4.760  0.1834  0.2648  0.4895
15579TIP3    H168152   3.601   3.896   4.728 -1.0156  1.6481 -0.8288
15579TIP3    H268153   3.685   3.940   4.846 -1.9986 -0.9284  0.9441
15580TIP3   OH268154   3.459   4.518  14.976  0.1310  0.4227 -0.7591
15580TIP3    H168155   3.524   4.585  14.996 -1.8866  2.2621  0.1122
15580TIP3    H268156   3.416   4.550  14.896 -2.2188  1.3453  0.7764
15581TIP3   OH268157   6.653   3.325   4.099 -0.6378  0.0130  1.3073
15581TIP3    H168158   6.702   3.405   4.119 -2.1146  0.9707  1.2446
15581TIP3    H268159   6.563   3.343   4.128 -1.2347 -1.2342  0.3621
15582TIP3   OH268160   4.930   2.321   2.982  0.0834  0.3121  0.0021
15582TIP3    H168161   5.001   2.263   3.008  0.0707  0.0023 -0.6666
15582TIP3    H268162   4.856   2.263   2.964 -0.6551  0.6794  1.6165
15583TIP3   OH268163   6.561   6.113  12.392 -0.0386 -0.3414 -0.1589
15583TIP3    H168164   6.605   6.198  12.391  1.2531 -0.9920 -0.9708
15583TIP3    H268165   6.469   6.134  12.406  0.2612  1.1928 -0.3135
15584TIP3   OH268166   0.593   5.727   1.140 -0.1740 -0.1907  0.2985
15584TIP3    H168167   0.604   5.704   1.232  0.6747 -0.4424  0.1424
15584TIP3    H268168   0.545   5.810   1.141  0.2940  0.0753  0.9800
15585TIP3   OH268169   4.202   4.037  11.614 -0.0333 -0.4243 -0.4435
15585TIP3    H168170   4.195   4.033  11.519  0.5000  2.1285 -0.6426
15585TIP3    H268171   4.257   3.962  11.637 -0.5467 -1.3445 -2.0650
15586TIP3   OH268172   5.905   2.137  15.178 -0.0203 -0.3975 -0.1727
15586TIP3    H168173   5.993   2.111  15.153  0.0414 -1.4019  1.0019
15586TIP3    H268174   5.879   2.075  15.246 -1.5329  0.0387 -0.2957
15587TIP3   OH268175   1.265   4.821  14.823 -0.1946 -0.5910  0.4353
15587TIP3    H168176   1.187   4.876  14.825  0.3516  0.4833 -2.7220
15587TIP3    H268177   1.336   4.882  14.801  1.3509 -1.7765  1.8875
15588TIP3   OH268178   0.886   2.629   5.338 -0.3388  0.4096 -0.6668
15588TIP3    H168179   0.935   2.552   5.311  0.3258  0.0860  1.2694
15588TIP3    H268180   0.815   2.638   5.274 -0.2632 -1.6423 -1.0769
15589TIP3   OH268181   1.707   1.742  16.475  0.0250 -0.5198  0.1996
15589TIP3    H168182   1.732   1.834  16.479  0.6288 -0.6553 -0.2178
15589TIP3    H268183   1.791   1.695  16.477 -0.1305 -0.9809 -1.7198
15590TIP3   OH268184   2.424   4.145  14.058 -0.4686  0.6205 -0.3733
15590TIP3    H168185   2.439   4.177  14.147 -1.5908 -1.0896  0.4794
15590TIP3    H268186   2.332   4.164  14.041 -0.1641  1.2976 -1.3519
15591TIP3   OH268187   0.151   5.058  15.719  0.5175 -0.1189 -0.7274
15591TIP3    H168188   0.155   5.152  15.700  2.0205 -0.4294 -2.1973
15591TIP3    H268189   0.112   5.019  15.640 -0.4944 -0.7076  0.0398
15592TIP3   OH268190   3.572   1.269   3.334 -0.6666  0.1501  0.0762
15592TIP3    H168191   3.545   1.210   3.263  0.5419 -1.4593  0.8909
15592TIP3    H268192   3.546   1.223   3.414 -1.5396  1.6983  0.7374
15593TIP3   OH268193   2.202   0.696   5.385 -0.3331  0.3431 -0.5926
15593TIP3    H168194   2.141   0.753   5.338 -0.3610  1.8698  1.1813
15593TIP3    H268195   2.148   0.625   5.419 -0.8024  0.7412 -0.5010
15594TIP3   OH268196   5.407   5.452  13.336 -0.0710 -0.0477  0.4004
15594TIP3    H168197   5.443   5.373  13.295  0.0423  0.7406 -1.1167
15594TIP3    H268198   5.313   5.435  13.341  0.0374 -0.5728  0.8065
15595TIP3   OH268199   2.573   6.600   5.726 -0.5825 -0.4243 -0.1015
15595TIP3    H168200   2.584   6.582   5.819  0.3921 -1.2804 -0.3612
15595TIP3    H268201   2.500   6.543   5.699 -1.4206  0.4348  0.2873
15596TIP3   OH268202   1.617   1.870  12.664  0.4090  0.0982  0.1415
15596TIP3    H168203   1.681   1.924  12.712 -0.4302 -0.3341  1.8425
15596TIP3    H268204   1.665   1.791  12.640  0.6958  0.0567  0.8273
15597TIP3   OH268205   4.100   6.356   0.516  0.4966 -0.1610  0.1947
15597TIP3    H168206   4.097   6.261   0.517 -2.4805 -0.1657  1.2962
15597TIP3    H268207   4.182   6.378   0.560 -0.2722 -2.2659  2.9636
15598TIP3   OH268208   4.002   0.458   0.302 -0.8318  0.3568 -0.6095
15598TIP3    H168209   4.090   0.452   0.264 -0.6974  0.2984 -0.2967
15598TIP3    H268210   4.018   0.468   0.396 -1.0965  2.4331 -0.7283
15599TIP3   OH268211   5.132   1.576   3.493  0.5049  0.2831 -0.1585
15599TIP3    H168212   5.225   1.574   3.517  0.5250  3.0678  0.3782
15599TIP3    H268213   5.089   1.618   3.567 -1.5902 -2.5845  0.4540
15600TIP3   OH268214   3.893   0.467  10.929  0.1675 -0.3571 -0.2101
15600TIP3    H168215   3.966   0.420  10.888 -0.8009 -1.6382 -0.5517
15600TIP3    H268216   3.933   0.518  10.999  1.1259 -3.3029  1.5631
15601TIP3   OH268217   2.109   3.429   1.173 -0.4896  0.2727  0.4235
15601TIP3    H168218   2.153   3.512   1.188 -2.1883  0.8576  2.5593
15601TIP3    H268219   2.085   3.397   1.260  0.0821 -2.4714 -0.3190
15602TIP3   OH268220   0.661   4.058   6.787  0.2148  0.2007 -0.0568
15602TIP3    H168221   0.616   4.059   6.871  0.2704  1.9043 -0.0229
15602TIP3    H268222   0.754   4.054   6.809  0.1987 -0.6655 -0.0875
15603TIP3   OH268223   3.815   4.597   0.273 -0.0211 -0.0107 -0.1393
15603TIP3    H168224   3.832   4.644   0.355  0.2707 -0.4170  0.0352
15603TIP3    H268225   3.776   4.514   0.301 -0.7604  0.2138 -0.4575
15604TIP3   OH268226   5.269   6.345   1.984 -0.0113  0.4737 -0.3372
15604TIP3    H168227   5.336   6.332   1.916  0.7081 -0.6764  0.5453
15604TIP3    H268228   5.234   6.257   2.000 -0.2878  0.7502  0.6528
15605TIP3   OH268229   1.995   3.849  12.802 -0.0010  0.2461  0.3474
15605TIP3    H168230   2.000   3.850  12.706 -0.9865  1.7897  0.2615
15605TIP3    H268231   2.034   3.766  12.828 -2.7840 -1.8708 -1.5826
15606TIP3   OH268232   5.922   1.123   5.165  0.4233  0.3200 -0.2407
15606TIP3    H168233   5.989   1.114   5.232  0.8279  0.4167 -0.6256
15606TIP3    H268234   5.890   1.213   5.174  2.1163  1.1236 -1.6679
15607TIP3   OH268235   3.945   3.771   0.118 -0.5198 -0.4448 -0.1906
15607TIP3    H168236   3.982   3.770   0.206 -3.2764  0.7890  1.1056
15607TIP3    H268237   3.885   3.696   0.117  1.3496 -2.0469 -2.0209
15608TIP3   OH268238   3.236   4.299   3.469  0.1663 -0.8397  0.8234
15608TIP3    H168239   3.224   4.298   3.563  1.0075  0.2180  0.9732
15608TIP3    H268240   3.296   4.226   3.451  1.0399 -0.2518  1.2887
15609TIP3   OH268241   2.777   6.226  13.882  0.0147  0.1970  0.0445
15609TIP3    H168242   2.845   6.171  13.843 -3.5771 -4.1028 -1.0485
15609TIP3    H268243   2.769   6.194  13.972 -0.0710  1.2198  0.4167
15610TIP3   OH268244   2.790   0.795   2.859  0.0453 -0.2005  0.1840
15610TIP3    H168245   2.772   0.798   2.765  2.0333 -0.6544 -0.2744
15610TIP3    H268246   2.849   0.869   2.874  0.8328 -0.9282  0.7796
15611TIP3   OH268247   4.706   5.330  13.696 -0.2877  0.0591 -0.6362
15611TIP3    H168248   4.640   5.324  13.627 -0.2304  1.9242 -0.8964
15611TIP3    H268249   4.770   5.393  13.663  1.9683 -2.0640 -0.6131
15612TIP3   OH268250   2.995   4.226   6.941  0.0581  0.5502 -0.2918
15612TIP3    H168251   3.008   4.167   6.866  0.8124  1.2614 -0.7273
15612TIP3    H268252   3.072   4.213   6.996 -0.8262 -0.5012  0.7560
15613TIP3   OH268253   3.082   3.540  14.362 -0.1320 -0.0152  0.1916
15613TIP3    H168254   3.153   3.600  14.385  0.3267 -0.6592  0.4566
15613TIP3    H268255   3.029   3.534  14.441  1.3141 -2.0447  1.0773
15614TIP3   OH268256   0.453   0.640  14.125 -0.4819 -0.3935 -0.1075
15614TIP3    H168257   0.479   0.627  14.216  0.5429  1.5709 -0.0544
15614TIP3    H268258   0.379   0.701  14.129 -0.9420 -0.9131 -0.5639
15615TIP3   OH268259   4.661   6.329  15.946  0.2572  0.6147  0.0528
15615TIP3    H168260   4.737   6.320  15.889  0.6891 -0.1537  0.7226
15615TIP3    H268261   4.616   6.244  15.939 -0.6000  1.0979 -0.4205
15616TIP3   OH268262   4.327   5.667  14.601  0.0488 -0.3169  0.5565
15616TIP3    H168263   4.239   5.662  14.638  0.0507 -0.1997  0.5784
15616TIP3    H268264   4.317   5.720  14.522 -0.1886 -1.6509 -0.3500
15617TIP3   OH268265   6.485   3.332  12.688 -0.2288 -1.0015  0.5199
15617TIP3    H168266   6.560   3.272  12.700  0.1229 -0.5919  0.4014
15617TIP3    H268267   6.472   3.333  12.593  0.7007  0.2223  0.3806
15618TIP3   OH268268   0.111   5.484   1.571  0.1565  0.2856 -0.6539
15618TIP3    H168269   0.170   5.535   1.516  0.2856 -0.3929 -1.1633
15618TIP3    H268270   0.024   5.505   1.538 -0.0726  2.5957  1.1885
15619TIP3   OH268271   1.406   5.212   4.207 -0.3736 -0.3105  0.2077
15619TIP3    H168272   1.455   5.144   4.161 -1.6191 -0.1122 -1.4954
15619TIP3    H268273   1.335   5.165   4.250 -0.3220 -0.2580  0.3518
15620TIP3   OH268274   1.307   6.415  12.838 -0.1479  0.3377  0.5561
15620TIP3    H168275   1.388   6.452  12.803 -0.8397  1.7895  0.4577
15620TIP3    H268276   1.275   6.357  12.769  0.1560  0.7305  0.0850
15621TIP3   OH268277   5.563   2.428   1.574  0.0694  1.0950 -0.1818
15621TIP3    H168278   5.497   2.359   1.572  0.3980  0.6158  2.3113
15621TIP3    H268279   5.645   2.383   1.553  0.4508  0.4067  2.4543
15622TIP3   OH268280   6.646   0.493   6.419 -0.1787  0.7041 -0.0866
15622TIP3    H168281   6.600   0.463   6.497  0.0213 -1.0049 -0.5891
15622TIP3    H268282   6.734   0.457   6.429  0.9158  3.2606  0.4815
15623TIP3   OH268283   4.598   2.574  13.220  0.2580 -0.5852  0.4089
15623TIP3    H168284   4.547   2.532  13.289 -0.4028  0.1595  0.3877
15623TIP3    H268285   4.542   2.646  13.190  0.9377 -0.3278 -0.2515
15624TIP3   OH268286   3.361   0.636   0.577  0.0171  0.0229  0.0121
15624TIP3    H168287   3.315   0.615   0.659  0.6939 -0.9620  0.1558
15624TIP3    H268288   3.393   0.726   0.591 -1.0084  0.3596  0.2898
15625TIP3   OH268289   3.948   6.251   0.761  0.4973 -0.2836 -0.5160
15625TIP3    H168290   3.968   6.184   0.826  2.9018  1.0472  0.2369
15625TIP3    H268291   3.995   6.329   0.792 -0.7009  1.2345 -2.3122
15626TIP3   OH268292   0.871   1.138  13.915  0.5608 -0.7065  0.1504
15626TIP3    H168293   0.853   1.066  13.975 -0.1818  0.2506  1.1309
15626TIP3    H268294   0.812   1.208  13.944  1.7661  0.5415 -0.3002
15627TIP3   OH268295   0.021   4.524   1.104 -0.3606  0.1267 -0.4379
15627TIP3    H168296   0.073   4.446   1.086  0.5901  0.2815  1.3951
15627TIP3    H268297   0.012   4.567   1.019  0.9320 -0.8551 -1.1168
15628TIP3   OH268298   5.488   3.351   1.582 -0.3346 -0.2024  0.1613
15628TIP3    H168299   5.453   3.430   1.542 -0.4888  0.1255  0.9261
15628TIP3    H268300   5.550   3.383   1.648 -1.4031 -0.6616  1.4325
15629TIP3   OH268301   1.476   4.238   2.840  0.1021  0.1050  0.3598
15629TIP3    H168302   1.488   4.300   2.912 -0.9061  0.8919 -0.1188
15629TIP3    H268303   1.425   4.166   2.878 -0.8964  0.7747  0.3246
15630TIP3   OH268304   4.513   2.829  17.132 -0.5523 -0.2021  0.0175
15630TIP3    H168305   4.433   2.875  17.158 -0.3517 -0.4059  1.0387
15630TIP3    H268306   4.484   2.766  17.066 -1.2926 -0.4737  0.5803
15631TIP3   OH268307   2.916   5.637  11.309 -0.4086  0.2561 -0.0607
15631TIP3    H168308   2.975   5.651  11.236 -1.7614 -1.2323 -1.5269
15631TIP3    H268309   2.913   5.721  11.354  0.9345  1.0364 -1.3464
15632TIP3   OH268310   6.582   3.199   2.304 -0.2780 -0.4690 -0.3254
15632TIP3    H168311   6.617   3.175   2.390 -0.7064 -4.0512 -0.9802
15632TIP3    H268312   6.659   3.220   2.252  0.1707 -0.3009  0.3881
15633TIP3   OH268313   6.384   5.197   1.148 -0.0882 -0.3387 -0.1469
15633TIP3    H168314   6.461   5.146   1.123 -0.6903 -0.8966 -0.9106
15633TIP3    H268315   6.310   5.150   1.109 -0.8946 -0.2143  1.1896
15634TIP3   OH268316   5.193   0.614   2.180 -0.1164  0.3098 -0.9192
15634TIP3    H168317   5.128   0.659   2.126 -1.3508 -0.0290  0.2312
15634TIP3    H268318   5.144   0.545   2.225  0.6243  1.2040  1.3924
15635TIP3   OH268319   4.993   5.803   3.272 -0.1171 -1.2643 -0.4450
15635TIP3    H168320   4.912   5.820   3.319  0.2831  0.8248 -0.3822
15635TIP3    H268321   5.043   5.884   3.281  0.5441 -1.2345 -3.3506
15636TIP3   OH268322   3.055   1.427  16.866  0.0252 -0.2428 -0.6728
15636TIP3    H168323   3.004   1.356  16.904 -0.8734  0.6871 -0.0731
15636TIP3    H268324   3.140   1.421  16.909 -0.0855 -0.8891 -0.5414
15637TIP3   OH268325   6.624   4.075   5.297  0.3563 -0.2154  0.4009
15637TIP3    H168326   6.569   4.006   5.259  0.0717  1.2668 -2.1327
15637TIP3    H268327   6.647   4.042   5.384 -1.3926 -2.5795  0.0823
15638TIP3   OH268328   3.293   1.162  14.463 -0.5596  0.1964  0.2908
15638TIP3    H168329   3.205   1.125  14.470 -0.5877 -0.4286 -2.2880
15638TIP3    H268330   3.280   1.256  14.459 -1.6181  0.0610 -3.6728
15639TIP3   OH268331   5.028   4.946   0.977 -0.1212 -0.1998  1.2844
15639TIP3    H168332   4.951   4.902   1.013  0.6056 -2.3740  0.3070
15639TIP3    H268333   5.089   4.876   0.956  1.6022  1.3727  0.7562
15640TIP3   OH268334   2.646   2.711   4.510  0.3034  0.1033 -0.0134
15640TIP3    H168335   2.617   2.751   4.592  0.9156 -1.7354  1.1536
15640TIP3    H268336   2.740   2.697   4.521 -0.0870 -3.0206  0.3375
15641TIP3   OH268337   4.301   2.521  16.467 -0.0622 -0.5880 -0.3764
15641TIP3    H168338   4.262   2.514  16.380 -1.2687 -0.5699  0.1308
15641TIP3    H268339   4.268   2.605  16.501 -0.3005 -0.9896  0.4093
15642TIP3   OH268340   1.476   4.262  16.932  0.5527 -0.4448  0.4431
15642TIP3    H168341   1.421   4.210  16.991 -1.1663 -1.5384 -1.9601
15642TIP3    H268342   1.547   4.202  16.907 -0.4122 -1.1074 -0.8806
15643TIP3   OH268343   0.915   3.417  13.992  0.1377  0.3887  0.2462
15643TIP3    H168344   0.847   3.466  14.039  0.1972  0.6836  0.0253
15643TIP3    H268345   0.997   3.456  14.021  0.2908 -0.7817  1.4619
15644TIP3   OH268346   1.638   0.856   0.653  0.3633  0.3017 -0.8259
15644TIP3    H168347   1.629   0.763   0.676  1.5025  0.7191  1.6348
15644TIP3    H268348   1.727   0.863   0.619  0.5117  0.6012 -0.3756
15645TIP3   OH268349   4.157   2.094  14.861 -0.5595  0.4396  0.2625
15645TIP3    H168350   4.250   2.111  14.876 -0.6225  0.7204  0.3409
15645TIP3    H268351   4.114   2.123  14.941 -1.0288  3.0528 -0.8299
15646TIP3   OH268352   0.467   5.320   5.339 -0.4108  0.5562  0.1276
15646TIP3    H168353   0.521   5.390   5.377 -0.6058  0.5065  0.5046
15646TIP3    H268354   0.417   5.286   5.413 -1.5370  1.1111 -0.3528
15647TIP3   OH268355   3.454   2.195  12.821  0.4195 -0.3346 -0.2211
15647TIP3    H168356   3.467   2.231  12.734 -0.0379 -1.0770 -0.6065
15647TIP3    H268357   3.399   2.259  12.866  0.0808 -0.2801 -0.7051
15648TIP3   OH268358   1.324   1.860   3.147  0.1788 -0.0615  1.1355
15648TIP3    H168359   1.252   1.865   3.084  0.0464 -0.5971  1.2410
15648TIP3    H268360   1.348   1.768   3.148  0.8160  0.1010  1.1645
15649TIP3   OH268361   6.501   1.572   2.144 -0.3876  0.4116  0.0369
15649TIP3    H168362   6.486   1.642   2.207 -0.2687 -0.5806  1.1966
15649TIP3    H268363   6.417   1.560   2.101 -0.4862  1.0472  0.0418
15650TIP3   OH268364   3.903   2.002  15.003 -0.1736  0.0810 -0.2113
15650TIP3    H168365   3.959   1.939  15.047 -1.5465 -2.2539 -1.6170
15650TIP3    H268366   3.889   2.071  15.068  2.9536  0.0028  0.7059
15651TIP3   OH268367   2.055   0.945  15.351  0.3150 -1.0409  0.2343
15651TIP3    H168368   2.000   0.958  15.428 -0.3998 -1.5145 -0.1930
15651TIP3    H268369   2.136   0.992  15.372 -0.0606 -0.7430  1.0634
15652TIP3   OH268370   2.554   2.836  16.653 -0.0233 -0.4649 -0.5436
15652TIP3    H168371   2.515   2.904  16.598 -1.5117 -0.7365  0.1539
15652TIP3    H268372   2.636   2.876  16.685 -2.1482  2.2051  2.1556
15653TIP3   OH268373   3.169   6.534  17.064 -0.0641 -0.6994  0.3318
15653TIP3    H168374   3.257   6.494  17.066 -0.1969 -1.0076  2.5414
15653TIP3    H268375   3.110   6.460  17.052 -0.0588 -0.5497 -0.6533
15654TIP3   OH268376   2.329   2.984   1.235  0.1867  0.0671 -0.5504
15654TIP3    H168377   2.366   2.912   1.184  2.0988 -0.1110  0.9769
15654TIP3    H268378   2.361   2.969   1.324  0.0139  2.3823 -0.0420
15655TIP3   OH268379   0.156   2.029   3.639  0.0781  0.4510  0.3416
15655TIP3    H168380   0.145   1.935   3.655  0.3182  0.1946 -0.9007
15655TIP3    H268381   0.214   2.058   3.710  1.6462 -0.7607 -0.3721
15656TIP3   OH268382   1.276   5.681   1.134 -0.4522 -0.1780 -0.2741
15656TIP3    H168383   1.284   5.765   1.180 -0.1637  0.3436 -1.2532
15656TIP3    H268384   1.366   5.647   1.132 -0.2466  0.3946 -1.5237
15657TIP3   OH268385   2.441   3.753   2.724  0.3330  0.0522  0.0483
15657TIP3    H168386   2.534   3.735   2.710  0.3862 -0.5036  0.9834
15657TIP3    H268387   2.404   3.762   2.636  1.5747  1.9998 -0.3238
15658TIP3   OH268388   4.409   5.511  13.671 -0.6463 -0.6915  0.3994
15658TIP3    H168389   4.496   5.491  13.708 -0.5199  0.6146  0.8578
15658TIP3    H268390   4.426   5.531  13.579 -0.0921  1.7316  0.9609
15659TIP3   OH268391   0.824   5.048   3.940 -0.2109  0.5502  0.4782
15659TIP3    H168392   0.733   5.046   3.910  0.2428  0.5954 -0.9786
15659TIP3    H268393   0.875   5.029   3.862  0.9842 -0.9879  1.5750
15660TIP3   OH268394   3.280   0.225  13.489  0.7507 -0.5639  0.6544
15660TIP3    H168395   3.287   0.184  13.403 -0.7820 -0.5134  0.4784
15660TIP3    H268396   3.338   0.301  13.484 -0.4103  0.2796 -0.8714
15661TIP3   OH268397   4.571   2.648   3.835  0.4634 -0.3837  0.0687
15661TIP3    H168398   4.657   2.687   3.821  0.3182 -0.4794 -1.1588
15661TIP3    H268399   4.565   2.578   3.771  0.1840 -1.5910  1.3559
15662TIP3   OH268400   5.200   0.632  12.869  0.2703 -0.1382 -0.0167
15662TIP3    H168401   5.268   0.625  12.801  1.4161  0.0284  1.0748
15662TIP3    H268402   5.248   0.624  12.951 -1.1723 -0.9224  0.7759
15663TIP3   OH268403   0.328   4.590   0.447 -0.2291 -0.7400  0.1735
15663TIP3    H168404   0.390   4.662   0.456 -1.4050  0.9329 -3.2519
15663TIP3    H268405   0.356   4.544   0.367 -2.8063 -0.4251 -1.0193
15664TIP3   OH268406   3.510   1.639   0.742  0.4092  0.4852 -0.1443
15664TIP3    H168407   3.460   1.625   0.661 -0.7217 -0.8424  0.7376
15664TIP3    H268408   3.447   1.623   0.812  2.0075 -1.0335  1.0189
15665TIP3   OH268409   0.823   6.166   2.172 -0.0362 -0.4763 -0.2114
15665TIP3    H168410   0.868   6.183   2.090  0.7382 -0.2962  0.2335
15665TIP3    H268411   0.792   6.076   2.166  0.2684 -0.5541 -0.5818
15666TIP3   OH268412   4.062   5.120   4.005 -0.0510 -0.5513  0.2038
15666TIP3    H168413   4.020   5.185   4.062  1.5711  1.7242 -1.0368
15666TIP3    H268414   3.990   5.065   3.974 -1.5554  0.8401  1.0679
15667TIP3   OH268415   1.551   2.262  17.042 -0.1486  0.2146  0.6122
15667TIP3    H168416   1.492   2.202  16.996  0.1757 -0.5878  1.2103
15667TIP3    H268417   1.515   2.349  17.025 -1.0071 -0.1953  0.2509
15668TIP3   OH268418   6.346   0.716   1.450  0.3355  0.0623  0.0450
15668TIP3    H168419   6.305   0.798   1.423  0.9140  0.0193 -1.0037
15668TIP3    H268420   6.303   0.648   1.398  0.4865 -0.2002  0.2580
15669TIP3   OH268421   2.064   2.576  16.168 -0.1977  0.7309  1.0478
15669TIP3    H168422   2.031   2.524  16.241 -0.5678  1.3783  1.3466
15669TIP3    H268423   1.986   2.617  16.130  0.0094  0.5319  0.3859
15670TIP3   OH268424   0.289   4.898  12.883  0.3646 -0.2335  0.1387
15670TIP3    H168425   0.372   4.918  12.841  1.3596 -0.8566  1.7030
15670TIP3    H268426   0.275   4.805  12.867 -0.2163 -0.0547 -0.4162
15671TIP3   OH268427   3.220   5.453   1.266 -0.5044 -0.2542 -0.3639
15671TIP3    H168428   3.126   5.439   1.258 -1.0326  2.6407 -0.3154
15671TIP3    H268429   3.255   5.429   1.180 -0.8970 -3.2590  0.2084
15672TIP3   OH268430   1.735   1.765   1.000 -0.4996  0.1493  0.1045
15672TIP3    H168431   1.813   1.760   1.056 -0.7889  2.2980  0.8053
15672TIP3    H268432   1.770   1.764   0.911  0.2961  0.4234  0.4032
15673TIP3   OH268433   1.681   2.109  14.072  0.0767  0.4004  0.1345
15673TIP3    H168434   1.645   2.188  14.033  0.4680 -1.1438 -3.7862
15673TIP3    H268435   1.774   2.109  14.048  0.1624 -1.0683  0.3187
15674TIP3   OH268436   2.937   0.721  12.217  0.1481  0.1000  0.6139
15674TIP3    H168437   2.960   0.641  12.172 -1.1885 -0.3917  0.7530
15674TIP3    H268438   2.962   0.791  12.157  0.5996 -0.4432  0.1600
15675TIP3   OH268439   5.116   4.983  12.157 -0.0949  0.0196  0.3111
15675TIP3    H168440   5.157   5.024  12.082 -0.1007  0.1176  0.3604
15675TIP3    H268441   5.103   5.055  12.219 -1.7737  0.3196 -0.3225
15676TIP3   OH268442   6.600   3.090   3.949 -0.7428  0.0945  0.3751
15676TIP3    H168443   6.613   3.181   3.976 -0.1373 -0.0644  0.6456
15676TIP3    H268444   6.629   3.039   4.025 -0.1338 -0.3372 -0.1343
15677TIP3   OH268445   4.637   0.673   3.545 -0.1733 -0.3707 -0.2141
15677TIP3    H168446   4.692   0.621   3.604  0.1155 -1.0594 -1.0649
15677TIP3    H268447   4.563   0.615   3.523 -1.5781  0.7403  1.3587
15678TIP3   OH268448   6.445   4.141  11.186  0.3148 -0.4241 -1.3753
15678TIP3    H168449   6.527   4.111  11.148  0.4705 -0.2948 -1.1419
15678TIP3    H268450   6.385   4.146  11.111  0.3165 -1.1896 -1.4427
15679TIP3   OH268451   0.970   1.298  15.474  0.3887 -0.3927 -0.2633
15679TIP3    H168452   1.056   1.269  15.443 -0.0378  0.4441 -2.3990
15679TIP3    H268453   0.931   1.344  15.399 -1.2746  0.6694  1.1629
15680TIP3   OH268454   0.787   1.881  16.737 -0.2471  0.0654  0.1668
15680TIP3    H168455   0.751   1.886  16.648 -0.3252 -0.1795  0.1836
15680TIP3    H268456   0.809   1.972  16.759 -2.7796  0.5731  0.9289
15681TIP3   OH268457   5.405   0.171   0.004 -0.1286  0.0143 -0.2505
15681TIP3    H168458   5.495   0.203   0.007 -0.6417  1.4495  1.2993
15681TIP3    H268459   5.351   0.246   0.030 -1.5171 -1.6237  2.0153
15682TIP3   OH268460   2.815   3.798  10.839  0.3985  0.0014 -0.3233
15682TIP3    H168461   2.852   3.884  10.861  1.9257 -0.2886 -1.5812
15682TIP3    H268462   2.763   3.814  10.760  0.9994 -0.2893 -0.7826
15683TIP3   OH268463   2.816   1.582   0.548  0.2322 -0.1261 -0.7150
15683TIP3    H168464   2.825   1.572   0.453 -0.2029 -0.8365 -0.6886
15683TIP3    H268465   2.728   1.620   0.559  1.0193  1.7904 -0.6873
15684TIP3   OH268466   3.614   5.020  13.033 -0.2571  0.1151 -0.2133
15684TIP3    H168467   3.708   5.036  13.023 -0.5092  2.4480  0.5584
15684TIP3    H268468   3.582   5.010  12.943  0.7117 -0.8480 -0.4786
15685TIP3   OH268469   3.893   1.106   2.952  0.0164  0.0141  0.4032
15685TIP3    H168470   3.942   1.182   2.985 -1.0280  1.7346 -1.7613
15685TIP3    H268471   3.934   1.086   2.868 -0.2136 -1.3958  0.5992
15686TIP3   OH268472   4.343   4.986   1.081  0.2603  0.0546 -0.9069
15686TIP3    H168473   4.295   5.068   1.089 -0.1549  0.2812 -4.1373
15686TIP3    H268474   4.435   5.010   1.091  0.0157  0.5135  0.2921
15687TIP3   OH268475   3.774   2.103  11.290  0.1839 -0.7533  0.1040
15687TIP3    H168476   3.796   2.194  11.269  0.7383 -1.0273 -0.5443
15687TIP3    H268477   3.834   2.051  11.236 -0.7941 -1.5091 -0.2647
15688TIP3   OH268478   1.231   4.267   3.574  0.0565 -0.4219 -0.5381
15688TIP3    H168479   1.261   4.178   3.592  1.0041  0.1511  0.8977
15688TIP3    H268480   1.184   4.293   3.653  0.6798  0.7205 -0.5227
15689TIP3   OH268481   0.585   6.306   5.228 -0.3086 -0.0873 -0.6618
15689TIP3    H168482   0.543   6.360   5.296 -2.0062 -0.4234 -1.3989
15689TIP3    H268483   0.580   6.217   5.261  1.5179  0.0198  0.0539
15690TIP3   OH268484   6.135   4.570   0.154 -0.6697 -0.5184 -0.3387
15690TIP3    H168485   6.217   4.551   0.200 -0.4129  3.1370  0.9872
15690TIP3    H268486   6.161   4.581   0.063  0.8382  2.4500  0.3123
15691TIP3   OH268487   6.449   2.097   0.151  0.1067  0.1044 -0.3394
15691TIP3    H168488   6.450   2.004   0.131 -0.6572  0.1725 -0.7341
15691TIP3    H268489   6.358   2.123   0.140  0.1251  0.6994  0.7201
15692TIP3   OH268490   3.787   2.470   2.067 -0.2100 -0.2146 -0.0703
15692TIP3    H168491   3.783   2.427   1.982 -1.2702 -1.3122  0.5101
15692TIP3    H268492   3.799   2.563   2.046  1.2555 -0.6557 -1.3622
15693TIP3   OH268493   6.073   3.952   5.414  0.0867 -0.1550 -0.1135
15693TIP3    H168494   6.054   3.861   5.438 -0.4567 -0.2561 -0.8743
15693TIP3    H268495   5.987   3.990   5.395  0.3481  0.3940 -0.2155
15694TIP3   OH268496   4.008   0.180   5.118  0.1867 -0.5665 -0.0224
15694TIP3    H168497   3.973   0.178   5.207 -0.2928  0.0814 -0.1898
15694TIP3    H268498   3.930   0.182   5.062  0.4395  1.7660 -0.3912
15695TIP3   OH268499   0.527   1.916  17.031  0.3829  0.0481  0.2331
15695TIP3    H168500   0.524   1.842  16.970  0.7424  0.0359  0.2319
15695TIP3    H268501   0.444   1.911  17.078 -0.8988  1.3097 -1.7551
15696TIP3   OH268502   0.554   2.582  13.840 -0.1655 -0.3101 -0.0365
15696TIP3    H168503   0.523   2.649  13.779 -0.6479 -0.9324 -0.4808
15696TIP3    H268504   0.578   2.508  13.784 -3.0170 -1.8731  0.6451
15697TIP3   OH268505   2.881   1.652  12.215  0.0365  0.0581 -0.0527
15697TIP3    H168506   2.963   1.606  12.198 -0.2670  0.0533 -1.5744
15697TIP3    H268507   2.890   1.734  12.167  0.6091  1.7174  2.6880
15698TIP3   OH268508   1.823   3.348   2.213  0.0140  0.4831 -0.3271
15698TIP3    H168509   1.736   3.332   2.176 -0.0364  2.7101 -1.2677
15698TIP3    H268510   1.833   3.279   2.279 -3.2126  1.2119  1.0875
15699TIP3   OH268511   0.072   5.170   0.875  0.3674 -0.0961  0.2556
15699TIP3    H168512   0.065   5.081   0.841 -0.8115  0.0749  0.0269
15699TIP3    H268513   0.043   5.163   0.966  1.5589 -0.1746  0.6520
15700TIP3   OH268514   4.942   4.207  15.179  0.0857 -0.3227  0.1624
15700TIP3    H168515   4.930   4.126  15.129 -1.0104 -0.2409  0.2768
15700TIP3    H268516   5.029   4.197  15.219  1.2696 -0.1160 -2.2015
15701TIP3   OH268517   1.337   0.086   2.666  0.0415 -0.1151  0.8339
15701TIP3    H168518   1.383   0.021   2.720 -1.3089 -0.2375  1.8747
15701TIP3    H268519   1.289   0.140   2.728 -0.2115  0.8250 -0.1429
15702TIP3   OH268520   6.730   3.402  16.577  0.3661  0.2974  0.1093
15702TIP3    H168521   6.822   3.424  16.593  0.7270 -0.9108 -0.1807
15702TIP3    H268522   6.688   3.411  16.662  0.4564  2.1187 -0.0033
15703TIP3   OH268523   3.801   1.083  11.895  0.2393 -0.1354  0.2492
15703TIP3    H168524   3.760   1.170  11.888 -0.2730 -0.3737  0.2553
15703TIP3    H268525   3.731   1.026  11.926  1.2029 -0.0488  2.8161
15704TIP3   OH268526   5.448   5.042   2.134  0.0114 -0.0476  0.1329
15704TIP3    H168527   5.509   5.116   2.134 -0.6356  0.5518  1.8352
15704TIP3    H268528   5.503   4.965   2.126  0.7437  0.5834 -1.1919
15705TIP3   OH268529   0.671   2.255  17.270 -0.0805  0.1696  0.1650
15705TIP3    H168530   0.643   2.193  17.337 -1.5851  0.0420 -0.5353
15705TIP3    H268531   0.737   2.208  17.220 -0.4341 -0.4938  0.3010
15706TIP3   OH268532   3.242   5.574   4.237  0.4885  0.2478  0.0195
15706TIP3    H168533   3.154   5.581   4.200  0.8695  0.9049 -0.8119
15706TIP3    H268534   3.255   5.656   4.285 -0.6316 -1.2601  3.1775
15707TIP3   OH268535   3.120   6.725   1.781 -0.1224 -0.1036 -0.1392
15707TIP3    H168536   3.161   6.706   1.696 -0.4106 -1.0409 -0.0803
15707TIP3    H268537   3.186   6.775   1.829 -0.0723  0.7110 -1.0247
15708TIP3   OH268538   3.645   1.572   5.341  0.4921 -0.3194 -0.3360
15708TIP3    H168539   3.695   1.526   5.274  1.8920  0.3730  0.1980
15708TIP3    H268540   3.575   1.617   5.292 -1.1720 -3.2122 -0.8412
15709TIP3   OH268541   2.153   3.691   1.584  0.1175 -0.0033 -0.2846
15709TIP3    H168542   2.200   3.699   1.501  1.1047 -0.9661  0.1474
15709TIP3    H268543   2.061   3.678   1.559  0.3296  0.2158 -1.2069
15710TIP3   OH268544   1.101   1.311  16.039 -0.0425 -0.0440 -0.4052
15710TIP3    H168545   1.131   1.402  16.045 -1.7808  0.4964  0.7938
15710TIP3    H268546   1.181   1.261  16.022  1.2982  1.4850  0.9743
15711TIP3   OH268547   4.920   6.483   1.519  0.1552 -0.2249  0.0169
15711TIP3    H168548   4.897   6.570   1.487 -1.5593 -0.3060  0.8910
15711TIP3    H268549   5.010   6.491   1.550  1.5796  0.0961 -3.7249
15712TIP3   OH268550   1.787   3.657  10.657 -0.3463  0.2610 -0.4793
15712TIP3    H168551   1.855   3.592  10.637  0.8252  1.8912 -2.0637
15712TIP3    H268552   1.830   3.720  10.715 -1.4015 -0.1723  0.8448
15713TIP3   OH268553   2.942   0.559  15.128  0.0185 -0.4687  0.1065
15713TIP3    H168554   3.006   0.623  15.161 -1.0292  0.7507 -0.1256
15713TIP3    H268555   2.928   0.585  15.037  0.0342 -1.4254 -0.1698
15714TIP3   OH268556   0.852   3.635  15.961  0.2199  0.3608  0.2466
15714TIP3    H168557   0.928   3.691  15.980  0.0192  1.0710 -0.9700
15714TIP3    H268558   0.887   3.546  15.960  0.6707  0.4958  1.5443
15715TIP3   OH268559   6.095   2.916   3.165 -0.1699  0.2075 -0.1719
15715TIP3    H168560   6.032   2.897   3.095 -1.4998  1.4241  0.6352
15715TIP3    H268561   6.117   2.830   3.201 -0.2149 -0.3565 -1.4276
15716TIP3   OH268562   5.969   0.770   3.066  0.0980  0.4026 -0.0718
15716TIP3    H168563   6.064   0.777   3.073  0.3113 -0.4068 -1.6541
15716TIP3    H268564   5.949   0.684   3.105 -0.2310  1.3080  1.8669
15717TIP3   OH268565   3.742   1.817   5.412 -0.1000 -0.2062  0.0124
15717TIP3    H168566   3.713   1.726   5.409 -1.2421  0.1794 -1.7607
15717TIP3    H268567   3.838   1.811   5.405 -0.0374 -1.2943  1.2791
15718TIP3   OH268568   2.515   4.415   3.663  0.4097 -0.3637  0.1034
15718TIP3    H168569   2.538   4.493   3.712  0.7379  0.2978 -1.0775
15718TIP3    H268570   2.598   4.368   3.651 -0.0222 -1.9185  2.4281
15719TIP3   OH268571   4.198   5.901   2.385 -0.4975 -0.1690 -0.1644
15719TIP3    H168572   4.258   5.975   2.399 -0.6576 -0.0198 -0.2704
15719TIP3    H268573   4.167   5.878   2.473  1.4933 -1.7484  0.2011
15720TIP3   OH268574   2.310   2.923   3.461  0.1303 -0.4267  0.1298
15720TIP3    H168575   2.251   2.868   3.409  0.9008 -0.6115 -0.5791
15720TIP3    H268576   2.279   3.012   3.445  0.3180 -0.4831 -0.6234
15721TIP3   OH268577   3.735   1.108  12.218  0.2526  0.1641  0.7859
15721TIP3    H168578   3.656   1.084  12.171  1.0961  0.5872 -0.9332
15721TIP3    H268579   3.717   1.196  12.251  0.0475  0.3296  0.2493
15722TIP3   OH268580   5.238   3.771  11.527  0.0308 -0.2981  0.1002
15722TIP3    H168581   5.214   3.792  11.437  0.2314  2.0264  0.5457
15722TIP3    H268582   5.329   3.743  11.522  1.1026  2.8812 -0.1249
15723TIP3   OH268583   0.845   2.251  10.903  0.2774 -0.3239 -0.0657
15723TIP3    H168584   0.921   2.281  10.854  0.1370  0.2000  0.0315
15723TIP3    H268585   0.874   2.249  10.994  0.1466 -0.0197 -0.0158
15724TIP3   OH268586   2.990   3.083  14.323 -0.4282 -0.4005 -0.5590
15724TIP3    H168587   2.998   2.987  14.327 -4.0044 -1.0914 -4.0240
15724TIP3    H268588   3.057   3.110  14.262 -0.4504 -0.9326 -0.8255
15725TIP3   OH268589   1.061   5.355   5.758 -0.3481  0.2808 -0.0583
15725TIP3    H168590   1.038   5.316   5.674  0.8614 -0.0291 -0.2755
15725TIP3    H268591   0.980   5.395   5.790 -1.0347 -0.3677 -0.9475
15726TIP3   OH268592   2.548   4.144   0.773  0.4221 -0.1539 -0.2851
15726TIP3    H168593   2.520   4.064   0.816  1.8879 -1.4058 -1.5363
15726TIP3    H268594   2.467   4.191   0.752 -0.4373 -1.1230  0.7801
15727TIP3   OH268595   2.504   3.449   6.077  0.1305  0.1812  0.1496
15727TIP3    H168596   2.556   3.491   6.145  0.0552  0.5301 -0.0071
15727TIP3    H268597   2.497   3.358   6.105 -0.9373  0.5853  1.2467
15728TIP3   OH268598   6.280   6.333  12.847 -0.0457 -0.1049 -0.0708
15728TIP3    H168599   6.185   6.332  12.837  0.0325  0.4274 -0.9208
15728TIP3    H268600   6.296   6.406  12.908 -0.2006 -0.3981  0.3243
15729TIP3   OH268601   5.009   6.172   5.306 -0.1160  0.2159 -0.3658
15729TIP3    H168602   4.931   6.224   5.290  0.9079  1.4728 -1.5658
15729TIP3    H268603   5.072   6.202   5.240  1.2858 -0.9373  0.3801
15730TIP3   OH268604   1.350   1.017   4.685  0.0654 -0.2567  0.5260
15730TIP3    H168605   1.418   0.970   4.638  1.2457  1.4888  0.3911
15730TIP3    H268606   1.353   1.105   4.649 -1.4946  0.1532  1.3395
15731TIP3   OH268607   1.078   2.985  13.988  0.3272  0.1201 -0.1659
15731TIP3    H168608   1.034   3.025  14.063 -1.1244 -1.3431 -0.1724
15731TIP3    H268609   1.011   2.930  13.948  1.2195  0.4469 -2.2469
15732TIP3   OH268610   4.914   4.601  11.528 -0.0326 -0.0923 -0.5019
15732TIP3    H168611   4.823   4.571  11.523 -0.1203  0.3017 -1.5682
15732TIP3    H268612   4.954   4.546  11.595 -0.3133 -2.2188 -1.9977
15733TIP3   OH268613   3.638   2.821   3.796 -0.7352 -0.2574  0.8839
15733TIP3    H168614   3.720   2.858   3.764 -1.0510 -0.3030  0.0106
15733TIP3    H268615   3.599   2.892   3.848 -1.0322  0.4368 -0.2531
15734TIP3   OH268616   0.444   6.403   3.211  0.1179 -0.0849  0.6685
15734TIP3    H168617   0.426   6.471   3.147 -1.5410 -0.2470  0.9098
15734TIP3    H268618   0.402   6.325   3.176  0.5330 -0.5623  1.2084
15735TIP3   OH268619   3.239   4.573   2.087  0.4271 -0.4153 -0.2783
15735TIP3    H168620   3.249   4.668   2.090 -2.6290 -0.0025  0.1452
15735TIP3    H268621   3.209   4.549   2.174 -1.5490 -1.3127 -1.1289
15736TIP3   OH268622   1.163   0.465   4.002 -0.4294  0.1559 -0.2934
15736TIP3    H168623   1.184   0.372   3.994  0.0689  0.3545 -1.5543
15736TIP3    H268624   1.176   0.500   3.913 -0.7526  1.3929  0.1307
15737TIP3   OH268625   1.270   0.346  14.402  0.0594  0.5131  0.1566
15737TIP3    H168626   1.312   0.387  14.327  1.1113  0.8171  0.8863
15737TIP3    H268627   1.286   0.407  14.474 -0.2922 -0.1226  0.7790
15738TIP3   OH268628   6.090   5.860   3.213 -0.1035 -0.3791  0.3134
15738TIP3    H168629   6.068   5.881   3.123 -6.2824  0.8530  1.6590
15738TIP3    H268630   6.097   5.765   3.215  1.2293 -0.3751 -1.5147
15739TIP3   OH268631   5.550   3.491   5.020 -0.4558  0.1051  0.1090
15739TIP3    H168632   5.645   3.506   5.028 -0.0300 -1.8454 -0.8210
15739TIP3    H268633   5.532   3.419   5.080 -1.1665 -0.2430 -0.5104
15740TIP3   OH268634   3.430   0.719   6.734  0.1467 -0.7055 -0.5473
15740TIP3    H168635   3.342   0.708   6.770 -0.0671  2.4635  0.1975
15740TIP3    H268636   3.416   0.730   6.640 -1.0937  4.5621 -0.0760
15741TIP3   OH268637   0.429   2.971   1.542 -0.0805  0.3206  0.1298
15741TIP3    H168638   0.483   2.894   1.524  0.7058  0.5951  1.2926
15741TIP3    H268639   0.459   3.004   1.626 -0.8165  1.5645 -0.0644
15742TIP3   OH268640   0.582   2.908  15.119 -0.4320 -0.3848  0.0219
15742TIP3    H168641   0.494   2.877  15.098 -0.7890  1.1502 -0.9428
15742TIP3    H268642   0.624   2.834  15.163 -1.6290 -1.7485 -1.0335
15743TIP3   OH268643   4.218   5.713  12.262 -0.3170 -0.0829 -0.1905
15743TIP3    H168644   4.231   5.709  12.167 -2.3716  2.9835 -0.7270
15743TIP3    H268645   4.279   5.780  12.292 -1.5060  0.8711  0.1753
15744TIP3   OH268646   3.509   5.145  11.978  0.4983 -0.0782  0.4258
15744TIP3    H168647   3.594   5.157  11.935 -0.2776  0.4916 -1.0145
15744TIP3    H268648   3.490   5.230  12.017 -0.1530  0.3054 -0.6886
15745TIP3   OH268649   3.820   6.014  12.137 -0.1497 -0.0921  0.5172
15745TIP3    H168650   3.821   6.108  12.155  2.0075  0.3847 -1.6068
15745TIP3    H268651   3.728   5.995  12.118 -0.6789  1.4924  1.2554
15746TIP3   OH268652   4.594   0.949   0.843  0.9883  0.0601  0.2019
15746TIP3    H168653   4.658   0.878   0.838  0.6677 -0.3111  1.1749
15746TIP3    H268654   4.509   0.906   0.832  0.6548 -0.0106  2.5075
15747TIP3   OH268655   5.236   5.440   2.682 -0.0624  0.1548 -0.0596
15747TIP3    H168656   5.247   5.434   2.587 -1.6094  0.3657 -0.2908
15747TIP3    H268657   5.154   5.490   2.693 -1.2452 -1.9401  1.3114
15748TIP3   OH268658   0.012   3.539   5.746  0.6492  0.3130 -0.2786
15748TIP3    H168659  -0.072   3.575   5.715  0.2290 -0.4011  0.0210
15748TIP3    H268660  -0.011   3.455   5.785  1.6349 -0.3257 -1.0391
15749TIP3   OH268661   2.759   3.572   5.215 -0.2294  1.0242  0.0788
15749TIP3    H168662   2.672   3.610   5.200  0.2475  3.2393  2.3118
15749TIP3    H268663   2.805   3.583   5.132 -2.3038 -1.0862 -1.4666
15750TIP3   OH268664   2.857   5.875   3.663 -0.1305 -0.1215 -0.3558
15750TIP3    H168665   2.841   5.850   3.572  0.6030 -0.2084 -0.4668
15750TIP3    H268666   2.950   5.856   3.677  0.2532  1.6481 -0.1782
15751TIP3   OH268667   5.339   1.941  12.088 -0.0512 -0.2938 -0.2251
15751TIP3    H168668   5.288   2.015  12.122  1.9172  1.7290 -1.4080
15751TIP3    H268669   5.282   1.902  12.022 -0.4764  1.3502 -0.8999
15752TIP3   OH268670   2.761   3.804   3.816  0.0064  0.9549 -0.9564
15752TIP3    H168671   2.732   3.887   3.853 -2.3395 -0.3756  0.4241
15752TIP3    H268672   2.755   3.742   3.889 -0.9447 -0.9639 -2.5678
15753TIP3   OH268673   2.132   4.413  17.225 -0.2778  0.1856  0.6503
15753TIP3    H168674   2.066   4.482  17.229  0.0526  0.5863 -0.4569
15753TIP3    H268675   2.191   4.432  17.298 -1.5251 -0.3644  1.8520
15754TIP3   OH268676   1.824   1.376  15.804 -0.3389 -0.2673 -0.0791
15754TIP3    H168677   1.811   1.312  15.734 -3.5000 -1.5845  1.5029
15754TIP3    H268678   1.806   1.461  15.762 -2.2940 -1.0282 -0.9493
15755TIP3   OH268679   0.472   1.774  11.111  0.3179  0.2874 -0.6102
15755TIP3    H168680   0.383   1.746  11.090 -0.4420  0.9989  1.3982
15755TIP3    H268681   0.492   1.842  11.046 -1.4764  1.6421  0.1760
15756TIP3   OH268682   6.249   2.811   4.695  0.4652 -0.1856  0.0999
15756TIP3    H168683   6.188   2.873   4.735  0.7151 -0.5279  1.0420
15756TIP3    H268684   6.333   2.856   4.695  0.3113  0.1211 -0.8031
15757TIP3   OH268685   3.562   0.907  14.986 -0.5151 -0.0336 -0.0519
15757TIP3    H168686   3.637   0.914  14.926  1.6746  0.5712  2.5754
15757TIP3    H268687   3.560   0.814  15.010 -3.0450 -0.8811 -2.8055
15758TIP3   OH268688   4.207   2.510  16.205  0.3114  0.2362 -0.5527
15758TIP3    H168689   4.261   2.522  16.128  0.0456 -2.4606 -1.2667
15758TIP3    H268690   4.117   2.512  16.172  0.0178  2.1153  0.2251
15759TIP3   OH268691   3.178   6.384  12.420 -0.3678  0.3462 -0.2451
15759TIP3    H168692   3.227   6.397  12.339  2.1986  1.9878  1.4347
15759TIP3    H268693   3.110   6.450  12.418 -0.5086  0.1846 -1.1631
15760TIP3   OH268694   1.830   1.297   5.562  0.1814 -0.1991 -0.0251
15760TIP3    H168695   1.804   1.345   5.640 -1.2546  0.9823 -1.1780
15760TIP3    H268696   1.798   1.350   5.489  2.6326 -0.5952 -1.4852
15761TIP3   OH268697   1.262   2.224   0.504  0.0705  0.4077 -0.4548
15761TIP3    H168698   1.342   2.251   0.548  0.1389 -0.5529  0.0287
15761TIP3    H268699   1.192   2.268   0.553  0.1430 -0.6653  0.6677
15762TIP3   OH268700   5.915   2.518  10.669 -0.1715  0.2912 -1.0968
15762TIP3    H168701   5.939   2.462  10.595 -0.3446  0.4634 -1.2828
15762TIP3    H268702   5.835   2.563  10.640  0.9957  2.0831 -1.7040
15763TIP3   OH268703   2.333   2.177   3.434 -0.2355 -0.0694  0.4481
15763TIP3    H168704   2.288   2.240   3.377  1.7832 -0.4684 -1.7341
15763TIP3    H268705   2.294   2.093   3.411  0.8968 -0.2922 -0.7617
15764TIP3   OH268706   0.995   4.829   1.419  0.1114 -0.1454  0.7985
15764TIP3    H168707   0.970   4.789   1.503 -0.3023  1.5478  1.5220
15764TIP3    H268708   0.913   4.832   1.369 -0.0911  0.7205  1.1617
15765TIP3   OH268709   3.765   2.709  16.505  0.6113  0.4560  0.1423
15765TIP3    H168710   3.726   2.706  16.417  0.8424  0.7118  0.0266
15765TIP3    H268711   3.768   2.802  16.526 -1.8240  0.3071  1.5159
15766TIP3   OH268712   5.795   2.356   0.352  0.7157  0.0154 -0.6206
15766TIP3    H168713   5.863   2.335   0.416 -0.1008  2.3748  1.1513
15766TIP3    H268714   5.841   2.398   0.280  1.4698 -1.2858 -0.9226
15767TIP3   OH268715   1.601   4.505  13.863 -0.0748  0.8531 -0.5072
15767TIP3    H168716   1.657   4.439  13.903 -1.6449 -0.0196  0.3302
15767TIP3    H268717   1.610   4.490  13.769  1.7881  1.3604 -0.4603
15768TIP3   OH268718   5.156   5.912  15.652 -0.1855 -0.1492 -0.3433
15768TIP3    H168719   5.230   5.970  15.635  0.8666 -1.1368  0.7598
15768TIP3    H268720   5.123   5.890  15.565 -0.1000  1.4151 -0.8095
15769TIP3   OH268721   0.567   0.729   4.288 -0.0279 -0.6166 -0.1091
15769TIP3    H168722   0.631   0.798   4.274 -0.7018  0.3264  1.1759
15769TIP3    H268723   0.483   0.769   4.265 -0.2153 -1.7655 -1.5650
15770TIP3   OH268724   3.545   6.335   3.325  0.0932 -0.6269  0.4701
15770TIP3    H168725   3.453   6.334   3.352  0.6273 -2.8009  2.5539
15770TIP3    H268726   3.549   6.275   3.251  0.2458 -3.1036  2.3670
15771TIP3   OH268727   5.895   0.834  15.479  0.4764  0.1752 -0.0162
15771TIP3    H168728   5.836   0.876  15.542 -2.4227 -0.5165 -2.0684
15771TIP3    H268729   5.975   0.887  15.482 -0.8598  2.2670  1.6770
15772TIP3   OH268730   5.790   1.391  14.924  0.0288 -0.1807 -0.3531
15772TIP3    H168731   5.779   1.483  14.947  0.7014 -0.5875  1.7885
15772TIP3    H268732   5.794   1.391  14.829  3.0450  2.3616 -0.3754
15773TIP3   OH268733   3.463   3.740  11.394  0.2922 -0.2001  0.2301
15773TIP3    H168734   3.465   3.814  11.455 -3.1995 -0.1471  0.4870
15773TIP3    H268735   3.537   3.685  11.420  1.3842  1.8410  1.7684
15774TIP3   OH268736   1.470   6.629   5.389 -0.1196  0.0388 -0.3661
15774TIP3    H168737   1.552   6.639   5.438  0.0255  2.3674 -0.9528
15774TIP3    H268738   1.478   6.689   5.315 -2.2188  0.0757 -0.6425
15775TIP3   OH268739   0.706   1.545  14.420  0.0904 -0.2662  0.2977
15775TIP3    H168740   0.617   1.570  14.396 -0.2923 -0.9151  0.9989
15775TIP3    H268741   0.751   1.629  14.433 -0.1389  0.0700 -1.0062
15776TIP3   OH268742   0.296   1.543   6.310 -0.2306  0.0377 -0.0022
15776TIP3    H168743   0.241   1.476   6.268  0.0230  1.1860 -2.3566
15776TIP3    H268744   0.234   1.599   6.356 -0.8259  0.0433 -0.7686
15777TIP3   OH268745   0.436   6.493  17.261 -0.5834  0.4518 -0.0372
15777TIP3    H168746   0.370   6.537  17.315  1.3786  2.4174  0.9214
15777TIP3    H268747   0.437   6.544  17.180 -1.3168 -0.5786 -0.7257
15778TIP3   OH268748   6.567   0.414   0.254 -0.0540 -0.9613  0.0362
15778TIP3    H168749   6.589   0.325   0.226  0.1046 -1.7764  2.5456
15778TIP3    H268750   6.637   0.439   0.315 -1.0493  0.1488  0.7755
15779TIP3   OH268751   4.360   6.152  14.983  0.1291  0.1548  0.4575
15779TIP3    H168752   4.443   6.151  15.030  0.6009 -0.3104 -0.3513
15779TIP3    H268753   4.345   6.244  14.961  0.7802  0.1649  0.0256
15780TIP3   OH268754   1.390   6.488   4.527 -0.4266 -0.3682  0.1961
15780TIP3    H168755   1.294   6.484   4.519 -0.5543  1.1160  0.6590
15780TIP3    H268756   1.409   6.433   4.603 -1.0464  0.2695  0.8297
15781TIP3   OH268757   4.011   1.630  15.596 -0.5758  0.0896 -0.2421
15781TIP3    H168758   3.957   1.646  15.673 -1.3043 -0.6958 -0.5704
15781TIP3    H268759   3.949   1.619  15.524  0.0905  0.8403 -0.9619
15782TIP3   OH268760   2.112   1.656  12.292 -0.4205 -0.4562 -0.2100
15782TIP3    H168761   2.060   1.588  12.333 -1.4297  0.2921 -0.2160
15782TIP3    H268762   2.174   1.683  12.361 -1.7723  0.4441  0.7163
15783TIP3   OH268763   1.751   3.768  14.617  0.0944 -0.5510  0.2623
15783TIP3    H168764   1.767   3.780  14.523 -1.6082 -0.1949 -0.0076
15783TIP3    H268765   1.834   3.795  14.658  0.2833  1.0579 -1.0319
15784TIP3   OH268766   5.611   2.403  12.726 -0.6937  0.6210 -0.3551
15784TIP3    H168767   5.614   2.345  12.803 -0.6091 -1.1161 -1.6034
15784TIP3    H268768   5.656   2.482  12.754 -2.5797  0.9646  2.0957
15785TIP3   OH268769   3.562   4.804  14.745  0.1287 -0.0239 -0.5467
15785TIP3    H168770   3.569   4.770  14.655  0.8640 -0.8391 -0.2023
15785TIP3    H268771   3.468   4.807  14.762 -0.0319  0.4864 -1.4672
15786TIP3   OH268772   5.619   5.112   3.471  0.5918 -0.1242 -0.1866
15786TIP3    H168773   5.653   5.023   3.466 -1.5037 -1.0751  0.8402
15786TIP3    H268774   5.681   5.165   3.422  0.9417 -2.4346 -2.4563
15787TIP3   OH268775   4.567   6.701  16.629  0.3305  0.6014 -0.1292
15787TIP3    H168776   4.630   6.764  16.593  0.7973  0.4267  0.3765
15787TIP3    H268777   4.482   6.739  16.608  0.5855  0.5823 -1.2958
15788TIP3   OH268778   5.064   4.105  13.075 -0.3228  0.4048 -0.1742
15788TIP3    H168779   5.005   4.150  13.136 -0.3256  1.1894 -0.7418
15788TIP3    H268780   5.149   4.147  13.089  0.3049 -1.1787  1.1276
15789TIP3   OH268781   0.227   5.280   0.660  0.6403 -0.2561  0.8809
15789TIP3    H168782   0.285   5.210   0.633  2.5299  1.4234  0.3131
15789TIP3    H268783   0.183   5.247   0.738  2.0582 -1.7644  1.0799
15790TIP3   OH268784   6.383   2.278  15.611 -0.2809  0.5363  0.6402
15790TIP3    H168785   6.397   2.196  15.564  0.0217  1.1230 -0.3080
15790TIP3    H268786   6.412   2.259  15.700 -1.6862 -0.8643  0.8556
15791TIP3   OH268787   0.148   0.593  13.797  0.1450 -0.3712  0.3886
15791TIP3    H168788   0.206   0.637  13.735  0.1840 -1.1811 -0.1634
15791TIP3    H268789   0.075   0.653  13.809  1.2635  0.8559  1.4053
15792TIP3   OH268790   1.255   5.712   3.972  0.1833  0.4961 -0.4877
15792TIP3    H168791   1.223   5.710   3.883  0.1513  0.4150 -0.4745
15792TIP3    H268792   1.246   5.622   4.003  0.2976  0.5002 -0.4406
15793TIP3   OH268793   5.600   3.506  14.808  0.0473  0.0355  0.0073
15793TIP3    H168794   5.530   3.548  14.758  0.7703  0.5030 -0.6409
15793TIP3    H268795   5.562   3.423  14.838 -0.2841 -0.4392 -1.6575
15794TIP3   OH268796   5.299   2.297   0.014 -0.9231  0.1650  0.0504
15794TIP3    H168797   5.242   2.363  -0.024  0.7392  0.6799 -1.6819
15794TIP3    H268798   5.386   2.338   0.016 -0.1695 -1.3678  0.5460
15795TIP3   OH268799   2.225   2.830   5.124 -0.4078  0.1967 -0.6780
15795TIP3    H168800   2.244   2.911   5.077 -0.8093  1.8141  1.7937
15795TIP3    H268801   2.253   2.847   5.214  1.3086 -3.1085 -0.4120
15796TIP3   OH268802   5.013   6.253   4.278 -0.2226 -0.3316  0.0688
15796TIP3    H168803   5.009   6.215   4.191 -0.5310 -1.0188  0.3718
15796TIP3    H268804   4.934   6.221   4.322 -1.2408  1.7837 -0.0925
15797TIP3   OH268805   2.176   5.757  12.913 -0.3757 -0.4047 -0.3873
15797TIP3    H168806   2.125   5.776  12.992 -1.3603  0.4957 -1.1982
15797TIP3    H268807   2.267   5.754  12.942 -0.5430  1.6351  0.5321
15798TIP3   OH268808   0.850   2.854  13.819  0.0779 -0.0057 -0.2009
15798TIP3    H168809   0.916   2.858  13.750  0.4462 -0.0358  0.1464
15798TIP3    H268810   0.769   2.832  13.773  0.2809  0.1576 -0.6463
15799TIP3   OH268811   1.749   2.870  11.361  0.1049 -0.4606  0.3012
15799TIP3    H168812   1.755   2.829  11.447 -1.0935 -0.1487  0.5616
15799TIP3    H268813   1.667   2.837  11.325  0.4279 -0.3137 -0.5712
15800TIP3   OH268814   1.699   2.170   2.267 -0.2168  0.3091 -0.2072
15800TIP3    H168815   1.777   2.177   2.322 -1.4120  0.6529  1.5191
15800TIP3    H268816   1.714   2.234   2.197  0.6995  0.9538  0.5420
15801TIP3   OH268817   2.481   2.306  14.247 -0.2897  0.0528  0.7762
15801TIP3    H168818   2.387   2.307  14.267 -0.3776  0.8004  0.3873
15801TIP3    H268819   2.485   2.314  14.152  0.1515 -1.8242  0.6016
15802TIP3   OH268820   5.605   3.217   5.985 -0.3275 -0.3460 -0.7645
15802TIP3    H168821   5.673   3.279   5.960 -1.2623  0.9405 -0.2374
15802TIP3    H268822   5.651   3.147   6.031  0.7364 -0.0183 -1.2929
15803TIP3   OH268823   3.514   2.404   2.093 -0.0815  0.4904  0.1509
15803TIP3    H168824   3.606   2.430   2.087 -0.2096  0.8936 -0.0818
15803TIP3    H268825   3.508   2.323   2.042  0.1823  0.3548  0.3325
15804TIP3   OH268826   4.967   6.627  17.182  0.0261  0.4296 -0.2878
15804TIP3    H168827   5.025   6.661  17.114  0.8057 -1.2501 -0.5199
15804TIP3    H268828   4.936   6.543  17.147  0.1136 -0.2685  1.2269
15805TIP3   OH268829   2.940   2.445   6.306  0.1945 -0.2511  0.3020
15805TIP3    H168830   2.845   2.429   6.306  0.1533 -0.1117  1.5355
15805TIP3    H268831   2.949   2.531   6.265 -0.4213  0.6791  2.0323
15806TIP3   OH268832   5.299   5.196   5.612  0.1806  0.4413 -0.3182
15806TIP3    H168833   5.254   5.154   5.685 -1.7906 -1.0200 -2.2447
15806TIP3    H268834   5.389   5.161   5.616  0.0119  0.1195  1.1697
15807TIP3   OH268835   0.757   1.821   4.275 -0.7924  0.0352  0.5148
15807TIP3    H168836   0.813   1.850   4.202 -0.5076  2.6296  1.6580
15807TIP3    H268837   0.809   1.754   4.319  1.4809  2.2542  1.4467
15808TIP3   OH268838   6.068   4.422   2.019 -0.0639 -0.3882  0.2838
15808TIP3    H168839   6.081   4.451   2.109 -0.4399 -0.7555  0.4575
15808TIP3    H268840   6.107   4.334   2.017  0.8285  0.0019 -0.1680
15809TIP3   OH268841   3.853   1.075  13.615  0.0269  0.0408 -0.1251
15809TIP3    H168842   3.927   1.087  13.675  0.7896 -0.9031 -0.8376
15809TIP3    H268843   3.777   1.066  13.672  0.5073  0.6536  0.6371
15810TIP3   OH268844   0.220   1.282  11.330 -0.3084  0.3723  0.0792
15810TIP3    H168845   0.247   1.325  11.412 -1.4237 -0.6774  1.0404
15810TIP3    H268846   0.294   1.226  11.307 -0.3851 -0.1151  0.9631
15811TIP3   OH268847   3.881   6.161  14.219  0.8638 -0.0558 -0.3371
15811TIP3    H168848   3.906   6.088  14.275 -2.0331 -1.7666 -1.0735
15811TIP3    H268849   3.844   6.226  14.280  0.7891 -0.4418  0.0349
15812TIP3   OH268850   3.966   0.961  13.956 -0.0959 -0.3564 -0.0825
15812TIP3    H168851   3.996   1.032  13.898 -0.4763 -1.1289 -1.2642
15812TIP3    H268852   4.046   0.916  13.982  0.0519 -0.3053 -0.4369
15813TIP3   OH268853   3.934   1.489   3.916 -0.0717 -0.8133 -0.5464
15813TIP3    H168854   3.961   1.548   3.845 -0.7177 -0.7847 -0.7692
15813TIP3    H268855   3.841   1.507   3.929 -0.1434 -1.3838 -0.2311
15814TIP3   OH268856   2.832   6.017  15.271  0.1575 -0.6250  0.2735
15814TIP3    H168857   2.776   5.982  15.340  0.2554  0.7778  1.1002
15814TIP3    H268858   2.775   6.073  15.219  0.7657  0.9146  1.1939
15815TIP3   OH268859   2.664   3.969  10.667 -0.1961 -0.1557  0.1250
15815TIP3    H168860   2.630   4.056  10.690 -1.8143 -0.7046 -0.0030
15815TIP3    H268861   2.611   3.942  10.591  0.8215 -0.9307 -0.3293
15816TIP3   OH268862   1.149   5.532   0.962  0.0203  0.0319  0.3934
15816TIP3    H168863   1.196   5.596   1.015 -1.3665 -0.2101  1.9981
15816TIP3    H268864   1.095   5.584   0.903  3.1748  0.3598 -2.5291
15817TIP3   OH268865   1.459   2.688  13.787 -0.4755  0.5345  0.2382
15817TIP3    H168866   1.403   2.742  13.842 -0.1962  1.2128 -0.1290
15817TIP3    H268867   1.548   2.703  13.821  0.0648  3.0077 -1.9477
15818TIP3   OH268868   3.581   6.057   3.670 -0.4469 -0.0590  0.2420
15818TIP3    H168869   3.631   6.137   3.684 -3.7232  1.9216  2.0402
15818TIP3    H268870   3.639   5.987   3.701  1.4114  1.9420  1.6386
15819TIP3   OH268871   6.742   2.960   2.029  0.4440 -0.2498 -0.4096
15819TIP3    H168872   6.700   3.014   1.961  0.6244  0.1170 -0.2295
15819TIP3    H268873   6.833   2.951   2.000  0.2419 -1.0835 -0.8227
15820TIP3   OH268874   0.482   1.854   0.267 -0.4068  0.6654  0.5607
15820TIP3    H168875   0.398   1.899   0.260 -0.8055  0.2084  2.0511
15820TIP3    H268876   0.461   1.762   0.250 -0.0473  0.6697  0.0730
15821TIP3   OH268877   2.396   1.197   0.073  0.6529 -0.1381  0.6504
15821TIP3    H168878   2.468   1.252   0.104 -0.6298  1.2696  1.2847
15821TIP3    H268879   2.346   1.254   0.015 -0.0816 -1.0044  0.4243
15822TIP3   OH268880   5.068   4.389  11.676  0.5637  0.1481  0.1402
15822TIP3    H168881   5.073   4.323  11.745 -0.2559 -0.4168 -0.3312
15822TIP3    H268882   5.136   4.452  11.699 -0.5726  0.7143  2.2290
15823TIP3   OH268883   1.597   0.037  12.044  0.1471 -1.3887  0.4524
15823TIP3    H168884   1.597  -0.053  12.011 -0.7744 -1.1529 -0.2418
15823TIP3    H268885   1.613   0.028  12.138 -1.2410 -2.3983  0.6371
15824TIP3   OH268886   1.139   5.648  13.627 -0.5068 -1.0911  0.1544
15824TIP3    H168887   1.134   5.581  13.695 -0.6832  0.3527  1.6346
15824TIP3    H268888   1.077   5.715  13.655  1.8960  1.1555  0.4523
15825TIP3   OH268889   1.915   4.577   1.591  0.5839  0.3427  0.0091
15825TIP3    H168890   1.941   4.662   1.556  2.1460  0.7278  1.9185
15825TIP3    H268891   1.958   4.573   1.676 -2.6938 -0.6739  1.7553
15826TIP3   OH268892   4.402   5.825   2.065  0.1751  0.5829  0.0084
15826TIP3    H168893   4.469   5.892   2.079  1.1680 -0.2189 -0.7329
15826TIP3    H268894   4.452   5.744   2.051 -0.9959 -0.4691  1.5994
15827TIP3   OH268895   3.189   1.366   4.495 -0.0091  0.2042 -0.3345
15827TIP3    H168896   3.209   1.444   4.547  0.1141  1.3732 -2.0456
15827TIP3    H268897   3.182   1.399   4.406  0.0563 -1.7769 -1.1035
15828TIP3   OH268898   4.391   1.373  13.743  0.1826 -0.3275 -0.2849
15828TIP3    H168899   4.474   1.332  13.717  1.5578  1.2231  1.3984
15828TIP3    H268900   4.413   1.426  13.820 -2.4456 -0.0602  0.3921
15829TIP3   OH268901   3.242   2.124  15.060  0.1364 -0.1811 -0.1032
15829TIP3    H168902   3.329   2.096  15.090  0.1930 -1.0362 -1.0142
15829TIP3    H268903   3.189   2.044  15.063 -0.2991  0.0839 -0.6646
15830TIP3   OH268904   5.523   4.656  12.442  0.1222  0.0463  0.4766
15830TIP3    H168905   5.473   4.725  12.400  0.4149 -0.6541 -1.1396
15830TIP3    H268906   5.582   4.701  12.502 -1.0745  1.0205  0.9380
15831TIP3   OH268907   5.071   5.119  17.323  0.0356  0.7358 -0.0586
15831TIP3    H168908   5.162   5.127  17.351  0.4055 -2.1887 -0.1198
15831TIP3    H268909   5.075   5.130  17.228  0.3968  0.2300 -0.1062
15832TIP3   OH268910   0.087   5.681   2.384 -1.0199 -0.0723  0.2583
15832TIP3    H168911   0.063   5.668   2.475  0.5777 -0.3606  0.6705
15832TIP3    H268912   0.170   5.634   2.374  0.1966  2.0945 -0.6492
15833TIP3   OH268913   2.416   0.786   6.097  0.3066  0.0965  0.1100
15833TIP3    H168914   2.345   0.725   6.077  0.7978 -0.3648 -0.2664
15833TIP3    H268915   2.378   0.849   6.158 -0.1939 -0.6225  0.5526
15834TIP3   OH268916   1.982   4.145   1.491  0.3473 -0.1540 -0.3331
15834TIP3    H168917   1.890   4.154   1.463  0.3747  0.9143 -0.0950
15834TIP3    H268918   2.009   4.060   1.455 -0.6555 -0.3668 -0.6231
15835TIP3   OH268919   3.043   4.444  13.373  0.4758  0.1968  0.4382
15835TIP3    H168920   3.006   4.412  13.455  0.8309  1.1979  1.0021
15835TIP3    H268921   2.983   4.514  13.346 -0.3197 -0.9203 -0.7991
15836TIP3   OH268922   3.758   3.849   4.478 -0.1322 -0.2336 -0.2964
15836TIP3    H168923   3.702   3.797   4.536  1.4961 -1.6393  0.0902
15836TIP3    H268924   3.697   3.907   4.432 -1.8122 -1.1920  0.6151
15837TIP3   OH268925   6.730   1.530  16.092 -0.0995  0.6918  0.1065
15837TIP3    H168926   6.657   1.469  16.099  0.4925 -0.1933 -1.0371
15837TIP3    H268927   6.799   1.480  16.047  0.7772  1.8825  0.0647
15838TIP3   OH268928   3.195   5.334   5.613 -0.3848  0.3537 -0.1689
15838TIP3    H168929   3.241   5.332   5.529 -0.5847  0.7134 -0.2922
15838TIP3    H268930   3.102   5.331   5.590 -0.4403  0.4431  0.0363
15839TIP3   OH268931   0.497   6.400   0.695 -0.2189  0.2095 -0.0324
15839TIP3    H168932   0.511   6.318   0.742  0.7025 -0.1813 -0.9432
15839TIP3    H268933   0.475   6.373   0.606 -1.1531  0.9406 -0.0423
15840TIP3   OH268934   2.898   3.443   2.249  0.2694 -0.2594 -0.4515
15840TIP3    H168935   2.947   3.377   2.299  2.1635  1.4095  0.0442
15840TIP3    H268936   2.938   3.442   2.162 -0.9711 -1.0184 -1.0509
15841TIP3   OH268937   5.909   4.625   0.762 -0.3805 -0.8293  0.4172
15841TIP3    H168938   5.903   4.556   0.828 -1.9893 -0.6550  0.5015
15841TIP3    H268939   5.901   4.707   0.812  0.0844 -0.6317  0.1725
15842TIP3   OH268940   3.353   3.881   3.956 -0.3968  0.1845 -0.4108
15842TIP3    H168941   3.258   3.874   3.941 -0.1081 -0.9986 -1.9719
15842TIP3    H268942   3.372   3.974   3.948 -1.5514  0.5489  0.7997
15843TIP3   OH268943   6.309   1.907  12.099  0.5629  0.1497  0.4448
15843TIP3    H168944   6.222   1.930  12.065  0.2413 -0.0890  1.0786
15843TIP3    H268945   6.362   1.986  12.085  0.7487 -0.2629 -1.5195
15844TIP3   OH268946   2.250   5.749   4.909 -0.0743  0.0022  0.2057
15844TIP3    H168947   2.305   5.734   4.986 -1.7196 -0.3447  1.3702
15844TIP3    H268948   2.170   5.700   4.927 -0.0297 -1.2080 -2.3421
15845TIP3   OH268949   5.648   1.651  15.555  0.2144 -0.1807  0.7810
15845TIP3    H168950   5.601   1.732  15.536  0.3331 -0.1977  0.4004
15845TIP3    H268951   5.616   1.588  15.490  1.2533  0.0002  0.0752
15846TIP3   OH268952   2.527   4.327   4.605 -0.3537  0.3828  0.1489
15846TIP3    H168953   2.601   4.267   4.595 -1.4430 -0.7204 -2.0942
15846TIP3    H268954   2.549   4.402   4.549 -0.5989  0.3844  0.0518
15847TIP3   OH268955   1.689   2.107  11.720 -0.0020 -0.5110 -0.0268
15847TIP3    H168956   1.734   2.172  11.666 -0.6517 -1.2626 -1.5349
15847TIP3    H268957   1.758   2.045  11.746  0.0843 -0.9812 -1.3001
15848TIP3   OH268958   5.785   2.904   3.693 -0.7118 -0.3867 -0.2863
15848TIP3    H168959   5.826   2.955   3.763 -0.7989  0.3809 -0.7782
15848TIP3    H268960   5.697   2.940   3.685 -1.5764 -2.0913  0.8234
15849TIP3   OH268961   4.582   2.952  14.901  0.0140  0.8042  0.2906
15849TIP3    H168962   4.631   2.884  14.856 -0.3123 -0.1106  1.2856
15849TIP3    H268963   4.552   2.911  14.983 -2.3703  1.3165 -0.2498
15850TIP3   OH268964   1.504   0.087  16.277 -0.7739 -0.4216  0.7156
15850TIP3    H168965   1.543   0.174  16.268 -0.8069 -0.5989 -1.6791
15850TIP3    H268966   1.411   0.100  16.262 -0.8448 -0.8117  0.7982
15851TIP3   OH268967   5.358   4.339  15.005 -0.4302 -0.5080 -0.0671
15851TIP3    H168968   5.453   4.327  15.004 -0.3168  0.0994  1.2676
15851TIP3    H268969   5.324   4.254  15.035 -0.3369 -0.7728 -0.6843
15852TIP3   OH268970   4.852   6.344   6.465  0.3507 -0.2213  0.1611
15852TIP3    H168971   4.786   6.410   6.442 -0.9067 -1.5312 -0.1045
15852TIP3    H268972   4.840   6.274   6.401  2.3661 -0.2854 -0.2138
15853TIP3   OH268973   5.410   4.163  15.215 -0.0726  0.2221 -0.1935
15853TIP3    H168974   5.425   4.095  15.280  1.2315  0.6227 -0.0525
15853TIP3    H268975   5.470   4.233  15.240  0.0540  0.5974 -1.5193
15854TIP3   OH268976   4.187   0.376  16.828  0.1551  0.3251 -0.2087
15854TIP3    H168977   4.264   0.431  16.842  0.1559  0.7695 -1.7905
15854TIP3    H268978   4.218   0.308  16.768  0.2313 -1.6304  1.9077
15855TIP3   OH268979   2.267   1.861  16.172 -0.0827  0.3533  0.7687
15855TIP3    H168980   2.327   1.856  16.098  0.2062 -0.5286  1.0457
15855TIP3    H268981   2.242   1.770  16.189 -1.2513  0.6761  0.8599
15856TIP3   OH268982   1.156   2.152   2.650 -0.1002 -0.0935 -0.4646
15856TIP3    H168983   1.218   2.113   2.712  0.0177  0.5458 -0.1730
15856TIP3    H268984   1.205   2.156   2.568  0.8089  1.7915  0.1127
15857TIP3   OH268985   5.425   1.126  14.083  0.6587 -0.0120 -0.4512
15857TIP3    H168986   5.511   1.085  14.092  1.7241  2.0302 -0.6012
15857TIP3    H268987   5.426   1.197  14.148 -1.6670 -1.0553  0.8419
15858TIP3   OH268988   6.465   6.189   3.305 -0.0265 -0.2368  0.5941
15858TIP3    H168989   6.483   6.144   3.222 -0.2811  0.1151  0.3442
15858TIP3    H268990   6.395   6.138   3.345 -2.9079  1.8789 -1.3574
15859TIP3   OH268991   1.744   2.159  10.805  0.1599  0.4658  0.1025
15859TIP3    H168992   1.699   2.117  10.732 -1.9654 -0.2435  1.7235
15859TIP3    H268993   1.795   2.089  10.846  0.3128  0.5586  0.0728
15860TIP3   OH268994   2.518   4.289   0.319  0.4989 -0.2820 -0.5400
15860TIP3    H168995   2.544   4.271   0.229 -0.7061  0.0242 -0.9704
15860TIP3    H268996   2.476   4.208   0.348  3.2423 -1.3697  0.7073
15861TIP3   OH268997   5.486   5.730   1.275  0.3040  0.5503  0.1704
15861TIP3    H168998   5.517   5.650   1.233  0.5021  0.2370  0.8793
15861TIP3    H268999   5.558   5.755   1.334 -0.2445  0.5637  0.8522
15862TIP3   OH269000   3.525   0.133  15.580  0.0590 -0.1141  0.1337
15862TIP3    H169001   3.555   0.220  15.555 -1.0503 -0.2478 -1.8176
15862TIP3    H269002   3.566   0.117  15.665  3.5406  0.6781 -1.2423
15863TIP3   OH269003   1.462   4.969  14.701  0.2976  0.4084 -0.0563
15863TIP3    H169004   1.503   5.021  14.632  1.9521 -0.0842  0.5029
15863TIP3    H269005   1.427   4.892  14.655  0.1965  0.7173 -0.5111
15864TIP3   OH269006   6.720   6.311  13.926 -0.3371  0.2182 -0.3198
15864TIP3    H169007   6.671   6.284  13.848 -2.4046  0.8312  0.7132
15864TIP3    H269008   6.756   6.397  13.904  0.1992 -0.1763 -1.0353
15865TIP3   OH269009   5.362   6.606  13.895 -0.0900 -0.2682  0.2044
15865TIP3    H169010   5.414   6.542  13.847 -1.1674 -1.1993  0.2379
15865TIP3    H269011   5.321   6.659  13.826 -1.4231 -1.4347  0.0681
15866TIP3   OH269012   1.324   4.302  11.054 -0.6717  0.4492 -0.3460
15866TIP3    H169013   1.271   4.224  11.036 -0.1335 -0.0601  0.2482
15866TIP3    H269014   1.294   4.366  10.989 -1.0076 -0.2982 -0.9450
15867TIP3   OH269015   4.749   6.239   1.487  0.5809  0.2617  0.6987
15867TIP3    H169016   4.735   6.312   1.546 -2.3841  0.8502 -0.5316
15867TIP3    H269017   4.753   6.278   1.400  2.4972 -0.7846  0.2563
15868TIP3   OH269018   2.160   6.603  16.897 -0.5141 -0.1859 -0.4676
15868TIP3    H169019   2.123   6.570  16.979  0.6449  0.0415  0.1798
15868TIP3    H269020   2.126   6.692  16.889  0.7244  0.4526  0.7319
15869TIP3   OH269021   1.205   4.503  13.889  0.1704  0.2800  0.3216
15869TIP3    H169022   1.235   4.559  13.818  2.1549 -0.5745  0.4019
15869TIP3    H269023   1.146   4.557  13.940  0.7521  1.7516 -0.5216
15870TIP3   OH269024   5.926   4.482  16.836  0.2585  0.2902 -0.1247
15870TIP3    H169025   5.961   4.571  16.841  0.1554  0.3218  0.0817
15870TIP3    H269026   5.991   4.433  16.786  0.5200  0.3820  0.1227
15871TIP3   OH269027   5.624   1.756  13.869  0.1676  0.1146  0.1819
15871TIP3    H169028   5.588   1.805  13.795  0.3974 -1.5346 -1.0602
15871TIP3    H269029   5.678   1.821  13.915  2.3594  0.5500 -2.7345
15872TIP3   OH269030   3.322   1.334   5.421 -0.1862  0.3644 -0.0660
15872TIP3    H169031   3.389   1.268   5.436 -1.8069 -1.0302  1.7050
15872TIP3    H269032   3.266   1.297   5.353 -1.7356 -0.7250  1.7043
15873TIP3   OH269033   0.634   5.411  15.267 -0.1091 -0.2136 -0.0884
15873TIP3    H169034   0.710   5.458  15.303  0.1059 -0.0813 -0.7073
15873TIP3    H269035   0.560   5.468  15.284  0.0760  0.1138 -0.3611
15874TIP3   OH269036   5.595   3.551  16.300 -0.4509 -0.1109  0.3720
15874TIP3    H169037   5.590   3.515  16.212 -0.8565  0.9289 -0.0400
15874TIP3    H269038   5.667   3.503  16.341 -0.4253 -0.7830 -0.4337
15875TIP3   OH269039   3.845   3.239   4.279 -0.3586  0.5259 -0.2800
15875TIP3    H169040   3.871   3.291   4.355 -0.2556 -0.8829  0.6840
15875TIP3    H269041   3.765   3.281   4.247 -0.1527  1.4018  0.3227
15876TIP3   OH269042   4.356   0.399  11.802 -0.2057  0.0136 -0.3408
15876TIP3    H169043   4.295   0.403  11.875  0.8708 -2.9935  0.8675
15876TIP3    H269044   4.428   0.457  11.827 -0.5023  0.1021  0.3087
15877TIP3   OH269045   6.191   1.228  12.591  0.1366 -0.3479  0.3737
15877TIP3    H169046   6.151   1.151  12.631 -0.8386  0.2276  0.5459
15877TIP3    H269047   6.153   1.232  12.504  1.5711 -1.0792 -0.3214
15878TIP3   OH269048   0.528   2.998  12.590  0.6835 -0.4840  0.0347
15878TIP3    H169049   0.556   3.088  12.605  2.3673 -0.6608 -1.6193
15878TIP3    H269050   0.591   2.945  12.640  0.2251 -0.7683  0.3167
15879TIP3   OH269051   4.380   3.029   5.329 -0.1359 -0.0235 -0.1669
15879TIP3    H169052   4.442   2.976   5.380  0.6707  0.9614 -0.1017
15879TIP3    H269053   4.385   3.116   5.369 -2.3569 -0.1530  0.5263
15880TIP3   OH269054   3.220   5.395  16.725  0.1986  0.0639 -0.3964
15880TIP3    H169055   3.127   5.393  16.704  0.3889  0.9697 -1.4265
15880TIP3    H269056   3.261   5.434  16.648  1.3487  0.3025  0.3111
15881TIP3   OH269057   5.200   5.743   4.021  0.4975  0.3256  0.1105
15881TIP3    H169058   5.264   5.673   4.008 -3.5553 -3.4519 -2.3486
15881TIP3    H269059   5.152   5.718   4.100  1.0503  2.2944  1.1169
15882TIP3   OH269060   5.629   5.974   2.032  0.0572  0.0587  0.2286
15882TIP3    H169061   5.710   5.922   2.030 -0.9579 -1.8036  2.6300
15882TIP3    H269062   5.656   6.057   2.072  0.7493 -0.6685  1.3285
15883TIP3   OH269063   4.819   1.815  17.257  0.4206  0.0848  0.5615
15883TIP3    H169064   4.830   1.901  17.300  2.3469  0.8136 -1.2178
15883TIP3    H269065   4.849   1.752  17.323 -0.5927  0.7871  1.7350
15884TIP3   OH269066   2.748   0.826  16.556 -0.1213 -0.5248  0.0469
15884TIP3    H169067   2.739   0.896  16.621  2.7796  1.0567 -1.0542
15884TIP3    H269068   2.767   0.748  16.607  0.5461  0.3542  1.1990
15885TIP3   OH269069   6.754   1.509  13.791  0.0428  0.2440 -0.3033
15885TIP3    H169070   6.824   1.536  13.850 -2.3323  2.0562  1.9127
15885TIP3    H269071   6.767   1.415  13.779  1.8634  0.2272  1.3586
15886TIP3   OH269072   3.297   1.281  15.321 -0.1830  0.6337  0.1237
15886TIP3    H169073   3.249   1.213  15.369  0.7576  0.9210  1.5229
15886TIP3    H269074   3.363   1.233  15.271  0.0842  0.4694  0.6310
15887TIP3   OH269075   0.312   1.692   2.581  0.4827 -0.1579  0.1747
15887TIP3    H169076   0.246   1.673   2.514  1.2471 -0.2693 -0.5586
15887TIP3    H269077   0.361   1.766   2.547  1.5410 -0.8553  0.1142
15888TIP3   OH269078   6.444   6.666   1.451  0.0027  0.1926  0.1897
15888TIP3    H169079   6.445   6.737   1.386  0.1423  2.1494  2.1814
15888TIP3    H269080   6.485   6.592   1.407 -0.5409  1.1793 -2.1574
15889TIP3   OH269081   3.326   4.925   0.383 -0.0151  0.2066 -0.3785
15889TIP3    H169082   3.263   4.934   0.311  0.3844  0.0810 -0.7553
15889TIP3    H269083   3.315   5.004   0.435 -0.1187  0.4323 -0.7378
15890TIP3   OH269084   5.724   3.290   5.520  0.5970 -0.2010  0.1570
15890TIP3    H169085   5.742   3.198   5.540 -0.1987 -0.1671  1.1057
15890TIP3    H269086   5.704   3.330   5.605  1.9342  1.1022 -0.0996
15891TIP3   OH269087   1.815   0.196  17.276 -0.1983  0.1859  0.3341
15891TIP3    H169088   1.909   0.195  17.258 -0.1446  0.9476  0.5291
15891TIP3    H269089   1.804   0.135  17.348 -0.0934 -1.1584 -0.7610
15892TIP3   OH269090   2.291   4.676  16.184 -0.1446 -0.2541 -0.2104
15892TIP3    H169091   2.358   4.721  16.133  0.3618  0.9259  1.4026
15892TIP3    H269092   2.235   4.746  16.217  0.8618 -0.6453  2.6554
15893TIP3   OH269093   6.430   1.842   0.103 -0.1029 -0.4105 -0.1917
15893TIP3    H169094   6.508   1.824   0.051 -0.2573 -1.0185 -0.2259
15893TIP3    H269095   6.368   1.774   0.077 -1.3733  1.2251 -1.6222
15894TIP3   OH269096   1.177   6.209  11.403  0.4487  0.1771  0.3965
15894TIP3    H169097   1.188   6.255  11.320  1.8966 -0.0607  0.4227
15894TIP3    H269098   1.214   6.122  11.386  3.3710  0.9784  2.0031
15895TIP3   OH269099   4.263   4.999   2.280 -0.1725 -0.4947  0.2040
15895TIP3    H169100   4.189   4.937   2.282  0.4589 -1.2464  0.7409
15895TIP3    H269101   4.341   4.943   2.277  0.4002  0.2829  0.3923
15896TIP3   OH269102   5.364   5.638  15.833  0.2901 -0.3069  0.1574
15896TIP3    H169103   5.401   5.559  15.791  2.6406  0.7021  0.1960
15896TIP3    H269104   5.402   5.639  15.921  0.0732  0.7110  0.2515
15897TIP3   OH269105   4.404   1.080   3.531  0.1842 -0.4030  0.2313
15897TIP3    H169106   4.383   1.090   3.624 -1.7729 -1.1934 -0.0821
15897TIP3    H269107   4.431   1.168   3.504 -2.6674  0.7562  0.7870
15898TIP3   OH269108   2.876   1.799  12.924  0.6403 -0.1769 -0.0792
15898TIP3    H169109   2.920   1.739  12.863 -0.2986 -1.2751  0.2875
15898TIP3    H269110   2.819   1.743  12.976 -0.7639  1.1125 -0.1479
15899TIP3   OH269111   0.135   4.870   2.805 -0.6012 -0.4569  0.1783
15899TIP3    H169112   0.109   4.917   2.726 -0.7280 -1.4444 -0.3830
15899TIP3    H269113   0.124   4.777   2.783 -0.0132 -0.7738  1.1337
15900TIP3   OH269114   6.190   0.483  10.721  0.1450 -0.4394  0.5353
15900TIP3    H169115   6.244   0.407  10.697  0.0671 -0.4468  0.3870
15900TIP3    H269116   6.103   0.463  10.686  0.3349  0.1156 -0.2680
15901TIP3   OH269117   0.496   4.629  13.105  0.0570 -0.3560  0.0567
15901TIP3    H169118   0.516   4.588  13.189  0.4378 -1.2946 -0.4738
15901TIP3    H269119   0.401   4.642  13.106  0.0546 -0.4147  0.6068
15902TIP3   OH269120   4.882   1.777  15.484  0.4105 -0.4645 -0.1992
15902TIP3    H169121   4.930   1.820  15.554  0.0859  0.4113 -0.4973
15902TIP3    H269122   4.903   1.684  15.493  0.0738 -0.4137  1.2816
15903TIP3   OH269123   0.743   5.442   2.812 -0.0932  0.4867  0.4223
15903TIP3    H169124   0.693   5.520   2.789 -0.2671  0.4033  0.5166
15903TIP3    H269125   0.800   5.426   2.736  0.2950  0.9875  0.5988
15904TIP3   OH269126   4.788   0.892  13.693 -0.0786 -0.3737  0.2270
15904TIP3    H169127   4.851   0.831  13.653  0.7704  0.1835  0.6777
15904TIP3    H269128   4.745   0.933  13.618  0.2815 -0.5755 -0.0983
15905TIP3   OH269129   2.064   4.665   1.812 -0.1085 -0.0926  0.4975
15905TIP3    H169130   2.073   4.760   1.807 -1.4422  0.0103 -0.3767
15905TIP3    H269131   2.002   4.651   1.884 -1.5304 -0.1620 -0.7011
15906TIP3   OH269132   5.323   5.365  11.859 -0.0950 -0.3613  0.3460
15906TIP3    H169133   5.277   5.281  11.848  0.1147 -0.2863 -1.2859
15906TIP3    H269134   5.315   5.384  11.953  1.2650 -3.0290  1.1053
15907TIP3   OH269135   3.077   2.253  12.644  0.6983  0.3316 -0.3749
15907TIP3    H169136   3.142   2.244  12.574  1.2074  2.3626 -0.2207
15907TIP3    H269137   2.996   2.275  12.598 -0.3815 -3.4822 -0.6935
15908TIP3   OH269138   0.873   0.001  12.308 -0.0761  0.1120 -0.2068
15908TIP3    H169139   0.864  -0.053  12.229 -2.3999  0.4431 -0.2653
15908TIP3    H269140   0.790   0.048  12.313  1.1058  2.2173  0.9218
15909TIP3   OH269141   4.131   5.452   5.852  0.2403  0.6219  0.0560
15909TIP3    H169142   4.061   5.477   5.792 -0.5604  2.5831  1.6786
15909TIP3    H269143   4.089   5.391   5.913  0.3101  0.7586  0.2406
15910TIP3   OH269144   5.415   5.561  14.472 -0.0518  0.4267  0.8313
15910TIP3    H169145   5.432   5.548  14.378 -0.5789 -0.9345  0.9068
15910TIP3    H269146   5.347   5.498  14.493 -0.9218  1.6579  1.8570
15911TIP3   OH269147   4.257   2.903  17.202 -0.1662 -0.3346  0.0215
15911TIP3    H169148   4.163   2.890  17.213 -0.1049 -0.2452  0.7322
15911TIP3    H269149   4.282   2.961  17.274  0.1596  0.9761 -1.1030
15912TIP3   OH269150   6.036   4.877   0.386  0.0082  0.1241 -0.4513
15912TIP3    H169151   6.103   4.922   0.438  1.1814  1.1403 -2.7259
15912TIP3    H269152   6.051   4.784   0.402  1.4025  0.3661 -0.2553
15913TIP3   OH269153   6.654   6.758  14.858  0.5389 -0.2401  0.3841
15913TIP3    H169154   6.720   6.750  14.790 -0.6927  0.4190 -0.9474
15913TIP3    H269155   6.663   6.848  14.890 -0.5041  0.2814 -0.7034
15914TIP3   OH269156   2.106   4.439  15.237  0.0702 -0.1901  0.2850
15914TIP3    H169157   2.067   4.526  15.230  1.2877  0.5512  1.9177
15914TIP3    H269158   2.187   4.445  15.186  0.3096 -0.2487  0.6519
15915TIP3   OH269159   5.651   3.814  15.180  0.0665 -0.5989  0.3184
15915TIP3    H169160   5.589   3.881  15.207 -1.2723 -1.1234 -1.2864
15915TIP3    H269161   5.718   3.814  15.249  0.0339  2.2298  0.4816
15916TIP3   OH269162   4.724   3.350   0.330 -0.3134  0.7801  0.1647
15916TIP3    H169163   4.634   3.318   0.340 -0.1373  0.5509  1.1404
15916TIP3    H269164   4.717   3.419   0.264 -1.2488  0.9129  0.3786
15917TIP3   OH269165   2.629   2.020  13.956 -0.0414 -0.7042  0.3649
15917TIP3    H169166   2.681   1.940  13.955 -0.3448 -0.9145  0.9081
15917TIP3    H269167   2.690   2.088  13.927  0.6108 -0.8998  1.2396
15918TIP3   OH269168   5.157   4.822  12.445 -0.2202  0.3190  0.3546
15918TIP3    H169169   5.216   4.763  12.399  0.4947  0.4602  1.0594
15918TIP3    H269170   5.206   4.903  12.455 -1.2179  1.0696 -0.6561
15919TIP3   OH269171   1.357   2.936   1.609 -0.3241 -0.1926 -0.2179
15919TIP3    H169172   1.437   2.986   1.596 -0.8024  0.4713 -0.6616
15919TIP3    H269173   1.298   2.968   1.541 -1.1667 -0.2528  0.4763
15920TIP3   OH269174   3.346   2.841  13.353  0.0262 -0.0375 -0.5914
15920TIP3    H169175   3.404   2.873  13.422  0.6473 -1.4423 -0.4378
15920TIP3    H269176   3.404   2.817  13.282 -0.5781  0.9423 -1.4545
15921TIP3   OH269177   4.253   2.785  16.143 -1.1398  0.3012 -0.5855
15921TIP3    H169178   4.241   2.751  16.054  2.0145 -0.0756 -0.9750
15921TIP3    H269179   4.225   2.713  16.199  1.2877 -1.3847 -1.3832
15922TIP3   OH269180   5.772   6.466   5.506  0.1312  0.4685  0.1351
15922TIP3    H169181   5.802   6.375   5.501  1.3012  0.8464 -0.2738
15922TIP3    H269182   5.792   6.493   5.596  0.1395  0.4347  0.1436
15923TIP3   OH269183   0.531   0.160   1.815  0.0919 -0.0748 -0.3920
15923TIP3    H169184   0.538   0.255   1.827  0.1851 -0.1441  0.1127
15923TIP3    H269185   0.463   0.133   1.877  0.8663 -0.4996  0.2836
15924TIP3   OH269186   5.668   3.254  10.640  0.0710  0.0384 -0.6791
15924TIP3    H169187   5.632   3.188  10.582  0.0299  0.3237 -0.9828
15924TIP3    H269188   5.714   3.315  10.582  1.5179 -0.6087 -0.2500
15925TIP3   OH269189   5.782   3.651   1.605 -0.7247  0.0019  0.2177
15925TIP3    H169190   5.850   3.717   1.615 -0.2954 -0.2413 -0.8991
15925TIP3    H269191   5.700   3.700   1.606 -0.3868  0.6428 -1.1178
15926TIP3   OH269192   2.370   4.656  14.871 -0.1951  0.6605  0.8553
15926TIP3    H169193   2.319   4.727  14.831  0.5101  1.0243  0.5747
15926TIP3    H269194   2.440   4.701  14.918 -0.7088  0.2087  2.0860
15927TIP3   OH269195   1.720   0.546  11.852  0.1375 -0.2877 -0.6649
15927TIP3    H169196   1.681   0.459  11.865 -0.2431  0.0072  0.2966
15927TIP3    H269197   1.689   0.573  11.765 -1.0701 -0.4594 -0.3161
15928TIP3   OH269198   5.663   2.296  15.277  0.2014  0.0369  0.5983
15928TIP3    H169199   5.739   2.354  15.282 -0.0050  0.4616 -0.7565
15928TIP3    H269200   5.615   2.327  15.200  0.5800 -2.5110 -0.7900
15929TIP3   OH269201   4.131   4.568   4.447 -0.0569 -0.4266 -0.2025
15929TIP3    H169202   4.085   4.547   4.366  2.4546 -0.2128 -1.7889
15929TIP3    H269203   4.209   4.512   4.446  1.5539  1.6514  0.5532
15930TIP3   OH269204   1.534   5.322  14.902  0.6350  0.1588  0.1811
15930TIP3    H169205   1.589   5.299  14.977  2.3406  1.3193 -0.6393
15930TIP3    H269206   1.444   5.310  14.933  1.3032  0.0807  2.2086
15931TIP3   OH269207   3.640   6.218  15.107  0.3128 -0.4398 -0.3934
15931TIP3    H169208   3.556   6.255  15.081  0.6810  1.3107  0.6797
15931TIP3    H269209   3.662   6.156  15.038 -0.7318  0.8409 -1.9408
15932TIP3   OH269210   2.216   3.694  11.158  0.5243  0.0648 -0.2414
15932TIP3    H169211   2.288   3.632  11.143  1.5769  0.7747  1.5639
15932TIP3    H269212   2.168   3.695  11.075  1.7305 -1.5373 -1.0246
15933TIP3   OH269213   2.852   2.522   4.580 -0.4956  0.2639 -0.3575
15933TIP3    H169214   2.850   2.432   4.548  1.2083 -0.3080  0.9324
15933TIP3    H269215   2.941   2.532   4.615 -1.0337  2.0668  0.6043
15934TIP3   OH269216   6.652   3.473   2.815 -0.3370 -0.1168 -0.6366
15934TIP3    H169217   6.580   3.532   2.793 -0.5539 -0.2384 -0.2501
15934TIP3    H269218   6.647   3.463   2.910  1.8459  2.0567 -0.1955
15935TIP3   OH269219   1.532   6.530  16.844 -0.1532 -0.2521  0.7087
15935TIP3    H169220   1.503   6.601  16.786 -2.1984 -0.5613  1.2738
15935TIP3    H269221   1.627   6.525  16.830 -0.1529  1.6664 -0.3615
15936TIP3   OH269222   0.486   2.300   0.696 -0.0734  0.4091 -0.1427
15936TIP3    H169223   0.498   2.208   0.673  0.0336  0.5948 -0.8460
15936TIP3    H269224   0.458   2.299   0.787  1.0288 -0.2657  0.2064
15937TIP3   OH269225   5.822   3.694   1.154  0.6533 -0.5187 -0.0162
15937TIP3    H169226   5.860   3.643   1.082  2.6097  0.5635  0.1791
15937TIP3    H269227   5.824   3.635   1.229 -0.8636 -1.4590 -0.6518
15938TIP3   OH269228   0.762   4.114  16.241 -0.0108 -0.6050 -0.3131
15938TIP3    H169229   0.794   4.160  16.163 -0.0062  0.7120  0.4208
15938TIP3    H269230   0.742   4.026  16.211  0.6568 -0.3301 -1.6441
15939TIP3   OH269231   3.652   4.096  14.815  0.0111  0.7940 -0.3585
15939TIP3    H169232   3.632   4.057  14.729 -0.2639 -0.1208  0.1046
15939TIP3    H269233   3.606   4.179  14.815 -1.4655  0.0143 -0.4301
15940TIP3   OH269234   0.741   4.609   4.609 -0.1948 -0.5089 -0.5855
15940TIP3    H169235   0.732   4.698   4.643 -1.5492 -0.7858 -0.1962
15940TIP3    H269236   0.730   4.619   4.514  1.1949 -0.0776 -0.7360
15941TIP3   OH269237   1.972   4.485  16.487 -0.1253 -0.0526 -0.5092
15941TIP3    H169238   2.021   4.489  16.405  1.2772 -0.1723  0.2794
15941TIP3    H269239   2.031   4.524  16.552 -0.2805 -1.9537  0.8539
15942TIP3   OH269240   3.942   4.294   4.395 -0.0010  0.2362  0.2494
15942TIP3    H169241   4.029   4.255   4.385 -1.1653 -2.5165 -0.1111
15942TIP3    H269242   3.897   4.236   4.456 -2.2649  0.3315 -1.2219
15943TIP3   OH269243   2.671   0.863   1.973  0.2698 -0.2255 -0.0149
15943TIP3    H169244   2.747   0.856   2.030 -0.7701 -0.7150  1.3779
15943TIP3    H269245   2.653   0.957   1.967  1.4526 -0.0378 -1.0573
15944TIP3   OH269246   5.472   1.929   0.924  0.0176  0.0099 -0.2917
15944TIP3    H169247   5.387   1.926   0.880  0.0710  0.9323 -0.4592
15944TIP3    H269248   5.474   1.847   0.974 -0.1496 -0.9484 -1.7751
15945TIP3   OH269249   0.246   1.623  11.149 -0.3174  0.8590  0.6995
15945TIP3    H169250   0.167   1.570  11.160  0.5465 -0.7100 -0.2137
15945TIP3    H269251   0.285   1.626  11.237 -1.2030  1.3549  1.0818
15946TIP3   OH269252   5.591   2.593   2.429 -0.4183  0.2998  0.0152
15946TIP3    H169253   5.587   2.686   2.407 -1.0082  0.4149  0.5547
15946TIP3    H269254   5.500   2.565   2.428 -0.2585 -0.2191  0.0735
15947TIP3   OH269255   0.398   5.073   5.792  0.4389  0.0612  0.1777
15947TIP3    H169256   0.344   4.998   5.766 -0.3294 -0.3515  2.7308
15947TIP3    H269257   0.337   5.136   5.829  1.5164  0.0521  2.1348
15948TIP3   OH269258   5.450   0.751  16.880 -0.0500  0.6527  0.1494
15948TIP3    H169259   5.511   0.806  16.930  0.1480 -0.2704  0.9400
15948TIP3    H269260   5.506   0.688  16.834 -0.2612  1.2186 -0.9240
15949TIP3   OH269261   2.520   1.752  11.652  0.3130 -0.3023 -0.0444
15949TIP3    H169262   2.428   1.731  11.672  0.2046  0.1124 -0.0980
15949TIP3    H269263   2.516   1.796  11.568  0.2386  2.2770  1.2267
15950TIP3   OH269264   3.461   5.747  13.594  0.3706 -0.1710  0.1001
15950TIP3    H169265   3.389   5.809  13.579 -0.2758 -0.7431  0.7227
15950TIP3    H269266   3.529   5.799  13.635 -0.0324  0.2109  0.2973
15951TIP3   OH269267   3.663   1.423   1.179  0.0940  0.0268  0.1015
15951TIP3    H169268   3.596   1.354   1.184  2.0099 -2.0356 -0.7454
15951TIP3    H269269   3.689   1.436   1.270  0.1567 -0.8832  0.2306
15952TIP3   OH269270   1.605   0.903   3.679 -0.6009 -0.4651 -0.0794
15952TIP3    H169271   1.541   0.970   3.703 -0.9260 -1.2722  1.4225
15952TIP3    H269272   1.660   0.893   3.757  1.7286  0.5464 -1.4697
15953TIP3   OH269273   0.576   2.596   5.565 -0.1915  0.8380  0.2803
15953TIP3    H169274   0.641   2.656   5.529 -0.5507  2.4911  2.2013
15953TIP3    H269275   0.602   2.583   5.656 -1.5725  0.1249  0.6181
15954TIP3   OH269276   4.545   6.205  13.304  0.0235  0.3788  0.3352
15954TIP3    H169277   4.577   6.290  13.274 -0.8501 -0.2882 -2.8319
15954TIP3    H269278   4.590   6.142  13.248  0.6608 -1.3497  2.6156
15955TIP3   OH269279   2.277   0.808  17.095  0.0425  0.4742  0.0149
15955TIP3    H169280   2.281   0.862  17.174 -1.9112  0.6871  0.0119
15955TIP3    H269281   2.251   0.870  17.026  0.6533  0.0745 -0.5870
15956TIP3   OH269282   0.982   1.831  15.192 -0.0013  0.0864  0.4994
15956TIP3    H169283   1.065   1.859  15.232  0.9825 -1.6455 -0.2207
15956TIP3    H269284   0.935   1.913  15.175  2.8094  1.4010 -1.7250
15957TIP3   OH269285   2.491   5.899   2.618 -0.1545 -0.1960 -0.2699
15957TIP3    H169286   2.459   5.970   2.564  0.2872 -0.8047 -1.3652
15957TIP3    H269287   2.584   5.891   2.595 -0.1490 -0.9872 -0.0106
15958TIP3   OH269288   2.495   5.128   2.196  0.8635 -0.1556 -0.3439
15958TIP3    H169289   2.575   5.175   2.220  1.0457 -1.1457  1.1966
15958TIP3    H269290   2.424   5.184   2.225  1.0686 -0.4395  0.7628
15959TIP3   OH269291   2.316   6.674  15.606 -0.0935 -0.0148  0.3527
15959TIP3    H169292   2.384   6.718  15.555  0.0035  1.2753  1.5616
15959TIP3    H269293   2.311   6.723  15.688 -1.2068 -1.2129  1.0356
15960TIP3   OH269294   4.096   5.159   0.175  0.1698 -0.2076 -0.0713
15960TIP3    H169295   4.062   5.081   0.219 -0.7119  0.0784 -0.2243
15960TIP3    H269296   4.021   5.219   0.172  0.7341  0.4985 -0.2910
15961TIP3   OH269297   5.754   1.973  13.985  0.3180 -0.0743 -0.5943
15961TIP3    H169298   5.688   2.029  14.025  0.2996 -1.2442  1.1307
15961TIP3    H269299   5.830   1.981  14.043  1.1654  0.0366 -1.6810
15962TIP3   OH269300   2.555   3.278  16.591  0.1623 -0.3936 -0.2010
15962TIP3    H169301   2.474   3.289  16.642 -0.2623 -1.3277 -0.6475
15962TIP3    H269302   2.605   3.358  16.608  0.0441 -0.6700  1.6899
15963TIP3   OH269303   1.028   3.878  11.875  0.3947 -0.5075  0.4093
15963TIP3    H169304   1.018   3.792  11.834  0.0824 -0.6329  0.7431
15963TIP3    H269305   0.959   3.881  11.941  0.3353  0.0436  0.3256
15964TIP3   OH269306   3.030   2.563   4.793 -0.0141  0.1118  0.1003
15964TIP3    H169307   3.022   2.498   4.862 -0.3650  0.4045  0.3372
15964TIP3    H269308   3.107   2.615   4.817  0.2572 -0.2051 -0.0819
15965TIP3   OH269309   5.051   3.443   5.100  0.2636 -0.2233  0.0356
15965TIP3    H169310   5.080   3.495   5.175  0.6862  1.3729 -1.1802
15965TIP3    H269311   4.967   3.481   5.074  0.2427 -0.5853 -0.4549
15966TIP3   OH269312   2.542   2.441   2.773 -0.3271  0.4715  0.4734
15966TIP3    H169313   2.531   2.395   2.690 -0.5628 -0.8897  1.2137
15966TIP3    H269314   2.475   2.509   2.772 -2.0887 -1.1678  0.5844
15967TIP3   OH269315   0.367   3.618   5.607 -0.2699  0.6029  0.2108
15967TIP3    H169316   0.331   3.621   5.696 -2.5644  1.6389 -0.6698
15967TIP3    H269317   0.310   3.676   5.556  1.9088  1.2501 -1.6499
15968TIP3   OH269318   2.893   1.577  16.673 -0.4048 -0.1591  0.2445
15968TIP3    H169319   2.946   1.520  16.728 -0.6653  0.7974  1.5300
15968TIP3    H269320   2.907   1.544  16.584 -1.0968 -2.6676  0.9652
15969TIP3   OH269321   0.785   3.207   5.303 -0.3249 -0.8562  0.0640
15969TIP3    H169322   0.835   3.284   5.332  0.3827 -1.7292  1.2331
15969TIP3    H269323   0.710   3.205   5.363  0.3283 -1.7858  0.8741
15970TIP3   OH269324   3.154   1.105   3.526  0.6434 -0.4494  0.1157
15970TIP3    H169325   3.105   1.175   3.568 -1.4102 -0.3288 -2.2328
15970TIP3    H269326   3.131   1.026   3.575 -0.1519 -0.0432  0.4059
15971TIP3   OH269327   1.689   2.051  14.929 -0.1792 -0.8825  0.0645
15971TIP3    H169328   1.633   2.123  14.901  4.0223  2.2893 -1.1858
15971TIP3    H269329   1.697   1.995  14.852 -1.9348 -1.7569  0.4548
15972TIP3   OH269330   0.280   2.195   4.720 -0.3537 -0.5746 -0.2927
15972TIP3    H169331   0.362   2.166   4.758 -0.1522 -0.8439 -0.9274
15972TIP3    H269332   0.213   2.172   4.785  0.2222  1.0155  0.9183
15973TIP3   OH269333   4.696   4.829   3.088 -0.2532 -0.0682 -0.3458
15973TIP3    H169334   4.639   4.838   3.011  0.4947 -1.1369 -1.0537
15973TIP3    H269335   4.784   4.815   3.051  0.0119 -1.3039  0.6876
15974TIP3   OH269336   5.663   4.359   1.879 -0.4249  0.0996  0.0427
15974TIP3    H169337   5.634   4.302   1.950  0.0312  0.0620  0.2028
15974TIP3    H269338   5.583   4.398   1.844 -0.4730  3.0341  2.9875
15975TIP3   OH269339   0.025   0.907  10.300  0.4363 -0.9281 -0.0736
15975TIP3    H169340   0.012   0.971  10.230 -2.1103  2.3636  3.0310
15975TIP3    H269341   0.107   0.933  10.342  0.1610 -0.6005  0.2729
15976TIP3   OH269342   0.852   2.116  13.800  0.7745 -0.3362  0.4284
15976TIP3    H169343   0.868   2.024  13.781 -0.5123 -0.4591 -0.1956
15976TIP3    H269344   0.761   2.119  13.830  1.1011  0.6069  1.3864
15977TIP3   OH269345   5.056   2.395  12.329  0.7349  0.8991  0.4891
15977TIP3    H169346   5.110   2.349  12.393  1.2415  1.7515  0.6933
15977TIP3    H269347   4.966   2.376  12.355  0.8585 -1.7364 -0.7017
15978TIP3   OH269348   4.289   5.958  11.477  0.1309 -0.1528  0.4858
15978TIP3    H169349   4.284   5.953  11.382  0.4966  2.2277  0.2708
15978TIP3    H269350   4.374   6.000  11.494 -0.4263  0.5031  1.7857
15979TIP3   OH269351   0.654   1.967  15.789  0.1766  0.2339  0.4430
15979TIP3    H169352   0.606   1.986  15.709  1.2066  0.0370 -0.2399
15979TIP3    H269353   0.632   1.876  15.809  0.3472  0.1114  0.0757
15980TIP3   OH269354   3.474   1.944   0.704 -0.1980  0.1229 -0.7767
15980TIP3    H169355   3.569   1.933   0.692 -0.1787 -0.3897 -0.1603
15980TIP3    H269356   3.435   1.868   0.661 -0.1998 -0.9362  1.0011
15981TIP3   OH269357   2.884   0.870  14.982 -0.1798  1.0644  0.0376
15981TIP3    H169358   2.859   0.791  14.934 -0.1710  0.2580  1.3223
15981TIP3    H269359   2.969   0.849  15.020 -0.1951  1.6741  0.4170
15982TIP3   OH269360   0.874   6.652  11.356  0.7558 -0.4251  0.3783
15982TIP3    H169361   0.932   6.717  11.316 -0.2255  0.4337  0.3105
15982TIP3    H269362   0.934   6.589  11.397  1.7734  1.2814  1.6865
15983TIP3   OH269363   6.736   6.163   0.608 -0.3693 -0.4609 -0.2627
15983TIP3    H169364   6.652   6.202   0.583 -0.7626 -0.1614  1.4228
15983TIP3    H269365   6.802   6.216   0.564 -1.0358 -0.2025 -0.9648
15984TIP3   OH269366   2.894   4.067  13.229 -0.1113  0.1793 -0.2469
15984TIP3    H169367   2.936   4.053  13.144  1.1721 -0.9560  0.5216
15984TIP3    H269368   2.967   4.088  13.288 -1.0038  1.1927  0.5329
15985TIP3   OH269369   5.246   4.781  11.492 -0.0196 -0.1287 -0.0267
15985TIP3    H169370   5.183   4.760  11.423 -0.5623 -1.1643  0.7459
15985TIP3    H269371   5.263   4.874  11.482 -0.3404 -0.1919 -1.3463
15986TIP3   OH269372   0.360   3.938  15.788 -0.3098  0.2155  0.6023
15986TIP3    H169373   0.280   3.981  15.757 -1.2372 -0.7977  1.4971
15986TIP3    H269374   0.390   3.886  15.714 -0.7801  0.2047  0.4160
15987TIP3   OH269375   3.556   3.116  13.759 -0.7225 -0.1467  0.4915
15987TIP3    H169376   3.614   3.095  13.832 -1.3923 -0.6691  0.8831
15987TIP3    H269377   3.515   3.199  13.784 -1.5358 -0.7166  1.0759
15988TIP3   OH269378   6.155   0.611  12.350 -0.5951 -0.2673 -0.1615
15988TIP3    H169379   6.193   0.577  12.269 -0.8933 -2.4956  0.5777
15988TIP3    H269380   6.194   0.698  12.360  0.8907 -0.7079 -1.7140
15989TIP3   OH269381   4.195   0.984   4.262 -0.4670  0.2830  0.0467
15989TIP3    H169382   4.160   0.909   4.310 -0.5475 -0.2165 -0.7800
15989TIP3    H269383   4.247   1.032   4.327 -0.0853 -0.6977  0.4845
15990TIP3   OH269384   0.093   1.337   3.574 -0.1322 -0.2484 -0.5356
15990TIP3    H169385   0.019   1.390   3.543 -1.1701 -0.7782  0.9049
15990TIP3    H269386   0.093   1.261   3.515 -1.4564 -0.7722  0.0849
15991TIP3   OH269387   6.754   6.430   3.291 -0.3397  0.6118 -0.4597
15991TIP3    H169388   6.661   6.451   3.289 -0.2368  1.3604  1.0116
15991TIP3    H269389   6.797   6.514   3.273  0.0494  0.5558  0.1845
15992TIP3   OH269390   4.588   0.890  12.395  0.0116  0.3287  0.3519
15992TIP3    H169391   4.643   0.938  12.333  1.7939 -0.6825  1.0693
15992TIP3    H269392   4.535   0.832  12.341 -0.4352  1.3813 -0.3704
15993TIP3   OH269393   4.466   2.540  16.069  0.5927  0.4376 -0.2477
15993TIP3    H169394   4.489   2.553  15.977  1.0175  1.1907 -0.0429
15993TIP3    H269395   4.488   2.623  16.111 -1.2273  0.7239  0.2261
15994TIP3   OH269396   1.662   5.976  16.054  0.1735 -0.1894 -0.3759
15994TIP3    H169397   1.755   5.997  16.062  0.1921 -0.1141 -0.7667
15994TIP3    H269398   1.621   6.058  16.026  0.2241 -0.6102 -1.7670
15995TIP3   OH269399   2.836   6.708  13.703  0.1621 -0.6091 -0.1762
15995TIP3    H169400   2.828   6.613  13.703  1.6327 -0.7634  0.6222
15995TIP3    H269401   2.929   6.725  13.721 -0.3832  0.9845  1.4904
15996TIP3   OH269402   1.657   1.211   0.135  0.4497  0.1030  0.1330
15996TIP3    H169403   1.637   1.304   0.124  1.6277  0.2446 -1.0957
15996TIP3    H269404   1.739   1.210   0.185  0.1814 -0.3040  0.5740
15997TIP3   OH269405   2.279   5.272   2.300 -0.0226  0.3509 -0.3684
15997TIP3    H169406   2.218   5.337   2.334 -0.6560  0.2133 -1.2013
15997TIP3    H269407   2.332   5.247   2.375  0.1736  1.7532 -0.0104
15998TIP3   OH269408   4.566   0.699  17.130  0.1298 -0.3567 -0.4605
15998TIP3    H169409   4.608   0.784  17.122  0.1660 -0.4716 -1.5409
15998TIP3    H269410   4.618   0.653  17.196 -0.2613  0.6677  0.5953
15999TIP3   OH269411   2.824   1.331  14.993 -0.6278 -0.1024 -0.2971
15999TIP3    H169412   2.906   1.332  15.043  0.4266  0.9119 -1.9404
15999TIP3    H269413   2.840   1.269  14.921 -1.3288  0.0420 -0.5867
16000TIP3   OH269414   4.536   5.984  13.540  0.0625 -0.0660  0.7737
16000TIP3    H169415   4.574   6.011  13.624  0.6489  1.1587  0.1472
16000TIP3    H269416   4.539   6.063  13.486 -3.1542  0.0393  0.5565
16001TIP3   OH269417   3.475   1.118   0.363 -0.4989  0.3371 -0.4445
16001TIP3    H169418   3.445   1.198   0.406  0.1649  1.3847 -1.8416
16001TIP3    H269419   3.401   1.090   0.310 -0.9666 -0.3911  0.5519
16002TIP3   OH269420   4.537   5.639  15.099 -0.1967  0.0610  0.5493
16002TIP3    H169421   4.446   5.626  15.071 -0.3660  0.9170  0.6939
16002TIP3    H269422   4.589   5.621  15.021 -0.5554  0.6090  0.1775
16003TIP3   OH269423   3.977   1.334  15.998 -0.5113  0.2179 -0.1763
16003TIP3    H169424   3.933   1.300  15.920 -1.4743  1.3992 -0.1911
16003TIP3    H269425   3.908   1.339  16.064 -0.1963  1.2221  0.0963
16004TIP3   OH269426   4.343   3.568  10.918 -0.7240 -0.1728  0.7707
16004TIP3    H169427   4.421   3.614  10.947 -0.1919 -0.3166 -0.3757
16004TIP3    H269428   4.372   3.516  10.843 -2.4567  1.9775 -1.5849
16005TIP3   OH269429   4.413   4.323   1.608 -0.5854  0.1497  0.0923
16005TIP3    H169430   4.462   4.403   1.622 -0.0829 -0.6356  3.8544
16005TIP3    H269431   4.335   4.350   1.559  1.2662  2.2170 -1.8868
16006TIP3   OH269432   2.080   0.699  15.046  0.2631  0.5579  0.3005
16006TIP3    H169433   2.113   0.787  15.064 -1.1841  0.7124  2.6741
16006TIP3    H269434   2.088   0.689  14.951  1.6573  2.7250  0.1195
16007TIP3   OH269435   1.128   2.117  13.916 -0.4721  0.4720 -0.6807
16007TIP3    H169436   1.150   2.058  13.988 -1.7973  0.3153 -0.3644
16007TIP3    H269437   1.076   2.063  13.856 -0.3358  0.8956 -1.1881
16008TIP3   OH269438   3.284   4.006  10.932  0.2009  0.4780 -0.7324
16008TIP3    H169439   3.337   4.073  10.976 -0.8117  1.8095 -1.4621
16008TIP3    H269440   3.335   3.983  10.854  1.2125 -0.6685  0.2306
16009TIP3   OH269441   5.993   0.682  16.830  0.3661  0.3837 -0.6545
16009TIP3    H169442   6.056   0.739  16.785  1.7342  0.1977  0.9487
16009TIP3    H269443   6.018   0.593  16.804  2.2320  0.1560  1.6551
16010TIP3   OH269444   2.740   5.736   3.463 -0.3449  0.0447 -0.1819
16010TIP3    H169445   2.800   5.774   3.399  0.7985  0.2142  0.9310
16010TIP3    H269446   2.756   5.641   3.457  0.3518  0.1179  0.3885
16011TIP3   OH269447   2.238   4.492  15.851  0.2068 -0.7938  0.5066
16011TIP3    H169448   2.229   4.580  15.890  0.3877  0.7012 -2.5430
16011TIP3    H269449   2.171   4.440  15.895 -1.4443  1.4931  0.9133
16012TIP3   OH269450   1.350   2.172   6.407 -0.0248 -0.3652 -0.0432
16012TIP3    H169451   1.420   2.197   6.468 -0.3253 -0.9219  0.5288
16012TIP3    H269452   1.386   2.097   6.359  1.0752  1.3374 -2.1121
16013TIP3   OH269453   4.441   3.916   1.490 -0.1355 -0.0608 -0.1305
16013TIP3    H169454   4.521   3.943   1.445 -0.9348  1.3211 -0.7952
16013TIP3    H269455   4.370   3.952   1.437 -1.2019 -0.9979  0.6063
16014TIP3   OH269456   4.119   0.162   3.898  0.1015  0.0827  0.3238
16014TIP3    H169457   4.037   0.211   3.904 -0.6780 -0.7955 -2.0801
16014TIP3    H269458   4.183   0.226   3.867 -0.1244  0.3358  0.3733
16015TIP3   OH269459   2.585   4.495   4.405  0.0728 -0.6719  0.3517
16015TIP3    H169460   2.605   4.512   4.313 -2.0209  2.5479  0.3394
16015TIP3    H269461   2.608   4.575   4.450  0.3825 -1.9279  2.5719
16016TIP3   OH269462   6.655   0.808  10.565 -0.9552 -0.3203 -0.0272
16016TIP3    H169463   6.692   0.833  10.480 -2.0510 -0.1569 -0.4640
16016TIP3    H269464   6.628   0.890  10.605  1.9122 -0.0629  1.6727
16017TIP3   OH269465   4.848   2.982  12.448  0.2184  0.0551 -0.3097
16017TIP3    H169466   4.795   2.994  12.527  2.0461  3.0728  0.6405
16017TIP3    H269467   4.903   2.906  12.467 -0.8828 -0.5941  0.3762
16018TIP3   OH269468   3.339   0.564  16.112  0.3606  0.7013  0.2171
16018TIP3    H169469   3.270   0.625  16.089 -0.1395  0.8948  2.0347
16018TIP3    H269470   3.362   0.586  16.202  2.5093  0.3556 -0.1860
16019TIP3   OH269471   3.423   4.872   3.405  0.9992  0.1164  0.3840
16019TIP3    H169472   3.364   4.947   3.399  1.5928  0.6393  0.9228
16019TIP3    H269473   3.470   4.871   3.322  1.8929  1.1235  0.8511
16020TIP3   OH269474   6.337   0.326  11.560 -0.5297 -0.0466 -1.1838
16020TIP3    H169475   6.318   0.419  11.546  2.2338  0.7898 -0.0830
16020TIP3    H269476   6.306   0.308  11.648  0.6294  0.3960 -0.6663
16021TIP3   OH269477   6.411   2.245   3.915 -0.1759 -0.5509  0.3844
16021TIP3    H169478   6.474   2.292   3.862 -1.0248  0.3525  0.1478
16021TIP3    H269479   6.327   2.259   3.872 -0.5853 -1.5497  0.8089
16022TIP3   OH269480   1.503   1.275   2.311 -0.0903 -0.3661  0.5505
16022TIP3    H169481   1.467   1.364   2.314 -0.6808 -0.5287 -1.1195
16022TIP3    H269482   1.447   1.224   2.369  1.0503  0.5794  2.6039
16023TIP3   OH269483   6.682   4.942   2.341 -0.2150 -0.3332 -0.1810
16023TIP3    H169484   6.730   4.980   2.268  0.6213 -0.4002  0.3173
16023TIP3    H269485   6.687   4.848   2.328  1.2989 -0.4223  0.7646
16024TIP3   OH269486   2.925   4.733   4.410 -0.5625  0.2657  0.5169
16024TIP3    H169487   2.961   4.758   4.495 -0.3007 -0.2133  0.5530
16024TIP3    H269488   2.991   4.763   4.347  0.0471 -0.8352  0.5998
16025TIP3   OH269489   1.433   4.783  14.485 -0.3376  0.0082  0.1391
16025TIP3    H169490   1.515   4.735  14.499 -0.4742 -0.0863  0.6346
16025TIP3    H269491   1.393   4.739  14.410 -1.2007 -1.7003  1.5146
16026TIP3   OH269492   3.924   1.427   0.278  0.0538  0.0699 -0.1515
16026TIP3    H169493   3.857   1.490   0.251  0.8371  0.6663 -0.7435
16026TIP3    H269494   3.901   1.347   0.232  0.0795  0.4422 -0.8220
16027TIP3   OH269495   6.078   3.689  17.087 -0.0891 -0.2325  0.3001
16027TIP3    H169496   6.009   3.658  17.028  0.3173  1.1531 -0.9676
16027TIP3    H269497   6.047   3.666  17.175 -0.9596 -1.8816 -0.3978
16028TIP3   OH269498   6.622   2.590  11.726 -0.1362  0.5764 -0.1796
16028TIP3    H169499   6.585   2.599  11.639  0.3998 -0.0075 -0.4802
16028TIP3    H269500   6.672   2.508  11.723 -0.4484  0.3241  0.7966
16029TIP3   OH269501   1.474   6.236  16.935 -0.2245  0.2443 -0.5418
16029TIP3    H169502   1.554   6.184  16.943 -0.7301 -0.9865 -2.7145
16029TIP3    H269503   1.505   6.323  16.909  0.4963  0.4060  0.7834
16030TIP3   OH269504   1.573   6.201  12.080 -0.2409 -0.1329 -0.1847
16030TIP3    H169505   1.598   6.275  12.135 -0.4447 -1.2896  1.5334
16030TIP3    H269506   1.502   6.158  12.128 -0.1265 -1.4535 -1.1438
16031TIP3   OH269507   0.476   4.252  16.857 -0.2841  0.4712 -0.3410
16031TIP3    H169508   0.392   4.209  16.876 -0.0467  0.4951  0.8405
16031TIP3    H269509   0.542   4.191  16.888  0.1861  0.1474 -1.8963
16032TIP3   OH269510   5.098   3.557   4.252 -0.5486  0.0296  0.1211
16032TIP3    H169511   5.136   3.601   4.329 -1.2457  0.3958  0.2695
16032TIP3    H269512   5.096   3.625   4.185 -3.4478  0.9001  0.9245
16033TIP3   OH269513   0.505   3.926   3.310 -0.4090  0.4569 -0.1961
16033TIP3    H169514   0.515   3.966   3.223  2.3215  0.7886  0.1948
16033TIP3    H269515   0.474   3.997   3.366 -0.9961  0.5584 -0.6401
16034TIP3   OH269516   2.166   4.581   0.737  0.3742 -0.4389  0.1108
16034TIP3    H169517   2.257   4.572   0.711  0.1726 -1.8281 -0.2189
16034TIP3    H269518   2.134   4.658   0.690  1.1551 -0.4318 -0.4174
16035TIP3   OH269519   0.785   5.076  16.261  0.1341 -0.6186 -0.0427
16035TIP3    H169520   0.691   5.064  16.271 -0.0045  0.4486  0.0885
16035TIP3    H269521   0.799   5.170  16.274  1.4539 -1.0192  1.8983
16036TIP3   OH269522   4.097   2.730  16.983  0.1447  0.1441 -0.0432
16036TIP3    H169523   4.188   2.748  16.958  0.7844 -1.5143  0.9619
16036TIP3    H269524   4.100   2.720  17.078 -0.4822 -2.9437 -0.2542
16037TIP3   OH269525   6.646   4.446   6.015 -0.3208  0.3269 -0.1864
16037TIP3    H169526   6.553   4.423   6.012 -0.0848 -0.5886 -1.1873
16037TIP3    H269527   6.656   4.515   5.950 -0.3773  0.7362  0.2379
16038TIP3   OH269528   5.269   6.501   2.358  0.3594  0.3548  0.5726
16038TIP3    H169529   5.232   6.414   2.344 -1.0258  0.8502  0.9683
16038TIP3    H269530   5.313   6.496   2.443 -1.5660  0.5826  1.6438
16039TIP3   OH269531   4.905   4.427   0.587 -0.5708 -0.3352 -0.0316
16039TIP3    H169532   4.822   4.385   0.610  0.1235 -1.0152  1.3028
16039TIP3    H269533   4.961   4.354   0.559 -0.8046  0.2594 -2.3009
16040TIP3   OH269534   0.990   6.218   2.399 -0.0601  0.2861  0.6941
16040TIP3    H169535   0.942   6.144   2.434 -0.9159 -0.3351 -1.6241
16040TIP3    H269536   0.967   6.220   2.306 -0.1717  3.5233  0.6677
16041TIP3   OH269537   5.123   2.739   0.372 -0.0893 -0.2159 -0.6711
16041TIP3    H169538   5.203   2.769   0.328 -0.6893  0.7239 -1.1605
16041TIP3    H269539   5.103   2.655   0.331  0.0630  0.0447 -1.2916
16042TIP3   OH269540   2.267   0.282   4.894 -0.0252 -0.3673  0.0376
16042TIP3    H169541   2.309   0.207   4.936  0.0102 -1.1529 -1.3228
16042TIP3    H269542   2.309   0.288   4.808  0.3759  1.5898  0.3309
16043TIP3   OH269543   1.835   6.107   2.680 -0.6103 -0.3072 -0.4575
16043TIP3    H169544   1.904   6.081   2.619 -0.2479  1.7906 -1.0022
16043TIP3    H269545   1.881   6.130   2.760 -0.3579  2.8060 -1.3596
16044TIP3   OH269546   6.412   0.770  15.085  0.1515  0.1091  0.5846
16044TIP3    H169547   6.369   0.685  15.087 -0.9503  0.6214 -0.0541
16044TIP3    H269548   6.441   0.780  14.994  0.7087  0.2080  0.7710
16045TIP3   OH269549   4.429   3.351   1.780  0.0724  0.2626  0.5110
16045TIP3    H169550   4.407   3.440   1.806  0.5843  0.1797  1.2612
16045TIP3    H269551   4.406   3.297   1.856 -2.8131 -0.6528 -0.8660
16046TIP3   OH269552   1.484   3.899  11.549  0.0849  0.0208  0.0932
16046TIP3    H169553   1.480   3.916  11.455  0.6540  1.3565  0.2853
16046TIP3    H269554   1.577   3.887  11.567 -0.1701 -2.1698  0.2028
16047TIP3   OH269555   2.507   3.881   4.925  0.1877  0.4633  0.5070
16047TIP3    H169556   2.458   3.910   4.848  1.1375  1.0491  0.1075
16047TIP3    H269557   2.498   3.786   4.925  0.7251  0.3938 -0.7154
16048TIP3   OH269558   2.832   6.081   3.827  0.0242 -0.1967  0.4785
16048TIP3    H169559   2.836   6.011   3.762  0.5395  0.1064  0.1790
16048TIP3    H269560   2.876   6.155   3.786 -0.6503  0.3583  0.7277
16049TIP3   OH269561   6.513   1.515   3.736 -0.0236 -0.4179  0.3534
16049TIP3    H169562   6.566   1.480   3.664  1.1844 -0.8656  1.4169
16049TIP3    H269563   6.512   1.444   3.801 -2.2130 -0.5306  0.2477
16050TIP3   OH269564   5.263   1.635   4.708 -0.2017  0.2901  0.6302
16050TIP3    H169565   5.326   1.586   4.761 -0.3410 -0.8742 -0.2361
16050TIP3    H269566   5.310   1.657   4.628 -0.0787  1.7938  1.0951
16051TIP3   OH269567   2.270   1.563   5.111 -0.0196  0.6107  0.8246
16051TIP3    H169568   2.225   1.540   5.030  0.1869 -1.2893  1.2002
16051TIP3    H269569   2.281   1.479   5.157  2.9823  1.1064  1.2141
16052TIP3   OH269570   4.957   1.252  14.205 -0.0943 -0.6635 -0.1324
16052TIP3    H169571   5.049   1.227  14.206  0.4757  1.2724  0.4538
16052TIP3    H269572   4.950   1.320  14.272 -1.2221  1.5839 -2.3792
16053TIP3   OH269573   1.731   5.398  16.799  0.0552  0.3785  0.2727
16053TIP3    H169574   1.756   5.309  16.824 -1.3747  0.2654  1.4604
16053TIP3    H269575   1.805   5.452  16.825  0.9668 -0.4531 -0.5231
16054TIP3   OH269576   1.202   1.066   0.895 -0.1439  0.2743 -0.2800
16054TIP3    H169577   1.116   1.029   0.874  0.0178 -0.0867 -0.3129
16054TIP3    H269578   1.216   1.134   0.829 -0.7857  0.9454  0.2483
16055TIP3   OH269579   4.146   4.451  15.690  0.0997 -0.0804 -0.3376
16055TIP3    H169580   4.172   4.543  15.703 -1.6208  0.2896  0.9775
16055TIP3    H269581   4.137   4.442  15.595  2.2777  0.4833 -0.6554
16056TIP3   OH269582   5.787   0.237  12.056 -0.0265 -0.3416  0.1674
16056TIP3    H169583   5.852   0.244  12.127  0.6110 -0.6988 -0.3758
16056TIP3    H269584   5.774   0.328  12.028  0.6108 -0.3083 -0.0465
16057TIP3   OH269585   4.522   0.322  13.121  0.0707  0.4767 -0.1099
16057TIP3    H169586   4.532   0.307  13.027  0.2591  0.0688 -0.0228
16057TIP3    H269587   4.525   0.418  13.130  2.1693  0.4734 -0.2962
16058TIP3   OH269588   1.393   0.564   1.000  0.2686  0.1771  0.3120
16058TIP3    H169589   1.445   0.587   0.923 -1.4161 -1.3349 -1.3608
16058TIP3    H269590   1.362   0.647   1.034  2.2004  0.9767  0.2424
16059TIP3   OH269591   2.439   4.872   5.443  0.4822 -0.4735 -0.6333
16059TIP3    H169592   2.395   4.843   5.363  0.0378 -0.7119 -0.3078
16059TIP3    H269593   2.533   4.870   5.421  0.3106  3.4064 -2.4892
16060TIP3   OH269594   5.919   1.820   1.002 -0.5787 -0.2135 -0.1556
16060TIP3    H169595   5.997   1.838   1.055 -0.1164  1.1873 -1.2349
16060TIP3    H269596   5.948   1.754   0.939 -0.1276  0.5739 -0.7941
16061TIP3   OH269597   4.007   2.055   1.262  0.2454 -0.2047 -0.3302
16061TIP3    H169598   3.973   1.972   1.229 -0.6151 -0.5944  1.4290
16061TIP3    H269599   3.937   2.118   1.242 -0.5828 -0.5706  1.2527
16062TIP3   OH269600   5.031   0.259   4.501 -0.3900 -0.4790  0.5887
16062TIP3    H169601   5.073   0.251   4.415 -1.3581 -0.5924  0.1188
16062TIP3    H269602   4.971   0.184   4.506 -1.6877  0.5328  0.5990
16063TIP3   OH269603   0.396   5.078  16.957 -0.4545 -0.3979  0.1284
16063TIP3    H169604   0.447   5.020  17.014  1.7810  0.2880 -1.0709
16063TIP3    H269605   0.367   5.021  16.886 -0.5975 -0.5964  0.3417
16064TIP3   OH269606   1.442   0.174   1.874 -0.2264 -0.1460 -0.6406
16064TIP3    H169607   1.424   0.091   1.918 -1.1775  0.3822  0.0125
16064TIP3    H269608   1.366   0.229   1.896  1.1170  1.4184  0.2798
16065TIP3   OH269609   6.135   6.326   2.734  0.4256  0.2687 -0.1496
16065TIP3    H169610   6.176   6.275   2.805 -3.4528 -0.8673  1.5816
16065TIP3    H269611   6.142   6.270   2.657  0.9089 -0.4903  0.4344
16066TIP3   OH269612   3.725   0.747  17.110  0.1601  0.0321  0.3491
16066TIP3    H169613   3.683   0.794  17.038 -1.2774 -1.6296  0.0266
16066TIP3    H269614   3.677   0.664  17.115  1.5011 -0.6937  1.9675
16067TIP3   OH269615   1.254   2.701   3.234  0.5170  0.5502  0.2832
16067TIP3    H169616   1.315   2.700   3.160 -0.5982  0.3312 -0.6633
16067TIP3    H269617   1.221   2.790   3.237 -0.5151  0.2105 -0.4182
16068TIP3   OH269618   0.016   6.089   5.578 -0.2118  0.6331 -0.3171
16068TIP3    H169619  -0.038   6.045   5.513 -1.2977  1.7482 -0.1830
16068TIP3    H269620   0.027   6.023   5.648 -0.0290 -0.1455 -1.0626
16069TIP3   OH269621   5.600   5.012   0.408  0.2815  0.3734 -0.2193
16069TIP3    H169622   5.522   4.997   0.462  0.6830 -0.4126  0.1623
16069TIP3    H269623   5.599   5.106   0.390 -1.0687  0.2813 -0.7182
16070TIP3   OH269624   5.867   0.434   2.017 -0.4551  0.4489 -0.2767
16070TIP3    H169625   5.829   0.446   2.104  0.2479  0.2919  0.0589
16070TIP3    H269626   5.961   0.447   2.030  0.0846 -2.5846 -0.3991
16071TIP3   OH269627   3.702   3.905   6.121 -0.3776  0.1873 -0.1985
16071TIP3    H169628   3.796   3.922   6.109 -0.6802  0.8850 -1.9370
16071TIP3    H269629   3.686   3.921   6.214  1.1050  0.6747 -0.0039
16072TIP3   OH269630   6.143   0.973   2.742  0.1464 -0.3832  0.2895
16072TIP3    H169631   6.204   0.977   2.816  0.5648 -1.2413  0.0098
16072TIP3    H269632   6.183   1.028   2.675 -1.3325  2.2433  1.4281
16073TIP3   OH269633   1.681   4.826   1.329  0.2692  0.1159  0.1012
16073TIP3    H169634   1.731   4.827   1.247  0.3780  0.8114  0.1645
16073TIP3    H269635   1.664   4.734   1.347 -0.2859 -0.0149 -1.0290
16074TIP3   OH269636   0.286   1.867  16.852  0.2312  0.3489  0.0597
16074TIP3    H169637   0.208   1.897  16.804 -0.3000 -1.9413 -0.6104
16074TIP3    H269638   0.254   1.850  16.941 -0.4143 -1.8172 -0.5300
16075TIP3   OH269639   5.662   5.793  15.613  0.1725 -0.6675 -0.2934
16075TIP3    H169640   5.704   5.764  15.694 -2.3605 -1.3201  0.8910
16075TIP3    H269641   5.580   5.833  15.641  0.3679  1.4481 -2.4170
16076TIP3   OH269642   6.387   2.964   2.494 -0.2905  0.1889  0.0216
16076TIP3    H169643   6.451   2.940   2.561  1.7971 -0.0938 -1.9338
16076TIP3    H269644   6.432   2.946   2.411 -2.6574  0.7400 -1.4734
16077TIP3   OH269645   4.266   6.150  16.846  0.2155 -0.2911 -0.0767
16077TIP3    H169646   4.360   6.152  16.825  0.5916 -1.8243  1.2730
16077TIP3    H269647   4.223   6.184  16.767  1.9235  1.1364 -0.4618
16078TIP3   OH269648   1.879   1.022  15.560  0.2142 -0.0263  0.6062
16078TIP3    H169649   1.858   1.110  15.528  0.1172 -0.1789  0.2483
16078TIP3    H269650   1.797   0.973  15.551  0.7951 -0.7495 -1.2145
16079TIP3   OH269651   0.139   4.756   6.504  0.2269 -0.1061 -0.0766
16079TIP3    H169652   0.167   4.736   6.414  1.3938 -0.9438  0.4494
16079TIP3    H269653   0.085   4.834   6.494 -2.0013 -1.7347 -1.8439
16080TIP3   OH269654   5.552   2.251   5.392  0.2536  0.0873 -0.1351
16080TIP3    H169655   5.596   2.323   5.348 -0.9841  0.4657 -0.8224
16080TIP3    H269656   5.523   2.287   5.476 -1.2170  0.7382 -0.8790
16081TIP3   OH269657   0.615   5.267   0.617  0.6837 -0.5699  0.4072
16081TIP3    H169658   0.623   5.235   0.528  1.3131  0.9314 -0.1170
16081TIP3    H269659   0.667   5.348   0.618 -2.9298  2.0064  0.8291
16082TIP3   OH269660   3.156   1.052  15.487  0.6988 -0.4414  0.2340
16082TIP3    H169661   3.088   1.060  15.419  1.3809  1.6276 -0.2729
16082TIP3    H269662   3.142   0.965  15.524 -0.6506 -1.0483 -1.5400
16083TIP3   OH269663   4.740   3.644   4.417 -0.1661  0.3818  0.2068
16083TIP3    H169664   4.645   3.647   4.432 -0.0264 -1.0368  1.5843
16083TIP3    H269665   4.764   3.554   4.437  1.5137  0.7794  0.0585
16084TIP3   OH269666   3.402   1.958  15.966  0.0714  0.3597 -0.0489
16084TIP3    H169667   3.430   1.988  16.052 -0.0349  0.6059 -0.0999
16084TIP3    H269668   3.484   1.942  15.918  0.1421  1.7767 -0.4419
16085TIP3   OH269669   2.073   3.739   2.333  0.0734 -0.1112  0.8830
16085TIP3    H169670   2.029   3.726   2.249  0.5359  0.1670  0.5936
16085TIP3    H269671   2.055   3.659   2.383 -2.5157  0.8185  1.5906
16086TIP3   OH269672   0.700   3.003  14.806 -0.3182  0.2737 -0.5108
16086TIP3    H169673   0.776   2.988  14.750 -1.0689 -0.4291 -1.3718
16086TIP3    H269674   0.642   3.058  14.753 -1.0301 -0.3916 -0.4364
16087TIP3   OH269675   1.782   3.098  16.860 -0.7668  0.0709 -0.0312
16087TIP3    H169676   1.713   3.036  16.837 -1.0023 -0.1526  1.1796
16087TIP3    H269677   1.853   3.079  16.799 -1.8420  0.4543 -1.4512
16088TIP3   OH269678   4.862   0.232  14.716  0.0984 -0.1030  0.9433
16088TIP3    H169679   4.792   0.196  14.771 -1.2544  0.4660 -0.3320
16088TIP3    H269680   4.897   0.157  14.668 -0.6829 -0.1849  0.4824
16089TIP3   OH269681   5.385   4.035  12.584  0.0664  0.5975 -0.0987
16089TIP3    H169682   5.475   4.040  12.618  0.6193  2.1698 -1.6570
16089TIP3    H269683   5.331   4.064  12.658  0.7150 -1.1450  1.1313
16090TIP3   OH269684   4.143   2.510  13.398  0.3531 -0.4652 -0.3895
16090TIP3    H169685   4.160   2.430  13.448 -0.5026 -0.4278 -0.0153
16090TIP3    H269686   4.117   2.574  13.465 -0.6032 -0.3504 -0.8634
16091TIP3   OH269687   2.669   2.439   1.179  0.1642  0.1463 -0.1407
16091TIP3    H169688   2.592   2.414   1.129 -0.4279  0.7749  0.4296
16091TIP3    H269689   2.730   2.366   1.169 -0.3377 -0.1678 -0.9433
16092TIP3   OH269690   1.871   5.599   2.432 -0.5750  0.0425 -0.3583
16092TIP3    H169691   1.910   5.683   2.406 -2.0235  1.3916  1.5250
16092TIP3    H269692   1.780   5.606   2.405 -0.2886 -1.8226 -1.9950
16093TIP3   OH269693   5.762   0.226   2.340  0.5811  0.2543 -0.0851
16093TIP3    H169694   5.847   0.208   2.301  1.0017  0.0198  0.9100
16093TIP3    H269695   5.727   0.140   2.364 -0.1807  0.3041 -0.9675
16094TIP3   OH269696   1.357   4.960  13.338  0.4684  0.5994 -0.1195
16094TIP3    H169697   1.433   4.980  13.283  0.4665  0.6918 -0.0877
16094TIP3    H269698   1.389   4.967  13.427  0.3546  0.9023 -0.1021
16095TIP3   OH269699   0.875   3.443   5.174 -0.3280 -0.5612 -0.6916
16095TIP3    H169700   0.966   3.421   5.199 -0.5068 -0.1760  0.3616
16095TIP3    H269701   0.844   3.366   5.127 -0.3437 -1.8758  1.3598
16096TIP3   OH269702   2.643   2.271   2.581 -0.1068  0.7108 -1.2138
16096TIP3    H169703   2.660   2.289   2.489  0.9254  0.5515 -1.0594
16096TIP3    H269704   2.726   2.286   2.625 -0.4621  0.3045 -0.3718
16097TIP3   OH269705   4.054   3.323   5.743  0.3276 -0.6110 -0.4508
16097TIP3    H169706   4.044   3.418   5.752 -0.2372 -0.8240  1.8513
16097TIP3    H269707   4.074   3.293   5.832 -1.0665 -2.8336 -0.8170
16098TIP3   OH269708   4.791   3.476   5.060  0.4584  1.0032 -0.7622
16098TIP3    H169709   4.754   3.552   5.015 -2.4255  0.8434  1.0931
16098TIP3    H269710   4.769   3.402   5.004 -2.0873  0.9417  0.1665
16099TIP3   OH269711   4.682   1.169   1.663 -0.1227  0.2833 -0.6602
16099TIP3    H169712   4.656   1.228   1.734 -1.0977 -2.1085  1.1102
16099TIP3    H269713   4.746   1.111   1.703  1.1027  0.3040 -2.4623
16100TIP3   OH269714   2.045   1.557   3.577  0.0670 -0.7546 -0.2987
16100TIP3    H169715   1.992   1.565   3.497 -1.7415 -0.0290  0.8891
16100TIP3    H269716   2.016   1.475   3.617 -0.5515 -0.1345  0.5822
16101TIP3   OH269717   2.928   6.430  14.802 -0.4473 -0.8444 -0.0067
16101TIP3    H169718   2.877   6.362  14.759 -1.3996  0.6024 -1.2438
16101TIP3    H269719   2.910   6.509  14.752  0.6787  0.3236  1.3535
16102TIP3   OH269720   5.702   0.766  16.780 -0.3445  0.0387  0.1957
16102TIP3    H169721   5.789   0.792  16.810 -0.2565 -0.3331  0.2704
16102TIP3    H269722   5.676   0.835  16.719 -0.2569  0.4689  0.6354
16103TIP3   OH269723   3.934   2.973  12.525 -0.0301 -0.2795  0.6971
16103TIP3    H169724   3.886   2.897  12.492  1.2682 -1.5236  1.5570
16103TIP3    H269725   4.021   2.965  12.487  0.0181  1.0652  0.4456
16104TIP3   OH269726   5.631   5.565   1.606  0.3248  0.5516 -0.2141
16104TIP3    H169727   5.725   5.582   1.610  0.5361 -0.7303  0.5182
16104TIP3    H269728   5.620   5.512   1.527  0.4195 -0.4358  0.4190
16105TIP3   OH269729   0.539   0.434   1.079 -0.4162 -0.1876 -0.2920
16105TIP3    H169730   0.467   0.446   1.141 -1.3981 -1.6529 -1.0825
16105TIP3    H269731   0.558   0.340   1.082  2.0929  0.2673  0.5177
16106TIP3   OH269732   5.357   3.041  11.208  0.1770  0.0363  0.2850
16106TIP3    H169733   5.426   3.024  11.272 -0.3732  0.7220  1.1021
16106TIP3    H269734   5.276   3.022  11.256 -0.2086 -0.6490 -0.6218
16107TIP3   OH269735   2.098   1.039  12.108  0.4714  0.2403 -0.0658
16107TIP3    H169736   2.052   1.037  12.024  0.2146 -1.4489  0.0768
16107TIP3    H269737   2.056   1.111  12.156  0.4784  1.0920 -1.2823
16108TIP3   OH269738   4.831   3.828   6.057  0.0990 -0.2096 -0.0348
16108TIP3    H169739   4.868   3.913   6.034 -1.5941  0.7371  0.5989
16108TIP3    H269740   4.817   3.833   6.151  4.3794 -3.0001  1.0827
16109TIP3   OH269741   3.822   2.068  12.900 -0.3256 -0.3814  0.0469
16109TIP3    H169742   3.742   2.120  12.906 -0.2233  0.0242 -1.5740
16109TIP3    H269743   3.846   2.072  12.807  0.6715 -1.8594  0.2074
16110TIP3   OH269744   0.644   3.130   2.701 -0.5458 -0.2519  0.0261
16110TIP3    H169745   0.594   3.210   2.717 -2.0016 -1.4911  2.3529
16110TIP3    H269746   0.654   3.091   2.788  1.0713 -2.0597 -0.9056
16111TIP3   OH269747   5.512   5.018   0.076 -0.0554  0.0706 -0.6590
16111TIP3    H169748   5.521   4.950   0.010  2.4021 -0.6878  0.3638
16111TIP3    H269749   5.467   4.975   0.149 -0.7686  0.2913 -0.9550
16112TIP3   OH269750   6.221   5.939  17.102 -0.0557  0.1227 -0.7654
16112TIP3    H169751   6.232   5.895  17.018  1.2541 -0.2964 -0.3991
16112TIP3    H269752   6.310   5.964  17.127 -0.5364  1.0084  0.0867
16113TIP3   OH269753   1.931   2.603  16.868  0.0734 -0.2598 -0.3781
16113TIP3    H169754   1.841   2.630  16.882  0.1739 -0.4518  0.6824
16113TIP3    H269755   1.976   2.625  16.949  1.2655  0.9298 -1.3267
16114TIP3   OH269756   2.082   3.465   5.032 -0.0556 -0.3971 -0.3995
16114TIP3    H169757   2.007   3.483   4.975  0.2279 -0.9497 -0.9655
16114TIP3    H269758   2.063   3.512   5.113 -0.5768  0.2219 -0.8689
16115TIP3   OH269759   2.626   1.667  14.714 -0.1989  0.7795  0.8122
16115TIP3    H169760   2.677   1.683  14.634  0.7136  1.8373  1.5742
16115TIP3    H269761   2.625   1.572  14.723  0.2012  0.6708 -0.1344
16116TIP3   OH269762   1.471   6.401  13.442  0.0426  0.1041  0.4161
16116TIP3    H169763   1.381   6.410  13.410  0.3174 -2.7987 -1.5472
16116TIP3    H269764   1.461   6.374  13.533 -1.0872 -0.1898  0.2230
16117TIP3   OH269765   4.471   2.433   5.564  0.5336 -0.5468  0.2697
16117TIP3    H169766   4.397   2.373   5.557  1.1271 -1.2894  0.3092
16117TIP3    H269767   4.547   2.382   5.536  1.3350 -0.3680  1.9807
16118TIP3   OH269768   2.623   2.018   3.380 -0.1918  0.6727 -0.0703
16118TIP3    H169769   2.643   2.111   3.385  1.0958  0.3618  1.5633
16118TIP3    H269770   2.704   1.977   3.350 -0.2900 -0.0287  0.5647
16119TIP3   OH269771   1.086   2.076  14.431  0.1087  0.0886  0.1510
16119TIP3    H169772   1.093   2.126  14.350  1.9058 -0.2720  0.0352
16119TIP3    H269773   0.993   2.080  14.455  0.1951  3.8284  0.4051
16120TIP3   OH269774   4.211   1.141  12.470  0.4979  0.4320  0.0204
16120TIP3    H169775   4.230   1.136  12.376  0.8229  2.2115 -0.0537
16120TIP3    H269776   4.173   1.056  12.492 -0.1547  0.1998 -1.8514
16121TIP3   OH269777   3.123   2.491   2.901 -0.3709 -0.1785  0.0953
16121TIP3    H169778   3.180   2.425   2.861 -0.1136  1.6901 -2.9428
16121TIP3    H269779   3.035   2.455   2.891 -0.0403 -1.4313  1.4169
16122TIP3   OH269780   6.450   5.136  14.102  0.2253 -0.2247 -0.3123
16122TIP3    H169781   6.387   5.154  14.032 -0.2375  0.7114  0.3351
16122TIP3    H269782   6.530   5.182  14.076  0.6736 -1.4178 -1.1369
16123TIP3   OH269783   1.471   0.990  11.081 -0.1132 -0.5498  0.6097
16123TIP3    H169784   1.462   1.002  11.176 -1.0175 -0.1850  0.4839
16123TIP3    H269785   1.468   1.078  11.045 -0.9085 -0.7512  0.1580
16124TIP3   OH269786   6.036   5.089  13.421  0.3363  0.0802 -0.0482
16124TIP3    H169787   6.087   5.170  13.418 -2.4785  2.0159 -0.4223
16124TIP3    H269788   6.028   5.062  13.330 -0.1646  0.4028 -0.1049
16125TIP3   OH269789   3.025   6.384   5.018  0.1370  0.1096  0.0174
16125TIP3    H169790   3.085   6.313   4.994  1.1347  0.6597  0.7911
16125TIP3    H269791   2.939   6.353   4.991  0.7602 -0.7071 -1.1334
16126TIP3   OH269792   5.427   1.680  13.013 -0.1833  0.2267  0.2556
16126TIP3    H169793   5.370   1.635  12.951 -0.7491 -0.2530  1.1103
16126TIP3    H269794   5.512   1.636  13.002 -0.5942 -0.7225  0.7068
16127TIP3   OH269795   4.063   3.558  14.948  0.0916  0.0079 -0.4896
16127TIP3    H169796   4.088   3.508  14.870 -0.5679 -0.6950 -0.2584
16127TIP3    H269797   3.970   3.577  14.936 -0.4050 -1.3842  0.7905
16128TIP3   OH269798   5.631   2.804  10.205 -0.2506 -0.5876  0.2396
16128TIP3    H169799   5.573   2.864  10.252  0.0546 -1.6147  2.0055
16128TIP3    H269800   5.575   2.766  10.138 -1.1390 -0.2400  0.7565
16129TIP3   OH269801   2.596   3.412   2.242 -0.0108 -0.3698  0.1410
16129TIP3    H169802   2.567   3.458   2.163  0.9732 -2.2562 -1.4088
16129TIP3    H269803   2.692   3.419   2.239  0.0266 -0.3249  1.2868
16130TIP3   OH269804   2.172   6.467   0.118 -0.5602 -0.3420  0.0279
16130TIP3    H169805   2.119   6.481   0.039 -1.4214  0.2953  0.6961
16130TIP3    H269806   2.179   6.371   0.125 -1.1957 -0.4245 -0.3629
16131TIP3   OH269807   1.449   2.060  11.640 -0.4011  0.7824 -0.4513
16131TIP3    H169808   1.536   2.070  11.679 -0.2038  0.0667 -0.6990
16131TIP3    H269809   1.456   2.104  11.555 -0.7166  1.9930  0.1192
16132TIP3   OH269810   5.017   2.462  12.039 -0.4912  0.2636  0.5674
16132TIP3    H169811   5.067   2.471  12.121 -0.2625 -0.5475  0.5309
16132TIP3    H269812   4.999   2.368  12.033  1.1014  0.0142 -1.2592
16133TIP3   OH269813   2.397   4.397   0.012 -0.2783 -0.3462 -0.3311
16133TIP3    H169814   2.366   4.329   0.072 -0.9575 -2.8383 -3.2711
16133TIP3    H269815   2.461   4.352  -0.044 -0.6881  1.4315 -2.3390
16134TIP3   OH269816   2.238   2.425   4.312 -0.6119 -0.0346 -0.0258
16134TIP3    H169817   2.238   2.337   4.274 -1.4815  0.2930 -0.8278
16134TIP3    H269818   2.320   2.429   4.362 -0.2687 -1.0859 -0.4632
16135TIP3   OH269819   1.835   3.635   1.566 -0.3168  0.3476  0.4298
16135TIP3    H169820   1.856   3.545   1.587 -1.4242  0.2946  1.4397
16135TIP3    H269821   1.800   3.632   1.477  3.0681  0.3539 -1.0184
16136TIP3   OH269822   1.641   5.154  12.699 -0.5701 -0.4308 -0.0950
16136TIP3    H169823   1.578   5.216  12.737 -1.5091 -2.2502  1.4528
16136TIP3    H269824   1.672   5.198  12.619 -3.7345  0.6212 -0.9051
16137TIP3   OH269825   4.131   1.248   1.230  0.3033  0.0686  0.0024
16137TIP3    H169826   4.129   1.297   1.148  0.7655 -0.0954 -0.1127
16137TIP3    H269827   4.110   1.313   1.297  3.4604  1.1062  0.1594
16138TIP3   OH269828   1.076   6.730   3.267  0.5112  0.0408  0.7311
16138TIP3    H169829   1.017   6.777   3.326 -0.6419 -1.2010  0.6037
16138TIP3    H269830   1.155   6.784   3.265 -0.4790  1.5868  1.1705
16139TIP3   OH269831   0.916   6.251   0.414 -0.5951  0.2747 -0.3701
16139TIP3    H169832   0.869   6.253   0.331 -1.9957  0.6261  0.3970
16139TIP3    H269833   0.925   6.343   0.439  0.6491  0.2186 -0.5713
16140TIP3   OH269834   0.242   6.446   4.892 -0.2102  0.0517 -0.3094
16140TIP3    H169835   0.318   6.400   4.857  0.1296  0.3175  0.0637
16140TIP3    H269836   0.221   6.397   4.972 -0.7893 -0.3663 -0.7105
16141TIP3   OH269837   5.593   0.142   5.269  0.1362  0.2021 -0.0088
16141TIP3    H169838   5.501   0.128   5.245  0.6349 -1.2684 -1.2463
16141TIP3    H269839   5.615   0.065   5.321  0.7990  0.3032 -0.1346
16142TIP3   OH269840   5.511   4.507  11.191  0.3569 -0.4383 -0.2680
16142TIP3    H169841   5.599   4.469  11.185  0.8240  0.7137 -1.2617
16142TIP3    H269842   5.491   4.508  11.285  2.3659  1.3115  0.2287
16143TIP3   OH269843   6.247   3.657   2.182  0.2870 -0.1875  0.3689
16143TIP3    H169844   6.239   3.735   2.236 -2.2483  0.7147 -1.1356
16143TIP3    H269845   6.315   3.678   2.119 -0.4210  0.9000 -0.0668
16144TIP3   OH269846   5.990   5.172   4.883 -0.5019 -0.0471 -0.0740
16144TIP3    H169847   5.969   5.251   4.932 -0.4920 -0.1150  0.0396
16144TIP3    H269848   6.028   5.113   4.948 -0.0181  0.0503 -0.2672
16145TIP3   OH269849   2.411   1.891   0.679 -0.5633 -0.5122  0.4202
16145TIP3    H169850   2.404   1.901   0.585  0.2513 -1.2189  0.2728
16145TIP3    H269851   2.357   1.815   0.700 -1.6682  0.3279  0.6890
16146TIP3   OH269852   4.103   2.725  11.309  0.6335 -0.3949 -0.2700
16146TIP3    H169853   4.169   2.795  11.309 -1.4973  1.7581 -0.3153
16146TIP3    H269854   4.145   2.652  11.355  3.1923  0.6446 -0.7616
16147TIP3   OH269855   4.327   4.800  15.122  0.4381 -0.4701  0.3251
16147TIP3    H169856   4.413   4.834  15.099  0.4430 -0.7037 -0.0141
16147TIP3    H269857   4.274   4.877  15.141  0.5370 -0.2877 -0.1211
16148TIP3   OH269858   3.670   2.443  16.624  0.1438 -0.3265 -0.1784
16148TIP3    H169859   3.639   2.522  16.579  0.9873 -0.2611 -0.6646
16148TIP3    H269860   3.693   2.382  16.553 -1.4230 -1.3930  0.1954
16149TIP3   OH269861   3.788   5.186  13.352  0.3600 -0.0257 -0.0481
16149TIP3    H169862   3.846   5.207  13.278  0.2890 -0.0887 -0.1218
16149TIP3    H269863   3.820   5.242  13.423  1.1200 -0.7486  0.1945
16150TIP3   OH269864   6.505   1.932  17.030 -0.9705  0.2996 -0.0062
16150TIP3    H169865   6.530   2.002  17.090  2.1678 -0.1892 -0.5639
16150TIP3    H269866   6.497   1.974  16.945  1.4028  0.0537 -0.4385
16151TIP3   OH269867   3.169   3.620  12.148  0.8159  0.4934 -0.3714
16151TIP3    H169868   3.215   3.536  12.147  0.5163  0.2912  1.1315
16151TIP3    H269869   3.077   3.597  12.145  0.7505  0.8558 -1.8514
16152TIP3   OH269870   2.244   1.560   5.973 -1.0387 -0.4528 -0.8262
16152TIP3    H169871   2.215   1.477   5.935 -1.0138 -1.0505  0.3982
16152TIP3    H269872   2.209   1.558   6.062 -1.7770  1.2600 -1.0530
16153TIP3   OH269873   1.751   3.891  13.983 -0.2120 -0.0763  0.1750
16153TIP3    H169874   1.694   3.927  14.051 -0.6155 -1.6417  0.7142
16153TIP3    H269875   1.718   3.930  13.902 -1.1069  0.1911  0.6481
16154TIP3   OH269876   6.629   6.374  11.550  0.4875  0.3117  0.3301
16154TIP3    H169877   6.604   6.401  11.462  1.1953  0.1303  0.0723
16154TIP3    H269878   6.646   6.280  11.544 -0.7633  0.0208  0.9593
16155TIP3   OH269879   6.346   6.395  12.421  0.2654  0.1271  0.3005
16155TIP3    H169880   6.284   6.323  12.437 -1.7740  1.5453 -0.8349
16155TIP3    H269881   6.294   6.474  12.429  1.8586  1.4001 -1.1098
16156TIP3   OH269882   4.603   5.038   1.178 -0.4513 -0.0978  0.0101
16156TIP3    H169883   4.638   5.024   1.266 -1.3270  2.7349  0.9107
16156TIP3    H269884   4.620   5.130   1.160 -0.1945 -0.6313 -2.8953
16157TIP3   OH269885   4.364   3.362  14.060 -0.0537 -0.2466 -0.8764
16157TIP3    H169886   4.420   3.439  14.074  1.0760 -0.6783 -2.6096
16157TIP3    H269887   4.300   3.391  13.994 -1.1964 -0.0952  0.2711
16158TIP3   OH269888   1.265   3.393  14.197  0.2230  0.2025 -0.5135
16158TIP3    H169889   1.199   3.460  14.219  1.1826  1.3413 -0.9864
16158TIP3    H269890   1.214   3.315  14.177 -0.9533  0.8519 -0.1601
16159TIP3   OH269891   1.826   0.362  11.389 -0.4693  0.2063  0.3719
16159TIP3    H169892   1.916   0.342  11.364 -0.4228 -1.0198  1.3832
16159TIP3    H269893   1.777   0.363  11.306  0.1570 -0.9411 -0.0347
16160TIP3   OH269894   6.753   0.212   4.483 -0.4637  0.8862 -0.0647
16160TIP3    H169895   6.808   0.134   4.479 -1.2120  0.3101  0.3881
16160TIP3    H269896   6.763   0.254   4.398 -0.9343 -0.3375 -0.7435
16161TIP3   OH269897   3.387   1.532  13.603 -0.2779  0.4400 -0.6851
16161TIP3    H169898   3.419   1.620  13.623  0.4154 -0.0493  0.3905
16161TIP3    H269899   3.335   1.507  13.679 -0.7385  0.0326 -1.1262
16162TIP3   OH269900   6.537   1.453  15.842 -0.0655  0.4649  0.0742
16162TIP3    H169901   6.530   1.364  15.808  0.4168  0.1507  0.7704
16162TIP3    H269902   6.506   1.509  15.771 -0.8755 -0.2914 -0.1709
16163TIP3   OH269903   4.950   0.087   5.514  0.6334  0.0359  0.3287
16163TIP3    H169904   4.869   0.072   5.466  0.9422  0.4786 -0.3458
16163TIP3    H269905   4.922   0.113   5.601  0.0700 -1.8597  0.7564
16164TIP3   OH269906   5.939   0.682  14.417  0.4929  0.5920  0.0571
16164TIP3    H169907   5.868   0.702  14.356  0.3559  0.9296  0.3268
16164TIP3    H269908   5.896   0.642  14.492  0.6375  0.3892  0.0339
16165TIP3   OH269909   5.747   6.614   3.838 -0.1773  0.2133  0.2233
16165TIP3    H169910   5.708   6.574   3.760  0.2693  0.4557 -0.1291
16165TIP3    H269911   5.691   6.585   3.910  0.9947 -2.3324  0.1924
16166TIP3   OH269912   5.719   1.041  14.706 -0.1945 -0.4239  0.3852
16166TIP3    H169913   5.700   1.084  14.789  1.1246 -1.1371  1.0955
16166TIP3    H269914   5.795   0.986  14.725  1.1605  0.6045 -1.6731
16167TIP3   OH269915   2.345   5.487  14.598 -0.0422  0.1167 -0.1586
16167TIP3    H169916   2.295   5.566  14.619 -1.3291 -0.7435  0.1244
16167TIP3    H269917   2.283   5.432  14.550  0.1564 -1.5667  1.4318
16168TIP3   OH269918   4.310   4.823  12.828  0.4609 -0.1756 -0.3354
16168TIP3    H169919   4.316   4.731  12.852 -1.2151 -0.7554 -1.8534
16168TIP3    H269920   4.373   4.834  12.757  1.7309  0.2557  0.8239
16169TIP3   OH269921   4.050   0.466   0.951 -0.1094 -0.8174  0.2401
16169TIP3    H169922   4.117   0.401   0.930  0.1927 -0.3287 -0.3364
16169TIP3    H269923   3.973   0.415   0.975  0.6472 -1.3945  1.5583
16170TIP3   OH269924   0.657   6.183   1.266  0.4700  0.3391 -0.4071
16170TIP3    H169925   0.697   6.115   1.211  0.4595  1.2462 -1.5583
16170TIP3    H269926   0.708   6.180   1.347  0.9028 -0.5820 -0.6937
16171TIP3   OH269927   3.882   2.913   3.907  0.5175 -0.0111 -0.3075
16171TIP3    H169928   3.977   2.917   3.901  0.7180  0.2739  2.1869
16171TIP3    H269929   3.851   2.992   3.862  1.5938  1.0838  0.8101
16172TIP3   OH269930   0.235   5.778  11.152  0.2253 -0.2265  0.4403
16172TIP3    H169931   0.326   5.807  11.156  1.3322 -2.8332 -2.2920
16172TIP3    H269932   0.197   5.825  11.078  0.7467 -2.2109 -1.1942
16173TIP3   OH269933   5.942   1.541   2.774  0.2184  0.1167  0.1661
16173TIP3    H169934   5.916   1.518   2.685 -0.3107 -0.6027  0.4951
16173TIP3    H269935   5.951   1.456   2.819  0.6957  0.4620  0.7339
16174TIP3   OH269936   2.982   1.860  13.252 -0.0762  0.3183 -0.3052
16174TIP3    H169937   3.014   1.914  13.324  1.0146 -0.4388 -0.2128
16174TIP3    H269938   2.996   1.914  13.174  0.9710  0.2117 -0.2078
16175TIP3   OH269939   0.385   5.834  14.372 -0.2988 -0.0602  0.2493
16175TIP3    H169940   0.369   5.874  14.286  1.5308  0.6857  0.2088
16175TIP3    H269941   0.381   5.907  14.433 -1.4884 -0.5731  0.8030
16176TIP3   OH269942   5.628   6.366  10.645 -0.0631 -0.2987 -0.2332
16176TIP3    H169943   5.669   6.440  10.690  1.9182  0.5014 -3.0862
16176TIP3    H269944   5.541   6.398  10.622 -1.8329 -1.2894  4.0975
16177TIP3   OH269945   4.063   4.804  11.617 -0.2377  0.0251 -0.7269
16177TIP3    H169946   4.153   4.771  11.620 -0.6983 -1.2841  1.7854
16177TIP3    H269947   4.063   4.878  11.677 -1.5210 -2.3048  2.4409
16178TIP3   OH269948   4.714   0.652  13.216  0.6919 -0.3280 -0.3740
16178TIP3    H169949   4.703   0.629  13.124  2.4631  0.7021 -0.8978
16178TIP3    H269950   4.667   0.735  13.226 -1.9941 -1.8196  0.4454
16179TIP3   OH269951   1.559   6.103  15.514  0.6849 -0.1342 -0.0799
16179TIP3    H169952   1.477   6.075  15.555  0.2976 -0.7188 -1.2073
16179TIP3    H269953   1.536   6.182  15.465 -0.0875 -2.0463 -3.1092
16180TIP3   OH269954   3.765   2.204   2.643  0.5651  0.6500  0.3552
16180TIP3    H169955   3.699   2.136   2.662  0.4361  1.2300  2.1771
16180TIP3    H269956   3.728   2.253   2.570  1.0036 -1.6536 -1.5323
16181TIP3   OH269957   1.937   1.310   2.013  0.0507  0.2274  0.0746
16181TIP3    H169958   1.993   1.306   1.936 -1.5383 -1.0208 -1.0938
16181TIP3    H269959   1.984   1.258   2.079  0.6369 -0.1366 -0.6123
16182TIP3   OH269960   5.038   5.929  10.602  0.0588  0.3273  0.3604
16182TIP3    H169961   4.980   6.003  10.584 -1.7994 -0.3924  2.7839
16182TIP3    H269962   5.105   5.965  10.660  1.4871  0.9031 -1.5498
16183TIP3   OH269963   4.021   1.348  11.909 -0.0209 -0.2487 -0.1350
16183TIP3    H169964   4.105   1.377  11.944  0.0527  0.3943 -0.8201
16183TIP3    H269965   4.040   1.322  11.819 -0.5557 -0.0476 -0.3129
16184TIP3   OH269966   5.060   2.879  11.650 -0.6777 -0.7735  0.2669
16184TIP3    H169967   4.964   2.878  11.651 -0.6768 -0.6299  0.9832
16184TIP3    H269968   5.084   2.816  11.581 -1.2852 -0.9103  0.1778
16185TIP3   OH269969   3.296   5.728  11.671 -0.0384 -0.1849 -0.4565
16185TIP3    H169970   3.245   5.681  11.605 -0.4086 -0.2440 -0.1267
16185TIP3    H269971   3.233   5.754  11.737 -0.0325  1.7206 -1.1508
16186TIP3   OH269972   3.195   3.608  12.848  0.0928  0.4217  0.2363
16186TIP3    H169973   3.233   3.691  12.821  0.2290 -0.1217 -1.3592
16186TIP3    H269974   3.111   3.631  12.888 -0.6911  1.2510 -1.7656
16187TIP3   OH269975   2.755   1.419   6.233 -0.2716 -0.4095  0.4496
16187TIP3    H169976   2.798   1.448   6.152 -1.4355 -0.5354 -0.2307
16187TIP3    H269977   2.825   1.378   6.283  0.3413 -0.9338 -0.7898
16188TIP3   OH269978   4.896   1.232  13.383 -0.6359  0.1044 -0.1357
16188TIP3    H169979   4.875   1.291  13.310  1.5787 -0.7314 -1.5291
16188TIP3    H269980   4.879   1.285  13.461 -2.8466  1.1090 -1.2021
16189TIP3   OH269981   0.196   1.083   1.535  0.2959  0.0191  0.4633
16189TIP3    H169982   0.137   1.057   1.606  1.3114 -0.5290  1.1327
16189TIP3    H269983   0.283   1.061   1.567  0.7358 -1.0367 -1.2816
16190TIP3   OH269984   4.917   1.585   4.484  0.1593  0.0500  0.1991
16190TIP3    H169985   4.950   1.670   4.515  0.2304 -0.0752  0.4697
16190TIP3    H269986   4.884   1.542   4.563 -0.4729  0.0887 -0.0393
16191TIP3   OH269987   4.954   2.203   0.782 -0.2410 -0.1668 -0.4823
16191TIP3    H169988   4.879   2.161   0.823  0.4759 -1.1414 -0.1455
16191TIP3    H269989   4.916   2.272   0.727 -1.4632 -1.3630 -1.1949
16192TIP3   OH269990   0.469   3.139  15.020 -0.3918  0.2346  0.6922
16192TIP3    H169991   0.518   3.059  15.039  2.3958  1.7468  0.4284
16192TIP3    H269992   0.441   3.171  15.106  1.2907  0.5917  1.1430
16193TIP3   OH269993   1.483   3.687  12.942  0.3366 -0.3224 -0.4506
16193TIP3    H169994   1.536   3.763  12.921  1.4513 -0.9944 -0.1722
16193TIP3    H269995   1.409   3.691  12.881  1.0597  0.2776 -1.3071
16194TIP3   OH269996   6.475   2.960   4.742 -0.2115  0.1430 -0.6942
16194TIP3    H169997   6.487   3.055   4.745  1.2906 -0.0456  1.0452
16194TIP3    H269998   6.562   2.925   4.762 -1.1450 -1.5665  0.6037
16195TIP3   OH269999   6.222   0.589  10.163 -0.8767 -0.3928  0.1320
16195TIP3    H170000   6.255   0.588  10.253 -0.4025 -0.6965 -0.0425
16195TIP3    H270001   6.298   0.613  10.111 -1.4408  1.0514 -0.0744
16196TIP3   OH270002   5.248   6.393  10.730  0.2481  0.4164 -0.0801
16196TIP3    H170003   5.286   6.418  10.814 -0.3761 -0.7225  0.5679
16196TIP3    H270004   5.199   6.313  10.748 -2.8202  2.0054 -0.7845
16197TIP3   OH270005   6.234   6.709  15.822  0.0405  0.3197 -0.5257
16197TIP3    H170006   6.233   6.763  15.742 -1.9908  1.4247  0.1674
16197TIP3    H270007   6.270   6.767  15.889  1.0042 -0.3405 -0.4624
16198TIP3   OH270008   1.437   4.961   1.319  0.2861  0.7197 -0.6685
16198TIP3    H170009   1.377   4.888   1.307  2.0140 -0.6317 -1.6098
16198TIP3    H270010   1.518   4.920   1.350  0.3933  2.6058  1.8361
16199TIP3   OH270011   3.149   3.633  17.329  0.2409  0.1453 -0.2725
16199TIP3    H170012   3.148   3.705  17.392 -2.0587 -0.7333  0.8264
16199TIP3    H270013   3.219   3.575  17.360  0.3217  0.5991  0.4304
16200TIP3   OH270014   5.037   3.691   5.893  0.1053 -0.2316  0.1946
16200TIP3    H170015   5.008   3.727   5.977  0.4106  1.8732 -0.5407
16200TIP3    H270016   5.124   3.728   5.879  0.5722 -1.5125 -0.5163
16201TIP3   OH270017   5.440   5.470   5.722  0.3422 -0.4956  0.0813
16201TIP3    H170018   5.346   5.474   5.739  0.3317 -0.5625  0.0406
16201TIP3    H270019   5.451   5.516   5.638  0.6443  1.5695  1.1928
16202TIP3   OH270020   5.411   3.367  14.057 -0.1353 -0.2548  0.1780
16202TIP3    H170021   5.421   3.454  14.018  0.1246 -0.9247 -1.2799
16202TIP3    H270022   5.319   3.345  14.041  0.7486 -2.0647 -3.5192
16203TIP3   OH270023   1.754   3.247  15.631 -0.3478 -0.0125  0.1757
16203TIP3    H170024   1.845   3.220  15.643 -0.2364  0.6003  0.8053
16203TIP3    H270025   1.750   3.275  15.540  1.1523  3.5951  1.0186
16204TIP3   OH270026   2.502   3.195   2.038 -0.3899 -0.6948  0.1576
16204TIP3    H170027   2.576   3.152   1.995 -0.2224  1.4295 -1.8443
16204TIP3    H270028   2.543   3.259   2.097 -0.5375  0.8325 -1.3185
16205TIP3   OH270029   3.909   5.607   3.249 -0.1197 -0.2094 -0.4112
16205TIP3    H170030   3.851   5.625   3.323  1.7208  0.7728  0.8399
16205TIP3    H270031   3.944   5.692   3.224  2.1169 -0.9526  0.0176
16206TIP3   OH270032   5.565   4.181  12.748 -0.2138 -0.0645  0.3375
16206TIP3    H170033   5.634   4.243  12.725 -1.1273  0.7233 -0.3239
16206TIP3    H270034   5.500   4.233  12.796 -1.0540 -0.4633 -0.3444
16207TIP3   OH270035   6.549   2.544  16.164  0.2460 -0.4735  0.2876
16207TIP3    H170036   6.460   2.512  16.171 -0.7392  1.6253 -1.2346
16207TIP3    H270037   6.563   2.594  16.244 -0.2938 -0.1145  0.1682
16208TIP3   OH270038   3.594   1.634   2.814  0.4919 -0.1812 -0.0346
16208TIP3    H170039   3.623   1.656   2.726  0.6680 -1.4329 -0.3097
16208TIP3    H270040   3.539   1.557   2.803  1.7078 -1.2661  1.0793
16209TIP3   OH270041   0.957   4.747  15.084  0.2601 -0.3551  0.3274
16209TIP3    H170042   0.886   4.756  15.148  0.4818  0.2897  0.4862
16209TIP3    H270043   0.985   4.837  15.067 -0.4280 -0.4325 -1.3808
16210TIP3   OH270044   4.550   5.534  12.262  0.3927 -0.2326 -0.0682
16210TIP3    H170045   4.635   5.511  12.223  0.4391 -1.8361  0.8841
16210TIP3    H270046   4.486   5.491  12.205  0.3394 -0.6615  0.3100
16211TIP3   OH270047   4.260   6.213  17.101 -0.2445 -0.2369  0.2600
16211TIP3    H170048   4.247   6.182  17.011 -1.2918  0.3997  0.1681
16211TIP3    H270049   4.203   6.290  17.108  1.7864  1.2963  0.6888
16212TIP3   OH270050   6.185   0.573   4.055  0.1868  0.3954  0.2075
16212TIP3    H170051   6.151   0.574   3.966 -1.6658  2.1313  0.8461
16212TIP3    H270052   6.237   0.653   4.063  3.2235 -1.3671 -0.2151
16213TIP3   OH270053   6.194   3.873  12.426 -0.1557 -0.3056  0.1015
16213TIP3    H170054   6.273   3.820  12.412 -0.0834 -0.0728 -0.4239
16213TIP3    H270055   6.155   3.880  12.339 -0.9816 -0.7556  0.4329
16214TIP3   OH270056   0.749   3.738  13.932 -0.2444 -0.6174 -0.0680
16214TIP3    H170057   0.837   3.766  13.957  0.5081 -0.2891 -2.6956
16214TIP3    H270058   0.715   3.692  14.008  1.1760  1.4769  1.9606
16215TIP3   OH270059   2.703   1.586  16.419 -0.0339  0.1290  0.0664
16215TIP3    H170060   2.718   1.661  16.362 -0.8815 -1.2632 -2.1075
16215TIP3    H270061   2.774   1.525  16.398 -0.6726 -0.6374  0.0663
16216TIP3   OH270062   0.001   4.937   1.420  0.3439  0.1353  0.1415
16216TIP3    H170063  -0.025   4.849   1.391 -0.3996  1.0129 -2.0417
16216TIP3    H270064  -0.081   4.986   1.422  0.8365  0.9353  0.7455
16217TIP3   OH270065   0.005   6.137  12.642 -0.3486  0.7563  0.4693
16217TIP3    H170066  -0.083   6.146  12.605 -0.4260  2.2599  0.9685
16217TIP3    H270067   0.063   6.173  12.575 -0.0957 -0.1367  0.1865
16218TIP3   OH270068   3.191   1.677  14.443 -0.2011  0.0111  0.4311
16218TIP3    H170069   3.185   1.652  14.534  0.4931  0.7424  0.6979
16218TIP3    H270070   3.279   1.714  14.434  1.3156 -3.5390 -1.4236
16219TIP3   OH270071   3.478   0.113  12.406 -0.0257  0.2733  0.2307
16219TIP3    H170072   3.516   0.176  12.467  0.2974 -0.1622  0.4881
16219TIP3    H270073   3.491   0.152  12.320  1.7014 -0.1840  0.2347
16220TIP3   OH270074   0.125   2.164   2.918 -0.5003 -0.1605  0.2083
16220TIP3    H170075   0.043   2.193   2.878 -0.5728 -1.1932 -0.4434
16220TIP3    H270076   0.098   2.099   2.984 -0.3898  1.6020  2.0908
16221TIP3   OH270077   0.121   2.680   0.785 -0.3012  0.6794 -0.6030
16221TIP3    H170078   0.176   2.658   0.709  1.8712  1.0596  0.7492
16221TIP3    H270079   0.156   2.626   0.856 -0.5317  2.2027  0.7365
16222TIP3   OH270080   6.363   0.016   0.934 -0.3122 -0.2626  0.0586
16222TIP3    H170081   6.296   0.085   0.936  1.1735  1.2513 -0.4378
16222TIP3    H270082   6.443   0.061   0.908  0.9361 -2.0165  0.7013
16223TIP3   OH270083   0.319   0.280  11.591  0.2287 -0.4726  0.0064
16223TIP3    H170084   0.272   0.242  11.665  0.2028  1.5665  1.0904
16223TIP3    H270085   0.255   0.284  11.521 -1.0387  1.4703  1.1954
16224TIP3   OH270086   6.469   1.916   0.401 -0.6380  0.0186 -0.3361
16224TIP3    H170087   6.414   1.992   0.387 -3.1146 -1.6041 -0.0862
16224TIP3    H270088   6.470   1.871   0.316  0.2816 -0.0271 -0.3175
16225TIP3   OH270089   2.499   4.396  15.757  0.6303 -0.5379 -0.3714
16225TIP3    H170090   2.417   4.446  15.754  0.6375 -0.5205 -0.2564
16225TIP3    H270091   2.472   4.305  15.746  0.4337 -0.7155  1.3845
16226TIP3   OH270092   4.763   4.741  11.192 -0.0947 -0.4259 -0.5205
16226TIP3    H170093   4.782   4.835  11.187  2.2144 -0.8468 -0.7720
16226TIP3    H270094   4.848   4.700  11.211 -1.2289 -2.3848  0.7546
16227TIP3   OH270095   2.561   3.280  17.216  0.7560 -0.3972  0.5894
16227TIP3    H170096   2.565   3.309  17.307  1.1216  0.7139  0.2473
16227TIP3    H270097   2.471   3.295  17.189  0.9963  0.7090  0.3472
16228TIP3   OH270098   4.112   4.150  16.670  0.2791 -0.1349  0.1402
16228TIP3    H170099   4.188   4.109  16.714 -0.1963 -1.6030 -0.3416
16228TIP3    H270100   4.042   4.146  16.736  0.4146  0.5696  0.3353
16229TIP3   OH270101   2.642   2.539  12.174 -0.2644  0.1065  0.5051
16229TIP3    H170102   2.710   2.506  12.233  0.8672 -2.6408 -2.0620
16229TIP3    H270103   2.687   2.601  12.118 -0.8887  1.3120  1.3083
16230TIP3   OH270104   4.124   2.788   4.029  0.0457 -0.5574 -0.2646
16230TIP3    H170105   4.204   2.775   4.080  0.0978  1.9769  0.4757
16230TIP3    H270106   4.144   2.861   3.970 -1.5235 -0.2101 -0.4339
16231TIP3   OH270107   6.540   1.947  14.467  0.5671 -0.5708 -0.4177
16231TIP3    H170108   6.486   1.877  14.504  1.2255 -1.2208 -0.6615
16231TIP3    H270109   6.486   2.025  14.475  0.5245 -0.7421  1.5644
16232TIP3   OH270110   3.591   5.104   1.213 -0.4314 -0.2020  0.3322
16232TIP3    H170111   3.641   5.163   1.157  0.0278 -0.9848 -0.0937
16232TIP3    H270112   3.544   5.162   1.273 -1.3997  0.6979 -1.2388
16233TIP3   OH270113   6.060   6.216  11.176  0.4020 -0.1642 -0.0021
16233TIP3    H170114   6.118   6.274  11.126 -1.3297  0.2751 -1.6101
16233TIP3    H270115   6.018   6.161  11.110  2.1052 -3.5399  1.4765
16234TIP3   OH270116   6.661   4.131   2.300  0.3240  0.3285 -0.3953
16234TIP3    H170117   6.578   4.144   2.346  2.0441  1.9087  2.5836
16234TIP3    H270118   6.673   4.209   2.247  0.0906  0.2674 -0.5377
16235TIP3   OH270119   1.348   6.699   1.643  0.0500  0.4921 -0.1139
16235TIP3    H170120   1.380   6.621   1.689 -1.2470  0.4008  0.6648
16235TIP3    H270121   1.372   6.684   1.551 -1.3776 -1.5074 -0.2221
16236TIP3   OH270122   1.360   3.206   3.259 -0.1834 -0.2895 -0.1840
16236TIP3    H170123   1.324   3.179   3.174  0.4141 -0.0561 -0.5169
16236TIP3    H270124   1.339   3.299   3.266 -0.0035 -0.2485 -0.1920
16237TIP3   OH270125   0.457   1.555  15.719  0.0982 -0.6352 -0.0793
16237TIP3    H170126   0.523   1.602  15.770 -0.9715 -0.4982  1.2369
16237TIP3    H270127   0.483   1.568  15.628  1.4976 -0.0322  0.3804
16238TIP3   OH270128   4.056   1.587   5.338 -0.0044  0.1000  0.4300
16238TIP3    H170129   4.022   1.535   5.411  1.5307 -1.4120  0.1323
16238TIP3    H270130   4.061   1.676   5.373 -1.4088 -0.1829  1.4228
16239TIP3   OH270131   1.981   5.879   0.698 -0.1546  0.0354  0.2225
16239TIP3    H170132   2.072   5.886   0.726  0.1771 -1.1989 -0.4627
16239TIP3    H270133   1.932   5.930   0.762  1.0666  1.1778  0.2903
16240TIP3   OH270134   2.900   2.966   3.580 -0.2152  0.1655  0.4724
16240TIP3    H170135   2.955   2.975   3.503  1.4308  0.2415  1.5900
16240TIP3    H270136   2.811   2.964   3.547  0.4914 -1.0327 -1.5232
16241TIP3   OH270137   3.652   3.451   5.289 -0.7792 -0.1117  0.0918
16241TIP3    H170138   3.618   3.536   5.261 -0.4388 -0.4296 -1.3212
16241TIP3    H270139   3.578   3.411   5.335 -0.8532  1.0467  1.0496
16242TIP3   OH270140   3.365   3.609  10.632  0.7675  0.0560 -0.9686
16242TIP3    H170141   3.269   3.610  10.638  0.8124  1.4223  0.0169
16242TIP3    H270142   3.384   3.551  10.558 -0.8753  0.9153 -2.1185
16243TIP3   OH270143   3.120   1.465   4.244  0.0527  0.2978  0.2169
16243TIP3    H170144   3.106   1.557   4.268  0.5013 -0.0189  1.7976
16243TIP3    H270145   3.198   1.466   4.190  0.2379  0.8212  0.4825
16244TIP3   OH270146   1.240   2.564   0.034 -0.4660  0.6024 -0.1631
16244TIP3    H170147   1.203   2.489  -0.013  1.5225 -0.7687  0.3424
16244TIP3    H270148   1.217   2.548   0.126 -1.2163  1.3713 -0.2029
16245TIP3   OH270149   2.884   3.881   6.644 -0.0198 -0.2987 -0.1780
16245TIP3    H170150   2.849   3.852   6.729 -2.0682  0.6840 -0.6301
16245TIP3    H270151   2.965   3.927   6.666 -1.3990  1.5026  1.4949
16246TIP3   OH270152   6.276   2.120  12.524 -0.7096  0.4007  0.0254
16246TIP3    H170153   6.300   2.035  12.488  0.4526  0.3514  0.8909
16246TIP3    H270154   6.233   2.166  12.451  0.4788 -0.1603 -1.0455
16247TIP3   OH270155   3.018   0.237   1.980 -0.4143 -0.2344 -0.3156
16247TIP3    H170156   3.051   0.190   2.056 -0.2489  0.8624  0.3120
16247TIP3    H270157   3.091   0.236   1.918 -0.2947 -0.5013 -0.1728
16248TIP3   OH270158   2.884   4.235  14.228 -0.4176  0.6278  0.0717
16248TIP3    H170159   2.805   4.285  14.248 -0.3489  0.5190  0.6334
16248TIP3    H270160   2.861   4.184  14.150 -1.8378 -1.4453  1.7293
16249TIP3   OH270161   6.309   3.170   1.361 -0.2252 -0.1343 -0.1908
16249TIP3    H170162   6.363   3.204   1.433 -2.5959  1.8516  0.7759
16249TIP3    H270163   6.257   3.101   1.401 -1.7803  1.1903  0.1500
16250TIP3   OH270164   4.703   5.385  15.900  0.5829 -0.1311 -0.0917
16250TIP3    H170165   4.737   5.428  15.822 -0.5413 -0.6288 -0.8807
16250TIP3    H270166   4.623   5.433  15.921  0.2924 -0.6953  0.1010
16251TIP3   OH270167   5.563   1.297   5.927 -0.0887  0.0354 -0.2422
16251TIP3    H170168   5.588   1.260   6.012 -0.0815 -0.0106 -0.2644
16251TIP3    H270169   5.596   1.386   5.929  1.5756 -0.5297 -0.9381
16252TIP3   OH270170   4.120   5.345  14.609 -0.3665 -0.1899  0.4141
16252TIP3    H170171   4.117   5.440  14.618  1.2705 -0.0562 -0.1428
16252TIP3    H270172   4.073   5.327  14.528 -1.3272  0.0557  0.9026
16253TIP3   OH270173   4.718   2.653   3.246  0.2286  0.0571 -0.0654
16253TIP3    H170174   4.702   2.684   3.156  1.4304  1.9065  0.3049
16253TIP3    H270175   4.794   2.595   3.238 -0.1964 -0.4586 -0.3638
16254TIP3   OH270176   6.223   3.825   1.743 -0.2834  0.8123 -0.2780
16254TIP3    H170177   6.281   3.889   1.702  0.0868  0.6260 -0.0543
16254TIP3    H270178   6.254   3.820   1.834 -1.4420  1.6357  0.1838
16255TIP3   OH270179   5.499   4.865   3.128  0.5790 -0.7312 -0.6276
16255TIP3    H170180   5.473   4.884   3.038 -5.6508  2.1233  1.1847
16255TIP3    H270181   5.489   4.770   3.137 -0.9611 -0.8042 -2.4853
16256TIP3   OH270182   2.479   3.452  13.020  0.4819 -0.4361  0.1953
16256TIP3    H170183   2.555   3.396  13.038  1.2471  0.7134  0.6422
16256TIP3    H270184   2.431   3.405  12.952  2.5730 -0.3161 -1.4436
16257TIP3   OH270185   6.498   0.773  11.986 -0.5752  0.3513 -0.3893
16257TIP3    H170186   6.574   0.781  11.928 -0.0679 -0.5791  0.1182
16257TIP3    H270187   6.478   0.862  12.011  0.7280  0.5787 -0.0708
16258TIP3   OH270188   0.422   5.789   2.638  0.3668 -0.1367 -0.2142
16258TIP3    H170189   0.479   5.866   2.642  1.2157 -0.7665  0.1595
16258TIP3    H270190   0.335   5.824   2.622  0.6450  0.9460  0.5317
16259TIP3   OH270191   1.863   0.449  12.687  0.0005 -0.3664  0.5692
16259TIP3    H170192   1.833   0.431  12.597 -0.2635 -0.9164  0.7635
16259TIP3    H270193   1.896   0.539  12.683 -1.5576  0.2257  0.3028
16260TIP3   OH270194   3.184   5.281   4.324 -0.2262  0.1259 -0.1773
16260TIP3    H170195   3.278   5.268   4.310  0.0763  0.5924  1.1918
16260TIP3    H270196   3.144   5.270   4.238  0.9131 -1.5192 -0.5209
16261TIP3   OH270197   2.880   5.109   4.339  0.2112 -0.2863  0.1523
16261TIP3    H170198   2.894   5.141   4.428 -1.0752  0.8530 -0.0226
16261TIP3    H270199   2.959   5.059   4.319  1.5144  1.2688  1.1352
16262TIP3   OH270200   0.898   1.153  15.104  0.3084  0.3051 -0.7479
16262TIP3    H170201   0.961   1.102  15.053 -1.0846 -1.6491 -0.6387
16262TIP3    H270202   0.825   1.093  15.119 -0.6343  1.7812  1.0017
16263TIP3   OH270203   1.539   3.768  13.277 -0.2302 -0.3744 -0.0212
16263TIP3    H170204   1.521   3.755  13.371  0.6926 -0.5532  0.1407
16263TIP3    H270205   1.602   3.699  13.255 -1.1587 -0.9373 -1.0072
16264TIP3   OH270206   4.294   4.058  14.529 -0.0023 -0.2936  0.7237
16264TIP3    H170207   4.318   4.112  14.453 -0.1078  0.7498  1.4177
16264TIP3    H270208   4.211   4.018  14.503  0.8408 -1.4086 -0.4219
16265TIP3   OH270209   6.373   0.010  13.080 -0.4152 -0.4552 -0.0301
16265TIP3    H170210   6.398  -0.011  12.990 -1.7455  0.1077 -0.5444
16265TIP3    H270211   6.456   0.008  13.128  0.6598  1.3647 -1.6636
16266TIP3   OH270212   6.655   2.489  14.370  0.2919  0.0010  0.4319
16266TIP3    H170213   6.576   2.534  14.340  0.5262 -0.9657 -1.8277
16266TIP3    H270214   6.704   2.555  14.418 -0.2181  1.6539 -1.2262
16267TIP3   OH270215   6.425   0.241  16.700 -0.1508 -0.0529  0.3950
16267TIP3    H170216   6.385   0.191  16.771  2.0931 -0.2381  1.6316
16267TIP3    H270217   6.400   0.332  16.717 -1.1159 -0.2956  0.3371
16268TIP3   OH270218   0.881   0.429  14.324  0.3343  0.5708 -0.4226
16268TIP3    H170219   0.874   0.396  14.234  1.7473 -0.7867 -0.0807
16268TIP3    H270220   0.964   0.476  14.327  0.0291  1.0958  0.0401
16269TIP3   OH270221   0.837   3.414   2.659  0.3048 -0.5601 -0.1735
16269TIP3    H170222   0.912   3.473   2.645  1.5337 -1.9884  0.1458
16269TIP3    H270223   0.872   3.345   2.716 -1.2640 -1.2931 -0.0643
16270TIP3   OH270224   5.515   1.935  16.030  0.1419  0.3474 -0.5771
16270TIP3    H170225   5.588   1.911  16.086  0.7637 -0.6562 -1.7651
16270TIP3    H270226   5.507   2.030  16.039  0.1734  0.2040  1.2255
16271TIP3   OH270227   5.624   2.699   4.517  0.6192  0.3117 -0.6298
16271TIP3    H170228   5.649   2.609   4.495  1.5535  0.2474  0.6000
16271TIP3    H270229   5.705   2.740   4.546  0.1813  1.5376 -1.0997
16272TIP3   OH270230   3.556   4.434   4.581 -0.3146 -0.1321  0.2843
16272TIP3    H170231   3.573   4.348   4.543  1.1298 -1.0201  2.6811
16272TIP3    H270232   3.462   4.447   4.570 -0.3452 -1.3619 -1.3332
16273TIP3   OH270233   5.174   2.989   0.713  0.1926 -0.2666 -0.2076
16273TIP3    H170234   5.216   3.071   0.691  0.3904 -0.8974 -2.3672
16273TIP3    H270235   5.081   3.003   0.694  0.2884 -0.6540 -1.0068
16274TIP3   OH270236   5.867   4.223  13.065 -0.1849 -0.3158 -0.0806
16274TIP3    H170237   5.904   4.161  13.002  0.4279  1.9392 -2.0976
16274TIP3    H270238   5.772   4.215  13.053 -0.3430 -3.0406  2.0216
16275TIP3   OH270239   6.397   5.760   4.395 -0.4474 -0.3596  0.0432
16275TIP3    H170240   6.334   5.687   4.394 -0.9533  0.0323  1.5261
16275TIP3    H270241   6.343   5.838   4.393  0.0957  0.0243 -1.3518
16276TIP3   OH270242   5.052   1.983  11.458  0.4176 -0.5973 -0.0514
16276TIP3    H170243   5.124   2.007  11.516  0.7574 -0.5840 -0.4697
16276TIP3    H270244   5.096   1.950  11.379 -0.0049  1.0647 -1.0319
16277TIP3   OH270245   2.288   4.443   5.326  0.3715  0.0423  0.0295
16277TIP3    H170246   2.280   4.365   5.271  1.4278  1.4705 -2.3193
16277TIP3    H270247   2.379   4.441   5.356  0.6555  0.7653 -0.7439
16278TIP3   OH270248   4.525   6.224   5.466  0.5957 -0.5410 -0.0393
16278TIP3    H170249   4.492   6.217   5.555  1.1822  0.2439  0.2444
16278TIP3    H270250   4.474   6.159   5.417  0.3769 -1.0898  0.8885
16279TIP3   OH270251   0.443   1.733  10.466  0.0067 -0.2714  0.0676
16279TIP3    H170252   0.464   1.749  10.558 -1.3174 -2.1248  0.7489
16279TIP3    H270253   0.474   1.812  10.421  4.1959 -0.8221  1.4852
16280TIP3   OH270254   6.021   0.375  16.779  0.0512 -1.0063 -0.0053
16280TIP3    H170255   6.048   0.356  16.869  1.2748 -0.2008 -0.1835
16280TIP3    H270256   6.030   0.291  16.733 -0.1714 -1.3201  0.5109
16281TIP3   OH270257   3.697   2.801  15.643 -0.5812  0.4213  0.2708
16281TIP3    H170258   3.617   2.759  15.675 -0.6710 -2.2011 -2.8618
16281TIP3    H270259   3.767   2.759  15.693 -0.8839 -1.4019 -0.7593
16282TIP3   OH270260   3.762   0.828  13.835  0.1224  0.2362 -0.2294
16282TIP3    H170261   3.831   0.885  13.869  0.6385 -0.7013  0.3375
16282TIP3    H270262   3.733   0.778  13.911 -0.7855  0.2106 -0.5847
16283TIP3   OH270263   5.677   4.569  17.062 -0.4604  0.1366 -0.6857
16283TIP3    H170264   5.656   4.655  17.028 -1.8403 -0.8940 -2.6383
16283TIP3    H270265   5.613   4.554  17.132  0.1840  0.9041  0.0894
16284TIP3   OH270266   2.528   4.730   6.442 -0.1033  0.1104 -0.3287
16284TIP3    H170267   2.462   4.699   6.504 -1.2301  2.4805 -0.2308
16284TIP3    H270268   2.581   4.791   6.491  0.1102  0.6857 -1.2479
16285TIP3   OH270269   1.873   3.295  11.851  0.4886 -0.0769 -0.6411
16285TIP3    H170270   1.929   3.257  11.919 -1.4314  0.2528  1.2440
16285TIP3    H270271   1.905   3.384  11.839 -0.3595  0.5664  1.4127
16286TIP3   OH270272   0.735   2.639   0.370  0.3960 -0.3292 -0.2543
16286TIP3    H170273   0.679   2.669   0.442  1.4094  0.8785  0.0801
16286TIP3    H270274   0.678   2.586   0.315 -0.6544 -0.4497  0.9191
16287TIP3   OH270275   2.822   1.154  16.209 -0.8207 -0.2713 -0.2063
16287TIP3    H170276   2.891   1.194  16.156 -2.4176  0.7759 -1.5968
16287TIP3    H270277   2.810   1.214  16.282  0.0244 -0.6940  0.2960
16288TIP3   OH270278   0.519   4.184  14.201 -0.0904 -0.1500  0.0395
16288TIP3    H170279   0.426   4.204  14.206  0.0630  0.6521 -0.1665
16288TIP3    H270280   0.532   4.109  14.260 -1.1236 -1.2250 -1.0450
16289TIP3   OH270281   4.347   6.726   2.622 -0.3379 -0.2490  0.0393
16289TIP3    H170282   4.428   6.767   2.652  0.6610 -2.0023 -0.1304
16289TIP3    H270283   4.349   6.735   2.527  0.0902 -1.0088 -0.0330
16290TIP3   OH270284   2.053   4.047  11.266  0.1898  0.2276 -0.3653
16290TIP3    H170285   2.015   4.098  11.338 -0.8666  0.2047 -0.8830
16290TIP3    H270286   2.088   4.113  11.206 -0.2203  0.3086 -0.5189
16291TIP3   OH270287   1.423   1.170  11.296 -0.2843 -0.2239 -0.2037
16291TIP3    H170288   1.344   1.215  11.326 -0.1678  0.2829 -0.6413
16291TIP3    H270289   1.449   1.217  11.217  0.7234 -0.0813  0.1952
16292TIP3   OH270290   2.386   3.356   1.667 -0.5273  0.6720  0.0137
16292TIP3    H170291   2.379   3.424   1.733  1.6071  0.6098  0.3848
16292TIP3    H270292   2.330   3.285   1.699 -0.1810  0.9672  1.3394
16293TIP3   OH270293   2.088   6.608   6.338 -0.2211 -0.1147 -0.2673
16293TIP3    H170294   2.011   6.557   6.314 -1.8960  1.6423  1.1160
16293TIP3    H270295   2.154   6.543   6.360 -1.0200 -1.6778 -2.2278
16294TIP3   OH270296   0.424   0.279  16.836 -0.4875 -0.2743 -0.0851
16294TIP3    H170297   0.390   0.192  16.817  0.6924 -0.7784 -0.0116
16294TIP3    H270298   0.487   0.265  16.907 -0.3995  0.6583  0.0301
16295TIP3   OH270299   0.539   0.979   4.023  0.4738 -0.7268 -0.3237
16295TIP3    H170300   0.623   0.970   3.978 -0.0150 -1.6308 -1.0645
16295TIP3    H270301   0.475   0.943   3.963 -0.3044 -1.1488  0.7332
16296TIP3   OH270302   3.104   3.498   5.646  0.7310 -0.2927 -0.5475
16296TIP3    H170303   3.062   3.461   5.725  1.1161  1.1884  0.3964
16296TIP3    H270304   3.031   3.513   5.586  0.2973 -0.5830 -0.1085
16297TIP3   OH270305   2.912   5.839  14.280  0.2024  0.5576  0.7240
16297TIP3    H170306   2.968   5.827  14.357  1.3132 -0.2575 -0.1637
16297TIP3    H270307   2.959   5.903  14.226 -0.1007  0.4292  0.3046
16298TIP3   OH270308   5.559   1.264   1.759  0.6667 -0.2458  0.4342
16298TIP3    H170309   5.498   1.296   1.826 -0.6904 -1.3271 -0.2132
16298TIP3    H270310   5.542   1.321   1.683  1.4879  0.3480  0.6920
16299TIP3   OH270311   1.336   0.828   0.965  0.1293 -1.0578  0.2489
16299TIP3    H170312   1.259   0.775   0.946  0.0913  0.0031 -3.3712
16299TIP3    H270313   1.308   0.918   0.947  2.1050 -0.6373 -1.0936
16300TIP3   OH270314   1.815   2.009   1.565  0.2054  0.0659 -0.4060
16300TIP3    H170315   1.847   2.047   1.483  2.0862  0.6816  0.5471
16300TIP3    H270316   1.894   1.984   1.613 -0.7548  0.8812  1.7595
16301TIP3   OH270317   5.960   2.831  15.147  0.4730 -0.4286  0.3638
16301TIP3    H170318   5.931   2.800  15.061  1.8682 -0.3629 -0.1520
16301TIP3    H270319   5.886   2.882  15.180  0.5541  1.0750 -1.5973
16302TIP3   OH270320   0.102   5.360  13.501  0.1829  0.6892  0.0695
16302TIP3    H170321   0.128   5.271  13.475 -1.1703 -0.3098  1.9004
16302TIP3    H270322   0.184   5.409  13.502  0.8734 -0.3483 -1.6025
16303TIP3   OH270323   1.120   1.766  11.856  0.1754  0.2829  0.5549
16303TIP3    H170324   1.151   1.682  11.823  0.7094  1.1144 -1.1821
16303TIP3    H270325   1.059   1.744  11.925  1.9942 -1.4892  1.7061
16304TIP3   OH270326   1.691   0.478   3.975  0.4329 -0.4970  0.0450
16304TIP3    H170327   1.614   0.423   3.959 -0.2410 -0.0875  1.6918
16304TIP3    H270328   1.740   0.475   3.893  0.7360 -4.0326  0.2013
16305TIP3   OH270329   1.315   3.684   1.010 -0.4584 -0.5814 -0.1901
16305TIP3    H170330   1.239   3.632   0.984 -1.8343  0.9307  0.6280
16305TIP3    H270331   1.389   3.625   1.000 -1.9935 -2.8656  1.1836
16306TIP3   OH270332   1.128   4.899  13.589  0.2349  0.2208  0.0832
16306TIP3    H170333   1.130   4.902  13.493 -1.6161  1.8828  0.0344
16306TIP3    H270334   1.168   4.982  13.616  0.2687 -0.0023  0.7189
16307TIP3   OH270335   6.172   5.933   1.421 -0.6629  0.2686 -0.2296
16307TIP3    H170336   6.170   5.856   1.364  0.4803 -0.4742  0.6805
16307TIP3    H270337   6.265   5.947   1.439 -0.9277  1.1807  0.5236
16308TIP3   OH270338   5.788   1.067  15.332 -0.1561 -0.0250  0.2207
16308TIP3    H170339   5.800   1.157  15.301 -0.9239 -0.0160 -0.0765
16308TIP3    H270340   5.870   1.046  15.376  1.0974 -0.1386 -2.0240
16309TIP3   OH270341   2.114   3.527  14.084  0.2980  0.0420 -0.5230
16309TIP3    H170342   2.176   3.557  14.017  0.3103 -0.8767 -0.9379
16309TIP3    H270343   2.151   3.559  14.166  1.0239  0.0009 -0.8227
16310TIP3   OH270344   0.381   0.746   2.960  0.5083  0.2303 -0.1908
16310TIP3    H170345   0.403   0.729   3.052 -0.9114 -0.3025  0.0756
16310TIP3    H270346   0.449   0.702   2.910  1.0130  0.0873  0.6068
16311TIP3   OH270347   5.507   3.806   5.332 -0.2460 -0.5544 -0.2570
16311TIP3    H170348   5.594   3.800   5.373 -0.7025  1.7502  1.2395
16311TIP3    H270349   5.446   3.790   5.403 -1.0569  2.2384 -0.2243
16312TIP3   OH270350   6.371   0.557   3.680 -0.2855 -0.1395  0.1160
16312TIP3    H170351   6.360   0.470   3.641  0.5692 -0.1208 -0.1772
16312TIP3    H270352   6.465   0.566   3.694 -0.3450  0.7983 -0.0077
16313TIP3   OH270353   5.866   1.401   1.210 -0.1806  0.4826 -0.3502
16313TIP3    H170354   5.890   1.322   1.259 -0.9290  0.3513 -0.1836
16313TIP3    H270355   5.877   1.473   1.273 -1.1446  0.3140  0.0385
16314TIP3   OH270356   5.674   2.719   4.138  0.6067 -0.3973 -0.0370
16314TIP3    H170357   5.623   2.730   4.058  2.7275 -0.2614 -1.4534
16314TIP3    H270358   5.677   2.807   4.176 -2.4621 -0.8830  1.6255
16315TIP3   OH270359   4.638   4.262   6.256  0.7940  0.1719  0.5091
16315TIP3    H170360   4.551   4.264   6.216  1.3242  0.1356 -0.7059
16315TIP3    H270361   4.638   4.184   6.311 -0.8793  1.6699  2.8241
16316TIP3   OH270362   6.435   0.789   5.167  0.3584 -0.2526 -0.3150
16316TIP3    H170363   6.503   0.852   5.193  1.0297  0.8292 -4.1678
16316TIP3    H270364   6.477   0.704   5.180  0.8197  0.1792  1.3926
16317TIP3   OH270365   2.972   0.771   3.339 -0.0839  0.5318 -0.1352
16317TIP3    H170366   3.031   0.817   3.279  0.5497  0.2357  0.2569
16317TIP3    H270367   3.018   0.768   3.422 -0.3206 -0.3658 -0.0154
16318TIP3   OH270368   1.139   4.442   4.346  0.0235  0.3886 -0.4203
16318TIP3    H170369   1.136   4.428   4.440 -3.4694  1.7071 -0.1667
16318TIP3    H270370   1.231   4.458   4.326  1.0105 -1.0224  2.5427
16319TIP3   OH270371   2.264   4.978   4.247 -0.4297  0.0674 -0.4055
16319TIP3    H170372   2.329   5.030   4.294 -0.8344  0.7561 -0.5810
16319TIP3    H270373   2.212   4.937   4.316 -1.3913  1.5434 -0.2002
16320TIP3   OH270374   3.569   4.170  13.204 -0.1094 -0.3238 -0.2956
16320TIP3    H170375   3.643   4.230  13.192  0.1420 -0.7593 -0.9560
16320TIP3    H270376   3.610   4.087  13.228 -0.5072  0.1389  2.3741
16321TIP3   OH270377   1.377   6.114  14.439  0.0936  0.3700  0.0640
16321TIP3    H170378   1.374   6.083  14.530  0.4635  2.4058  0.8268
16321TIP3    H270379   1.308   6.181  14.435  1.4048  1.7326 -0.5542
16322TIP3   OH270380   5.632   1.546   4.652 -0.1648  0.5732  0.0398
16322TIP3    H170381   5.559   1.553   4.713 -0.7352 -0.9339 -0.4248
16322TIP3    H270382   5.696   1.491   4.697  0.5584  1.6090  0.3075
16323TIP3   OH270383   3.088   6.202  11.622 -0.0370 -0.1869  0.0342
16323TIP3    H170384   3.070   6.207  11.528  1.3179 -1.6882 -0.3347
16323TIP3    H270385   3.053   6.117  11.649 -1.6961  0.8174  1.2203
16324TIP3   OH270386   3.499   3.704   5.552  0.7045 -0.2676  0.7995
16324TIP3    H170387   3.518   3.758   5.476 -0.5593  2.0876  2.0200
16324TIP3    H270388   3.403   3.699   5.555  0.7599 -1.8070  1.2891
16325TIP3   OH270389   5.665   6.295  15.913 -0.4557 -0.2572  0.4058
16325TIP3    H170390   5.638   6.301  16.005  0.5102  0.6486  0.6516
16325TIP3    H270391   5.590   6.329  15.864 -0.4797  0.5186  0.9504
16326TIP3   OH270392   3.688   2.294  16.357  0.3475 -0.4174  0.1082
16326TIP3    H170393   3.725   2.212  16.324  0.0216 -0.8361  0.7545
16326TIP3    H270394   3.739   2.362  16.314 -0.6851 -0.8889 -2.0218
16327TIP3   OH270395   2.155   0.029   1.896 -0.2174 -0.2086  0.2255
16327TIP3    H170396   2.223   0.066   1.952 -0.2215  1.7561 -1.0035
16327TIP3    H270397   2.202  -0.018   1.827 -0.1210  0.4830 -0.1812
16328TIP3   OH270398   6.559   3.844  10.865  0.0811 -0.1239 -0.2376
16328TIP3    H170399   6.557   3.756  10.902  0.8381 -0.7203 -1.5615
16328TIP3    H270400   6.625   3.840  10.796  1.6625  2.0229  1.0021
16329TIP3   OH270401   2.619   1.455  14.034 -0.2392  0.6319 -0.1419
16329TIP3    H170402   2.701   1.501  14.052 -1.2312  2.1424  0.6244
16329TIP3    H270403   2.550   1.519  14.050 -1.6026 -0.6282 -0.6894
16330TIP3   OH270404   3.759   2.673   1.394 -0.6727 -0.1153  0.5153
16330TIP3    H170405   3.827   2.633   1.449 -0.2151  1.6144  1.2877
16330TIP3    H270406   3.796   2.757   1.369 -1.2626 -0.4773 -1.7517
16331TIP3   OH270407   3.397   2.071   4.290  0.1157 -0.7821 -0.2315
16331TIP3    H170408   3.393   2.109   4.202 -0.9766  1.2180  0.6297
16331TIP3    H270409   3.348   1.989   4.283 -2.0076  0.4966 -0.9860
16332TIP3   OH270410   4.387   4.036  14.833  0.0246  0.1300 -0.0430
16332TIP3    H170411   4.306   4.070  14.794 -0.8787  1.6803  2.8995
16332TIP3    H270412   4.451   4.042  14.762 -2.3758 -1.2256 -2.5022
16333TIP3   OH270413   3.134   1.566  12.119 -0.6825  0.3147  0.4201
16333TIP3    H170414   3.073   1.493  12.109 -3.0372  1.8945  2.0498
16333TIP3    H270415   3.189   1.542  12.194 -0.7290 -0.2199  0.2853
16334TIP3   OH270416   4.945   6.467  16.063  0.5493 -0.1534 -0.0679
16334TIP3    H170417   4.927   6.390  16.009  0.5972  0.2650 -0.6888
16334TIP3    H270418   5.011   6.516  16.015  1.6601 -0.4817  1.0650
16335TIP3   OH270419   0.571   1.905  14.544 -0.2374 -0.6262 -0.3875
16335TIP3    H170420   0.477   1.890  14.536 -0.5950 -1.0643  3.1272
16335TIP3    H270421   0.584   1.994  14.511 -1.7559 -0.7773 -1.4895
16336TIP3   OH270422   0.025   6.410   4.684  0.8783  0.3284  0.2857
16336TIP3    H170423   0.081   6.358   4.742  1.1730  0.3736  0.0436
16336TIP3    H270424  -0.012   6.478   4.740  2.3692  1.3216  0.1128
16337TIP3   OH270425   6.269   0.332  12.893 -0.1025  0.0607 -0.0030
16337TIP3    H170426   6.258   0.268  12.964 -0.7639 -0.3278 -0.4450
16337TIP3    H270427   6.360   0.323  12.866  1.2273  2.5425  3.0057
16338TIP3   OH270428   3.831   2.392  15.406 -0.0578  0.3608  0.2920
16338TIP3    H170429   3.874   2.476  15.392 -0.8508  0.9552  1.2134
16338TIP3    H270430   3.902   2.329  15.412  0.5436  0.9367 -0.6045
16339TIP3   OH270431   2.054   5.076  15.623  0.5962 -0.3104  0.6560
16339TIP3    H170432   1.963   5.071  15.592  1.1554 -0.0923 -1.1153
16339TIP3    H270433   2.062   5.005  15.686 -0.9938  0.0950  1.3656
16340TIP3   OH270434   1.591   1.239  10.525 -0.3262  0.6604 -0.0281
16340TIP3    H170435   1.505   1.263  10.491 -1.2409  0.3346  1.9330
16340TIP3    H270436   1.651   1.256  10.452 -2.2884 -1.1986 -2.2282
16341TIP3   OH270437   5.441   0.382   3.095  0.0561  0.5688  0.1656
16341TIP3    H170438   5.412   0.388   3.004  0.9345 -0.2548 -0.1684
16341TIP3    H270439   5.378   0.438   3.143 -0.1407  1.3744 -0.9881
16342TIP3   OH270440   2.224   0.355   3.019 -0.2988 -0.7851 -0.1707
16342TIP3    H170441   2.262   0.401   2.945 -0.7491 -0.2803 -0.0965
16342TIP3    H270442   2.148   0.309   2.983 -0.3832 -0.7276 -0.0668
16343TIP3   OH270443   6.744   0.799  11.530  0.6698 -0.1054 -0.1751
16343TIP3    H170444   6.817   0.786  11.469  0.5632 -0.4401 -0.2317
16343TIP3    H270445   6.697   0.716  11.529 -1.6823  1.0810 -2.7023
16344TIP3   OH270446   0.864   1.797   3.654 -0.5585  0.0231 -0.6724
16344TIP3    H170447   0.903   1.719   3.615  1.6021  0.5743  0.2350
16344TIP3    H270448   0.810   1.835   3.584 -1.2675 -1.9730 -1.2776
16345TIP3   OH270449   6.204   4.659  17.261  0.2713  0.2211  0.3187
16345TIP3    H170450   6.276   4.690  17.316 -0.3851  2.2304  0.1279
16345TIP3    H270451   6.246   4.627  17.182  1.0315  0.2489  0.7066
16346TIP3   OH270452   6.745   5.696  17.273 -0.4097 -0.3236  0.0872
16346TIP3    H170453   6.688   5.628  17.307  0.5017 -0.6787  0.9507
16346TIP3    H270454   6.770   5.747  17.350  2.3579 -1.6399  0.1997
16347TIP3   OH270455   3.117   2.493  11.778  0.2104  0.3855  0.3239
16347TIP3    H170456   3.087   2.531  11.860 -1.6080  0.1491 -0.1687
16347TIP3    H270457   3.097   2.399  11.786  0.4835  0.2756 -0.1857
16348TIP3   OH270458   0.265   0.709   2.177 -0.2668 -0.1885  0.3274
16348TIP3    H170459   0.269   0.670   2.264 -1.0336  1.1659  0.9901
16348TIP3    H270460   0.312   0.647   2.121 -1.5011 -2.0912  1.3012
16349TIP3   OH270461   3.253   4.702  11.746 -0.3683 -0.2601  0.0735
16349TIP3    H170462   3.281   4.613  11.725  0.3684 -0.1887  0.7310
16349TIP3    H270463   3.301   4.724  11.826 -1.0107  0.5009  0.2576
16350TIP3   OH270464   6.521   6.377   3.846 -0.1320 -0.6745  0.3919
16350TIP3    H170465   6.511   6.359   3.940 -1.4333 -0.2455  0.3606
16350TIP3    H270466   6.560   6.297   3.810 -1.0989 -1.4830  1.0591
16351TIP3   OH270467   2.693   0.420  16.305  0.1704 -0.0062  0.6653
16351TIP3    H170468   2.662   0.510  16.293 -1.2244 -0.6242 -0.6151
16351TIP3    H270469   2.704   0.386  16.217  0.5145 -1.1553  1.1324
16352TIP3   OH270470   4.323   4.617  10.905  0.1763 -0.4019 -0.1990
16352TIP3    H170471   4.284   4.539  10.944 -0.0605 -0.4136 -0.4553
16352TIP3    H270472   4.317   4.603  10.811 -0.2914  0.1307 -0.2549
16353TIP3   OH270473   1.839   1.210   5.179 -0.1457 -0.0219  0.0737
16353TIP3    H170474   1.751   1.172   5.173 -0.0512 -0.8666  2.6750
16353TIP3    H270475   1.829   1.284   5.239  0.9521 -0.4032  0.7720
16354TIP3   OH270476   1.187   4.654  14.565 -0.1553 -0.3080 -0.2714
16354TIP3    H170477   1.157   4.745  14.563  0.0979  0.0324  3.5765
16354TIP3    H270478   1.238   4.644  14.485 -0.2086  2.9331 -0.8657
16355TIP3   OH270479   4.921   2.284  14.918  0.3472 -0.1950 -0.3307
16355TIP3    H170480   4.843   2.285  14.975 -0.7431 -1.2415 -1.7296
16355TIP3    H270481   4.976   2.215  14.956  1.0983  1.1961  1.2378
16356TIP3   OH270482   4.212   4.726   6.280 -0.8944  0.2419  0.1184
16356TIP3    H170483   4.144   4.765   6.335  0.2650  0.4359  1.4780
16356TIP3    H270484   4.285   4.788   6.284 -0.8670  0.4147 -1.9356
16357TIP3   OH270485   4.037   2.058  17.012 -0.1626 -0.1268  0.7263
16357TIP3    H170486   4.107   2.013  16.965 -1.0371 -1.0153  0.2516
16357TIP3    H270487   3.976   2.084  16.944 -1.1764 -0.9361  1.3124
16358TIP3   OH270488   2.161   3.386   0.128  0.5898 -0.4022 -0.3385
16358TIP3    H170489   2.069   3.397   0.103  1.3607 -1.1949 -4.1166
16358TIP3    H270490   2.157   3.349   0.216 -2.7603 -1.5673 -0.8129
16359TIP3   OH270491   6.340   0.295   3.637 -0.2444 -0.6013  0.6537
16359TIP3    H170492   6.353   0.244   3.717 -1.3466  0.9056  1.8518
16359TIP3    H270493   6.305   0.232   3.574 -1.6619 -1.3518  2.1210
16360TIP3   OH270494   6.105   1.268  13.662  0.1254 -0.1449 -0.4136
16360TIP3    H170495   6.123   1.238  13.751  2.3093  1.1962 -0.3439
16360TIP3    H270496   6.163   1.216  13.606 -1.2272 -0.9800 -1.1249
16361TIP3   OH270497   6.652   1.195  12.343 -0.0035 -0.3361 -0.1235
16361TIP3    H170498   6.620   1.110  12.372 -0.7426 -1.1076 -2.9165
16361TIP3    H270499   6.735   1.177  12.301  0.9729  0.7224  1.2432
16362TIP3   OH270500   2.216   0.953   3.083 -0.2805 -0.0170  0.0440
16362TIP3    H170501   2.266   0.983   3.008 -1.1128 -0.4892 -0.7208
16362TIP3    H270502   2.128   0.988   3.069 -0.3715  0.1525  0.9628
16363TIP3   OH270503   2.556   2.852   4.285 -0.0503 -0.7836  0.3711
16363TIP3    H170504   2.582   2.789   4.352  2.3432 -0.8387 -0.5116
16363TIP3    H270505   2.588   2.815   4.203  1.1798  1.4018 -0.2060
16364TIP3   OH270506   5.373   4.570  17.251  0.5625  0.1114  0.4219
16364TIP3    H170507   5.387   4.483  17.288 -0.9814 -0.2699  0.1972
16364TIP3    H270508   5.337   4.553  17.164 -1.0899  0.9462  0.9014
16365TIP3   OH270509   5.684   1.979  17.304 -0.1012 -0.5104  0.3498
16365TIP3    H170510   5.779   1.978  17.295  0.1443 -2.0910  2.4294
16365TIP3    H270511   5.669   2.004  17.395 -1.6434 -0.9767  0.2463
16366TIP3   OH270512   6.723   1.370   5.999  0.2442  0.0161  0.4921
16366TIP3    H170513   6.637   1.395   5.964  0.3558 -0.2065  0.0474
16366TIP3    H270514   6.738   1.431   6.071 -0.4572 -0.1795  0.8201
16367TIP3   OH270515   1.236   3.131   1.455 -0.9439 -0.3736  0.1620
16367TIP3    H170516   1.151   3.145   1.497 -0.8590 -0.8657  0.5057
16367TIP3    H270517   1.215   3.102   1.366 -1.1299  1.5638 -0.4933
16368TIP3   OH270518   1.633   1.928  15.210  0.2001 -0.3717 -0.2785
16368TIP3    H170519   1.617   1.995  15.144 -1.1498  0.5802  0.9472
16368TIP3    H270520   1.625   1.845  15.163 -3.7829  0.1328 -0.8806
16369TIP3   OH270521   0.974   1.130   1.550 -0.2513  0.4246 -0.3056
16369TIP3    H170522   0.906   1.184   1.509  1.0828  0.9904 -1.8899
16369TIP3    H270523   0.990   1.060   1.486 -1.4113 -1.5127  1.3682
16370TIP3   OH270524   1.538   2.767  14.494 -0.4239  0.1074 -0.4276
16370TIP3    H170525   1.572   2.761  14.584  2.2754  0.5459 -1.3232
16370TIP3    H270526   1.457   2.817  14.502  0.1488  0.8021  1.6707
16371TIP3   OH270527   3.407   3.403   1.688  0.9506 -0.3153  0.2907
16371TIP3    H170528   3.454   3.400   1.604 -0.9916  0.0088 -0.8700
16371TIP3    H270529   3.339   3.469   1.675 -0.3091 -1.2975  1.6048
16372TIP3   OH270530   4.641   1.279  12.762  0.4985 -0.4774 -0.4072
16372TIP3    H170531   4.680   1.195  12.738 -1.9714 -2.1120  0.7718
16372TIP3    H270532   4.548   1.268  12.742 -0.2023  1.2385  1.5475
16373TIP3   OH270533   0.102   2.535  11.453  0.6451  0.1803  0.2081
16373TIP3    H170534   0.093   2.440  11.446 -1.7546  0.3413  0.3280
16373TIP3    H270535   0.022   2.570  11.416  1.6593  2.2176 -0.2276
16374TIP3   OH270536   4.240   0.990  15.697  0.2099 -0.1244 -0.2104
16374TIP3    H170537   4.295   0.934  15.643 -1.1012  0.1153 -1.8790
16374TIP3    H270538   4.250   1.077  15.660 -0.1058  0.1970  0.4358
16375TIP3   OH270539   4.941   1.974  14.766  0.2816 -0.4027 -0.1377
16375TIP3    H170540   4.985   1.907  14.714  1.2478 -1.6047  2.0973
16375TIP3    H270541   4.851   1.975  14.733  1.1464 -0.0780 -2.7195
16376TIP3   OH270542   0.899   6.702  13.552 -0.2613 -0.4238 -0.2147
16376TIP3    H170543   0.966   6.715  13.619 -1.3593 -1.4101  1.1697
16376TIP3    H270544   0.947   6.686  13.471  1.1151  0.9024  0.3043
16377TIP3   OH270545   1.015   1.312  14.787 -0.2852 -0.0209  0.0262
16377TIP3    H170546   0.971   1.246  14.841  0.0600 -2.0409 -2.0383
16377TIP3    H270547   0.951   1.384  14.782 -0.9351 -0.4062  1.7807
16378TIP3   OH270548   4.144   1.246  16.348  0.2055 -0.1651 -0.5715
16378TIP3    H170549   4.208   1.312  16.374 -0.6925  1.5934 -2.5043
16378TIP3    H270550   4.085   1.238  16.422  0.5060  1.0080 -0.1957
16379TIP3   OH270551   4.955   4.551  17.106 -0.1669  0.5608  0.6703
16379TIP3    H170552   5.051   4.557  17.110 -0.2594  1.8406  1.3700
16379TIP3    H270553   4.924   4.617  17.168 -1.5057 -0.5637  1.2578
16380TIP3   OH270554   6.205   6.705  11.961 -0.0154  0.1866  0.4236
16380TIP3    H170555   6.153   6.745  12.031 -2.1777  0.1184 -1.0547
16380TIP3    H270556   6.280   6.763  11.951 -0.7499  1.3622  1.3808
16381TIP3   OH270557   0.798   2.551   1.002  0.1431  0.3851  0.2565
16381TIP3    H170558   0.811   2.456   1.001  2.8197  0.6685 -0.9597
16381TIP3    H270559   0.785   2.573   1.094 -0.7277 -1.1688  0.5222
16382TIP3   OH270560   0.474   3.146   5.196  0.1580 -0.0861  0.2671
16382TIP3    H170561   0.496   3.214   5.134 -1.1881  0.3655  0.2436
16382TIP3    H270562   0.458   3.068   5.143  2.1354 -0.5943  0.3259
16383TIP3   OH270563   4.076   4.215   0.247  0.1587 -0.6759  0.0853
16383TIP3    H170564   4.135   4.242   0.317 -1.1492  2.4494  0.1064
16383TIP3    H270565   4.043   4.296   0.209 -0.7509 -2.2622 -2.8688
16384TIP3   OH270566   0.451   1.594   4.230 -0.4170  0.4476  0.0742
16384TIP3    H170567   0.382   1.649   4.194 -0.6399  0.4052  0.4267
16384TIP3    H270568   0.514   1.655   4.269  1.0185  0.6553 -2.3348
16385TIP3   OH270569   2.027   4.607   3.136  0.2065 -0.1164  0.3022
16385TIP3    H170570   2.014   4.688   3.086 -0.7663  0.3608  1.2682
16385TIP3    H270571   1.989   4.538   3.082  0.1303  0.2330 -0.0903
16386TIP3   OH270572   6.314   6.401   4.616 -0.6923  0.0786  0.1567
16386TIP3    H170573   6.334   6.494   4.623  1.4060 -0.3459  0.6972
16386TIP3    H270574   6.249   6.395   4.546 -0.4667  1.8920 -0.2484
16387TIP3   OH270575   4.604   6.197   6.624 -0.1310 -0.5868  0.5617
16387TIP3    H170576   4.565   6.249   6.554 -0.4914 -0.3797  0.9134
16387TIP3    H270577   4.536   6.134   6.648  0.1937 -1.0254  0.3461
16388TIP3   OH270578   2.173   3.157  17.372  0.0030  0.5735  0.2076
16388TIP3    H170579   2.181   3.248  17.399 -1.8401  0.5198  1.0699
16388TIP3    H270580   2.136   3.112  17.448 -0.3044 -0.6571 -0.6329
16389TIP3   OH270581   4.915   1.027  16.677 -0.0158  0.8110  0.1579
16389TIP3    H170582   4.954   1.100  16.725 -1.1986  1.1742  0.6139
16389TIP3    H270583   4.877   0.972  16.745  1.4110 -0.6067 -0.1296
16390TIP3   OH270584   4.728   3.311   3.441 -0.1482 -0.5420  0.4212
16390TIP3    H170585   4.778   3.316   3.359 -2.9557 -1.6575 -1.5229
16390TIP3    H270586   4.650   3.363   3.425 -1.3367 -1.7671  1.9027
16391TIP3   OH270587   5.813   2.503  11.582  0.0054 -0.0308 -0.1667
16391TIP3    H170588   5.775   2.444  11.517  0.2757 -0.9670  0.5207
16391TIP3    H270589   5.902   2.472  11.595 -0.5475 -0.8908  1.8581
16392TIP3   OH270590   3.411   2.158  15.448 -0.1894 -0.3119 -0.1886
16392TIP3    H170591   3.491   2.192  15.407 -0.7935  1.4185 -0.0533
16392TIP3    H270592   3.340   2.205  15.404 -1.1736 -1.9517 -0.4435
16393TIP3   OH270593   0.046   1.686  14.775  0.0804  0.7109 -0.4337
16393TIP3    H170594   0.001   1.651  14.851 -0.2348 -0.8161 -1.2803
16393TIP3    H270595   0.138   1.690  14.800  0.5725 -3.1601 -1.0334
16394TIP3   OH270596   2.691   0.305   4.982 -0.2531  0.4324 -0.4377
16394TIP3    H170597   2.784   0.319   4.995 -0.4018  0.6747  0.4098
16394TIP3    H270598   2.683   0.211   4.963 -0.0501 -0.0651  1.7252
16395TIP3   OH270599   2.466   6.113  15.744 -0.1776  0.8503 -0.1773
16395TIP3    H170600   2.535   6.139  15.806  1.3378 -3.9363  0.5146
16395TIP3    H270601   2.400   6.070  15.798  0.2545 -1.7229 -1.5210
16396TIP3   OH270602   1.162   2.180   3.317 -0.4912  0.3844 -0.5629
16396TIP3    H170603   1.248   2.142   3.335  0.0102  1.3450 -0.8509
16396TIP3    H270604   1.145   2.237   3.393 -0.7735  0.3680 -0.6118
16397TIP3   OH270605   4.967   4.759   3.281 -0.1770  0.0397 -0.4913
16397TIP3    H170606   5.035   4.727   3.222  1.7254 -0.6281  1.8765
16397TIP3    H270607   4.975   4.855   3.276 -0.1680  0.0034 -1.4025
16398TIP3   OH270608   0.721   2.514   5.801 -0.5916  0.4783  0.1112
16398TIP3    H170609   0.778   2.589   5.822 -2.2627  1.8021  0.1439
16398TIP3    H270610   0.675   2.495   5.883  0.2271 -1.0107  0.2625
16399TIP3   OH270611   2.514   0.879   0.991  0.0743  0.2977  0.0686
16399TIP3    H170612   2.497   0.917   1.077 -0.3945  1.3970 -0.4962
16399TIP3    H270613   2.560   0.797   1.010  1.3695  1.2701  1.3123
16400TIP3   OH270614   3.873   0.320   2.500 -0.6560  0.4448  0.1537
16400TIP3    H170615   3.915   0.237   2.523 -1.5306 -0.6960 -2.0958
16400TIP3    H270616   3.935   0.363   2.441 -1.5382 -0.1285 -1.2345
16401TIP3   OH270617   2.310   0.222   3.567  0.1630  0.0601 -0.0811
16401TIP3    H170618   2.391   0.243   3.615 -0.2211 -0.8850  1.0293
16401TIP3    H270619   2.252   0.296   3.583 -2.1219 -2.3594  5.8676
16402TIP3   OH270620   1.245   3.682   0.663 -0.5549 -0.1419  0.3087
16402TIP3    H170621   1.286   3.767   0.681  1.2516 -0.5928 -1.3640
16402TIP3    H270622   1.314   3.618   0.680 -0.2512 -0.8947 -3.0908
16403TIP3   OH270623   5.045   2.437  13.655  0.3982  0.7883 -0.1779
16403TIP3    H170624   5.067   2.506  13.717  0.8704  0.3500  0.1522
16403TIP3    H270625   4.975   2.474  13.601  1.1815  1.8252 -0.5289
16404TIP3   OH270626   1.518   0.191   1.292 -0.0882 -0.4707 -0.9402
16404TIP3    H170627   1.496   0.245   1.216  0.0876 -1.3691 -1.6608
16404TIP3    H270628   1.609   0.211   1.311 -0.3007  0.1790 -0.6054
16405TIP3   OH270629   5.379   3.851  13.067 -0.4478  0.6107  0.3014
16405TIP3    H170630   5.444   3.863  13.136 -0.1587 -1.9612  0.5876
16405TIP3    H270631   5.295   3.860  13.111 -0.2605 -0.7319  0.9821
16406TIP3   OH270632   1.704   1.132  17.259  0.0080 -0.5466 -0.1941
16406TIP3    H170633   1.647   1.182  17.200  0.5583  0.0298 -0.2447
16406TIP3    H270634   1.689   1.170  17.345  2.8029  1.9643 -0.6906
16407TIP3   OH270635   5.603   2.502  10.593  0.5099 -0.4657  0.2752
16407TIP3    H170636   5.598   2.473  10.684 -0.0423  0.2921  0.4958
16407TIP3    H270637   5.512   2.509  10.565  0.6851 -1.4635 -0.5977
16408TIP3   OH270638   5.233   2.033   1.124 -0.0142  0.1417 -0.2570
16408TIP3    H170639   5.222   2.115   1.172  2.4688  0.0778  0.5277
16408TIP3    H270640   5.252   2.061   1.034  2.2146  0.5508  0.2848
16409TIP3   OH270641   3.710   2.430  16.046 -0.0276 -0.0510 -0.0213
16409TIP3    H170642   3.663   2.513  16.046 -2.0591 -1.1606 -0.1148
16409TIP3    H270643   3.645   2.364  16.021  0.9709 -1.9766  2.0644
16410TIP3   OH270644   3.117   4.173   1.283  0.5361  0.1738  0.1182
16410TIP3    H170645   3.150   4.112   1.217  1.0651  0.3951  0.1708
16410TIP3    H270646   3.045   4.219   1.239 -1.4413 -2.0648  0.8037
16411TIP3   OH270647   5.634   4.993  15.559  0.6834 -0.3481  0.4739
16411TIP3    H170648   5.586   5.016  15.479 -0.4155 -4.4313 -0.2835
16411TIP3    H270649   5.696   5.065  15.571 -2.1755  2.7274 -1.3885
16412TIP3   OH270650   4.466   4.815   2.310  0.0131  0.3041  0.6199
16412TIP3    H170651   4.428   4.727   2.321  0.0002  0.5472  3.0026
16412TIP3    H270652   4.553   4.799   2.275 -0.5391 -0.5541 -0.4097
16413TIP3   OH270653   3.951   2.885   2.643  0.3880 -0.4191 -0.4360
16413TIP3    H170654   3.924   2.939   2.569 -0.7880  0.8329  0.8538
16413TIP3    H270655   3.997   2.944   2.701  1.0700 -1.3317 -0.0247
16414TIP3   OH270656   3.562   5.415   2.915  0.6696  0.1955 -0.0891
16414TIP3    H170657   3.602   5.496   2.882  1.7734 -0.1769  0.2958
16414TIP3    H270658   3.632   5.372   2.963 -0.3232 -0.2958  0.9495
16415TIP3   OH270659   0.434   3.421   6.042  0.0505  0.2194 -0.1168
16415TIP3    H170660   0.354   3.463   6.012 -0.6775 -0.9057  0.1620
16415TIP3    H270661   0.411   3.386   6.129  0.6697 -0.5509 -0.2473
16416TIP3   OH270662   6.545   2.393   0.486 -0.4499 -0.2284  0.1496
16416TIP3    H170663   6.563   2.377   0.393 -0.0402 -0.6753  0.3062
16416TIP3    H270664   6.571   2.313   0.530 -3.5156 -1.2745  0.3285
16417TIP3   OH270665   0.347   0.212  14.886  0.2932 -0.1799  0.5579
16417TIP3    H170666   0.434   0.212  14.926  0.3691 -1.8831  0.4508
16417TIP3    H270667   0.286   0.204  14.959  0.2145  0.7525  0.6111
16418TIP3   OH270668   1.870   3.163  13.671  0.0909  0.5604  0.3897
16418TIP3    H170669   1.884   3.199  13.758  1.8357  0.2608  0.2778
16418TIP3    H270670   1.893   3.234  13.611 -1.2009  0.7985  0.1491
16419TIP3   OH270671   2.621   5.382  15.117 -0.1682 -0.0014 -0.0572
16419TIP3    H170672   2.593   5.314  15.056  1.5662  1.1365 -2.3196
16419TIP3    H270673   2.565   5.371  15.194 -1.3036 -2.6401 -1.1411
16420TIP3   OH270674   6.267   3.364   4.418  0.3302 -0.5845  0.3108
16420TIP3    H170675   6.244   3.420   4.492 -0.8670 -0.7298  0.0619
16420TIP3    H270676   6.252   3.275   4.450  0.0803 -0.6576 -0.0079
16421TIP3   OH270677   1.796   2.196   2.615 -0.1296 -0.2029  0.0554
16421TIP3    H170678   1.840   2.280   2.629 -1.6968  0.4282  1.4179
16421TIP3    H270679   1.829   2.166   2.529  0.8974  1.4915 -0.1877
16422TIP3   OH270680   5.740   4.890  14.347  0.2257  0.3375  0.0639
16422TIP3    H170681   5.646   4.877  14.361  0.3161  1.8382  3.1612
16422TIP3    H270682   5.745   4.964  14.287 -0.5086 -0.5858 -1.1804
16423TIP3   OH270683   5.808   5.001   5.538 -0.1158 -0.0587  0.2826
16423TIP3    H170684   5.897   4.966   5.545 -0.0106 -0.2788 -1.6078
16423TIP3    H270685   5.760   4.934   5.489 -0.3480  1.5889 -1.8935
16424TIP3   OH270686   5.116   2.575   3.993 -0.5150 -0.4523 -0.1735
16424TIP3    H170687   5.140   2.599   3.904 -0.6696  2.0317  0.4014
16424TIP3    H270688   5.157   2.641   4.048  0.4225 -2.4704  1.7408
16425TIP3   OH270689   5.127   3.871  13.151  0.2163 -0.5525  0.2670
16425TIP3    H170690   5.048   3.818  13.156  1.1311 -2.0282 -0.3568
16425TIP3    H270691   5.099   3.953  13.109 -0.6688 -1.6967 -1.4656
16426TIP3   OH270692   2.710   2.802   5.539  0.4314 -0.0444  0.1509
16426TIP3    H170693   2.631   2.855   5.551  1.3027  1.1884  0.7474
16426TIP3    H270694   2.760   2.849   5.473  0.4498 -1.0948 -0.5955
16427TIP3   OH270695   3.458   3.071   2.613  0.0388  0.5987  0.1491
16427TIP3    H170696   3.528   3.079   2.678  0.5942  0.4380 -0.4240
16427TIP3    H270697   3.433   2.979   2.616  0.6317  0.4138 -0.4424
16428TIP3   OH270698   1.980   0.711  12.697  0.8214 -0.0506  0.0826
16428TIP3    H170699   2.054   0.759  12.661  1.1694 -0.0788  0.7367
16428TIP3    H270700   2.013   0.675  12.779 -0.1048  0.4810  0.7095
16429TIP3   OH270701   3.177   6.596   4.757  0.1842  0.7032  0.8313
16429TIP3    H170702   3.227   6.649   4.820  1.1655  2.6203 -1.3876
16429TIP3    H270703   3.235   6.522   4.737  0.9224  1.3572  0.4644
16430TIP3   OH270704   2.890   1.696  15.241  0.2410 -0.3793 -0.5003
16430TIP3    H170705   2.854   1.621  15.195  1.3739 -1.4919  0.3738
16430TIP3    H270706   2.814   1.742  15.277 -0.6349  0.1283 -2.7848
16431TIP3   OH270707   1.469   5.480  13.312 -0.1068 -0.7726  0.3692
16431TIP3    H170708   1.488   5.386  13.312 -0.6971 -0.9011 -0.2811
16431TIP3    H270709   1.554   5.522  13.296  0.1648 -1.1888  0.6941
16432TIP3   OH270710   3.392   2.495   6.755  0.3269 -0.5507 -0.3713
16432TIP3    H170711   3.356   2.428   6.695 -1.1238 -0.2775  0.1456
16432TIP3    H270712   3.484   2.501   6.732  0.3675 -2.3405 -0.8100
16433TIP3   OH270713   1.225   5.141  13.665 -0.0345 -0.6638 -0.1329
16433TIP3    H170714   1.285   5.202  13.708 -1.0331  0.2182  0.0677
16433TIP3    H270715   1.138   5.178  13.682 -0.6145 -1.7412 -0.6672
16434TIP3   OH270716   5.133   1.557  11.586  0.5173  0.1275 -0.3754
16434TIP3    H170717   5.105   1.617  11.517 -1.1451  0.9896  0.9584
16434TIP3    H270718   5.060   1.557  11.649  0.7380 -2.7691  0.0430
16435TIP3   OH270719   5.706   6.027   1.131  0.3528 -0.1505 -0.1662
16435TIP3    H170720   5.721   6.039   1.225  0.0791 -0.7273 -0.0422
16435TIP3    H270721   5.614   6.051   1.118  0.2720 -0.4794 -0.2099
16436TIP3   OH270722   0.615   6.091   0.414 -0.3942  0.2217 -0.6603
16436TIP3    H170723   0.666   6.163   0.376 -0.9491  0.0325 -1.7910
16436TIP3    H270724   0.631   6.017   0.357  1.4737 -1.0833  1.3807
16437TIP3   OH270725   6.380   3.630  15.412  0.5139 -0.3024  0.3137
16437TIP3    H170726   6.366   3.634  15.318  1.1181  0.1502  0.2398
16437TIP3    H270727   6.414   3.542  15.428 -2.4168 -1.4986  0.5185
16438TIP3   OH270728   5.507   6.003  14.792  0.3467 -0.2673  0.0339
16438TIP3    H170729   5.461   5.919  14.786  1.8627 -1.2166  0.9041
16438TIP3    H270730   5.532   6.023  14.702 -1.4018  0.0964 -0.4024
16439TIP3   OH270731   0.075   4.775  15.018 -0.3405  0.5572 -0.1862
16439TIP3    H170732  -0.003   4.752  15.069 -1.4170  0.0910 -1.9344
16439TIP3    H270733   0.138   4.806  15.083 -2.1365  1.3864  1.2684
16440TIP3   OH270734   4.690   3.260  12.710  0.5176  0.5842  0.1418
16440TIP3    H170735   4.634   3.183  12.705  1.1913  0.1423 -0.6612
16440TIP3    H270736   4.777   3.229  12.685  1.1143  1.2856  1.2450
16441TIP3   OH270737   0.922   6.121   1.921 -0.0146  0.3927  0.0915
16441TIP3    H170738   0.992   6.062   1.896  0.0849  1.0563 -1.2753
16441TIP3    H270739   0.931   6.196   1.862 -0.8727  1.2315  0.9764
16442TIP3   OH270740   5.788   3.762  16.415  0.1674 -0.0966  0.0747
16442TIP3    H170741   5.716   3.724  16.365  0.8582  0.8859 -1.7702
16442TIP3    H270742   5.867   3.738  16.366  0.7805  1.9205 -0.0391
16443TIP3   OH270743   2.584   1.605   6.370 -0.0013  0.6051  0.0561
16443TIP3    H170744   2.667   1.583   6.412  0.9793  1.3840 -1.3969
16443TIP3    H270745   2.582   1.552   6.291  0.1353  2.1163 -0.9973
16444TIP3   OH270746   2.575   1.719  15.125 -0.0559  0.2942  0.1745
16444TIP3    H170747   2.517   1.755  15.058 -2.3850  0.4666  2.1599
16444TIP3    H270748   2.584   1.789  15.190  1.1530 -0.2822  0.6804
16445TIP3   OH270749   5.156   0.233   1.884  0.2963 -0.4096  0.0185
16445TIP3    H170750   5.123   0.256   1.797 -1.5608 -2.8318 -0.0148
16445TIP3    H270751   5.236   0.285   1.893 -0.1656  0.9362 -2.5566
16446TIP3   OH270752   5.527   5.929   1.790  0.1402  0.7682 -0.4918
16446TIP3    H170753   5.555   5.948   1.880 -1.3674  1.0137 -0.0309
16446TIP3    H270754   5.510   5.835   1.789  1.4337  0.5239 -0.9218
16447TIP3   OH270755   0.859   4.826  14.770 -0.7684  0.2418 -0.1899
16447TIP3    H170756   0.829   4.786  14.852 -3.5292  0.8698 -0.8065
16447TIP3    H270757   0.911   4.758  14.728  0.8127 -0.0780  2.0493
16448TIP3   OH270758   1.016   2.673   3.528  0.0231 -0.0277  0.0808
16448TIP3    H170759   0.969   2.671   3.444  1.3067 -1.2269 -0.6492
16448TIP3    H270760   1.041   2.582   3.543 -0.5995  0.0882  2.0407
16449TIP3   OH270761   1.433   0.749   6.371 -0.3521 -0.3677  0.4856
16449TIP3    H170762   1.347   0.712   6.351 -0.6811  0.1696  0.8647
16449TIP3    H270763   1.495   0.690   6.330 -0.9023 -0.8211  0.2956
16450TIP3   OH270764   4.775   4.338  12.794  0.4650  0.4910 -0.0558
16450TIP3    H170765   4.849   4.393  12.821  1.0475 -0.1683 -0.2807
16450TIP3    H270766   4.791   4.320  12.702 -0.7992  1.6009 -0.5339
16451TIP3   OH270767   5.620   3.937  11.442 -0.2153 -0.4191  0.0710
16451TIP3    H170768   5.673   3.926  11.521  2.0239 -0.7582 -1.3867
16451TIP3    H270769   5.663   4.008  11.393 -2.3422  0.7358 -0.2824
16452TIP3   OH270770   2.233   1.522   1.997  0.1907 -0.1975 -0.1936
16452TIP3    H170771   2.153   1.535   2.046  0.6178 -2.3749  1.2422
16452TIP3    H270772   2.210   1.543   1.907 -1.0773  2.2893  0.6146
16453TIP3   OH270773   1.224   2.454   0.289 -0.3280  0.3899  0.7384
16453TIP3    H170774   1.195   2.515   0.357  2.5691  0.8562  1.6562
16453TIP3    H270775   1.252   2.376   0.337 -2.7591 -1.3019 -0.3443
16454TIP3   OH270776   2.314   5.331  12.194  0.9983 -0.2653 -0.2128
16454TIP3    H170777   2.241   5.300  12.140  1.8929 -0.5595 -1.2810
16454TIP3    H270778   2.337   5.256  12.249  1.2162 -0.5316 -0.6667
16455TIP3   OH270779   1.225   0.879  13.028  0.4616  0.3937 -0.3829
16455TIP3    H170780   1.142   0.861  13.073  0.6719  2.4001  0.9586
16455TIP3    H270781   1.288   0.889  13.099  1.7528 -0.5360 -1.3680
16456TIP3   OH270782   0.472   4.018  13.772  0.5615  0.0542 -0.0408
16456TIP3    H170783   0.547   3.964  13.748  0.8964  0.8586 -0.8535
16456TIP3    H270784   0.492   4.049  13.860  1.3711  0.5858 -0.4083
16457TIP3   OH270785   0.545   5.549   0.778 -0.2108 -0.3900 -0.4736
16457TIP3    H170786   0.459   5.513   0.798  0.1915 -0.0475  2.2134
16457TIP3    H270787   0.602   5.518   0.848  0.9592  2.5128  0.0042
16458TIP3   OH270788   1.461   0.860   1.278  0.0743  0.1777 -0.0141
16458TIP3    H170789   1.422   0.845   1.364  2.7527  1.3687  1.5596
16458TIP3    H270790   1.399   0.918   1.234 -1.3520 -0.4076  1.1157
16459TIP3   OH270791   0.339   3.863  12.895  0.1094 -0.1016  0.1288
16459TIP3    H170792   0.277   3.895  12.960 -0.8077  0.4198 -0.9555
16459TIP3    H270793   0.285   3.824  12.826  1.0469 -0.7298 -0.2888
16460TIP3   OH270794   1.820   6.503  12.031 -0.2738  0.1775 -0.1770
16460TIP3    H170795   1.853   6.484  12.119  0.3455 -2.4779 -0.9111
16460TIP3    H270796   1.725   6.504  12.041 -0.4784 -3.9733  0.0037
16461TIP3   OH270797   4.019   6.243  16.710  0.5862  0.1232 -0.3085
16461TIP3    H170798   4.061   6.329  16.716  3.0195 -0.9517 -0.6771
16461TIP3    H270799   3.983   6.240  16.621  0.7851  0.6311 -0.4093
16462TIP3   OH270800   4.401   2.392  11.139 -0.0810 -0.1840 -0.0699
16462TIP3    H170801   4.479   2.366  11.089  0.4116  1.9794 -0.5289
16462TIP3    H270802   4.382   2.481  11.108 -3.8905 -1.2579 -1.3390
16463TIP3   OH270803   1.093   1.856  12.863 -0.6832 -0.2018  0.2784
16463TIP3    H170804   1.173   1.841  12.813 -0.6095  0.6792  0.1135
16463TIP3    H270805   1.036   1.783  12.839  0.2637 -1.1421  0.8292
16464TIP3   OH270806   1.638   4.964   2.074 -0.6820 -0.1874 -0.3865
16464TIP3    H170807   1.586   5.024   2.020 -3.7553 -1.5308  0.8812
16464TIP3    H270808   1.637   5.003   2.161 -1.2195 -1.1908  0.0681
16465TIP3   OH270809   2.511   2.048   4.735 -0.4756  0.8173  0.4613
16465TIP3    H170810   2.488   2.104   4.809 -1.2880  1.2140 -0.0755
16465TIP3    H270811   2.484   2.098   4.658  2.2458  1.3378 -0.2601
16466TIP3   OH270812   0.296   3.875   0.019 -0.3667  0.8185 -0.2517
16466TIP3    H170813   0.299   3.864  -0.076  1.1853  1.2853 -0.2898
16466TIP3    H270814   0.253   3.960   0.032  1.5099  1.9002 -0.6945
16467TIP3   OH270815   5.781   1.119   5.436  0.0047 -0.0527  0.0534
16467TIP3    H170816   5.851   1.159   5.489 -0.2090 -0.4735  0.6687
16467TIP3    H270817   5.787   1.025   5.457  0.6848 -0.4084 -1.5738
16468TIP3   OH270818   1.891   3.828  10.837  0.0160  0.4498  0.5330
16468TIP3    H170819   1.940   3.896  10.884  0.0213 -0.5658  2.0757
16468TIP3    H270820   1.801   3.859  10.837  0.2756  1.2254 -0.2395
16469TIP3   OH270821   6.158   2.034  16.893  0.6863  0.3793 -0.1420
16469TIP3    H170822   6.077   2.079  16.867 -0.1370 -0.9889 -0.0094
16469TIP3    H270823   6.227   2.096  16.870 -0.2130  0.6166 -2.4996
16470TIP3   OH270824   6.405   1.019   1.472  0.0064 -0.1650  0.2258
16470TIP3    H170825   6.378   1.086   1.409  1.4928 -0.0654 -0.3606
16470TIP3    H270826   6.480   0.977   1.431  1.3990  0.2917  2.1473
16471TIP3   OH270827   3.257   6.553   2.713 -0.2109 -0.1530 -0.0230
16471TIP3    H170828   3.232   6.585   2.800 -1.0097 -1.2288  0.1675
16471TIP3    H270829   3.342   6.593   2.696  0.1676 -0.2796  1.4582
16472TIP3   OH270830   5.078   6.675  16.270 -0.1784 -0.2443  0.1235
16472TIP3    H170831   4.990   6.684  16.234 -0.7838  1.3196  1.8469
16472TIP3    H270832   5.066   6.625  16.351  0.4438  0.2889  0.5615
16473TIP3   OH270833   4.004   5.354  12.680  0.2648 -0.6739  0.5557
16473TIP3    H170834   3.998   5.447  12.661 -0.2437 -0.7485  0.3368
16473TIP3    H270835   3.976   5.311  12.599 -0.2135 -1.0096  0.8923
16474TIP3   OH270836   2.552   1.096  12.329 -0.0358 -0.2732 -0.1794
16474TIP3    H170837   2.580   1.021  12.381  3.5014  0.9572 -0.0092
16474TIP3    H270838   2.521   1.058  12.247 -0.0152 -1.9610  0.5487
16475TIP3   OH270839   0.092   4.044  15.822  0.2614 -0.3162  0.0674
16475TIP3    H170840   0.055   3.976  15.879 -0.3581  0.0818  0.1506
16475TIP3    H270841   0.108   4.118  15.881 -2.8942  1.0943 -0.6378
16476TIP3   OH270842   0.762   2.724  15.944  0.0259  0.2067  0.4740
16476TIP3    H170843   0.688   2.685  15.897 -1.2082  1.3567  1.3714
16476TIP3    H270844   0.829   2.656  15.946 -1.8156 -1.6620  1.4936
16477TIP3   OH270845   4.687   3.976   0.061  0.4980 -0.4976  0.4327
16477TIP3    H170846   4.687   4.018   0.147 -1.8633  1.1199 -0.2707
16477TIP3    H270847   4.769   4.004   0.020  2.0207 -1.8879  2.3470
16478TIP3   OH270848   6.238   5.809  15.102 -0.3125  0.0958  0.3279
16478TIP3    H170849   6.331   5.804  15.123 -0.2915  0.2535  0.2674
16478TIP3    H270850   6.202   5.726  15.135 -0.6456  1.1392  2.8149
16479TIP3   OH270851   1.332   0.389   4.237 -0.5594  0.1858  0.0085
16479TIP3    H170852   1.252   0.344   4.208 -1.5870  2.1434 -0.3301
16479TIP3    H270853   1.397   0.367   4.170 -0.8770 -1.1870  0.1227
16480TIP3   OH270854   0.499   2.141  15.292 -0.2236  0.4110 -0.4956
16480TIP3    H170855   0.406   2.162  15.281 -0.4429 -1.4175 -2.8140
16480TIP3    H270856   0.542   2.186  15.219  0.4525 -0.2437 -0.5052
16481TIP3   OH270857   3.134   4.696  14.539  0.5073  0.2944  0.6125
16481TIP3    H170858   3.192   4.630  14.500  0.6248  0.9099 -0.2884
16481TIP3    H270859   3.162   4.779  14.500 -0.6918  0.6687  0.4990
16482TIP3   OH270860   4.792   3.582  12.158  0.7102 -0.0866 -0.5104
16482TIP3    H170861   4.794   3.554  12.067 -0.0342 -1.5697 -0.0996
16482TIP3    H270862   4.746   3.512  12.204 -0.5731  1.4856  0.7247
16483TIP3   OH270863   4.616   4.001   4.874  0.0010  0.3036  0.3740
16483TIP3    H170864   4.528   4.038   4.870 -0.0477  0.2278  0.7362
16483TIP3    H270865   4.638   3.998   4.967 -1.1635 -3.2143  0.6904
16484TIP3   OH270866   4.521   0.082  16.153 -0.0748  0.3377 -0.1300
16484TIP3    H170867   4.468   0.159  16.175 -0.5304  0.2105 -0.7394
16484TIP3    H270868   4.520   0.079  16.058  0.5313 -0.0230 -0.1272
16485TIP3   OH270869   2.614   3.051   3.554 -0.2930 -0.3367  0.5147
16485TIP3    H170870   2.592   3.012   3.469  0.5207  1.1227 -0.4314
16485TIP3    H270871   2.545   3.022   3.613 -1.0343 -1.1813 -0.7096
16486TIP3   OH270872   3.331   5.360   6.880  0.3969 -0.6593  0.4822
16486TIP3    H170873   3.401   5.295   6.878  0.3302 -0.7819  1.5609
16486TIP3    H270874   3.376   5.444   6.884  0.4807 -0.6479 -0.4807
16487TIP3   OH270875   3.786   1.333  13.539  0.1298 -0.4208 -0.3876
16487TIP3    H170876   3.830   1.388  13.603  1.8913  0.1187 -1.9539
16487TIP3    H270877   3.817   1.244  13.557  1.0367 -0.1980 -0.7654
16488TIP3   OH270878   0.032   1.365  12.749 -0.6784 -0.0896  0.6415
16488TIP3    H170879  -0.024   1.431  12.790  0.6699  1.1067  0.6408
16488TIP3    H270880   0.111   1.413  12.724  0.9173 -1.9352  1.7844
16489TIP3   OH270881   6.500   0.263  15.105  0.3803  0.0237  0.2071
16489TIP3    H170882   6.418   0.273  15.056 -0.3379  2.6524  1.7337
16489TIP3    H270883   6.484   0.190  15.164  0.4576 -1.7197 -1.7962
16490TIP3   OH270884   0.727   2.447   0.632 -0.3520 -0.0613  0.2201
16490TIP3    H170885   0.789   2.424   0.563 -0.0504 -0.6849  0.6892
16490TIP3    H270886   0.644   2.407   0.605  0.5769 -3.4814  1.9306
16491TIP3   OH270887   0.153   6.042  14.795 -0.0659  0.1480  0.2507
16491TIP3    H170888   0.167   5.985  14.871 -0.5340 -1.8338 -1.0694
16491TIP3    H270889   0.129   6.126  14.832 -0.4142 -0.7958  2.2955
16492TIP3   OH270890   0.729   4.380   4.164  0.1450  0.3192 -0.3030
16492TIP3    H170891   0.801   4.443   4.159 -0.1340  0.6138 -0.6998
16492TIP3    H270892   0.708   4.374   4.257 -2.2123  3.5792 -0.4664
16493TIP3   OH270893   5.238   0.356   5.990 -0.1928 -0.4093  0.1701
16493TIP3    H170894   5.146   0.375   5.973 -0.1527  0.8265  1.2072
16493TIP3    H270895   5.244   0.348   6.085  1.0828  1.3777  0.2808
16494TIP3   OH270896   2.892   5.964   1.211 -0.5048  0.1487 -0.3185
16494TIP3    H170897   2.936   5.897   1.262 -1.1348  0.2591  0.3805
16494TIP3    H270898   2.945   6.043   1.222 -0.1589 -0.0483 -0.5609
16495TIP3   OH270899   4.890   4.719  16.725 -0.4567 -0.0050  0.1269
16495TIP3    H170900   4.920   4.783  16.660  1.2692 -1.0819 -0.1803
16495TIP3    H270901   4.966   4.666  16.744 -2.0321 -2.5465 -0.2333
16496TIP3   OH270902   5.395   4.024  13.501  0.4367  0.4580  0.0456
16496TIP3    H170903   5.394   4.006  13.595  1.0140  0.8542  0.1329
16496TIP3    H270904   5.442   3.949  13.463 -0.5525 -0.1369 -0.0321
16497TIP3   OH270905   2.286   3.168   5.919 -0.1653 -0.1470 -0.5286
16497TIP3    H170906   2.363   3.152   5.974  1.6694 -1.8174 -3.3331
16497TIP3    H270907   2.278   3.263   5.915  2.1532  0.1049 -0.5890
16498TIP3   OH270908   3.083   5.832  11.758  0.2985  0.8512 -0.8332
16498TIP3    H170909   3.079   5.861  11.667 -0.3491  2.6369 -0.2646
16498TIP3    H270910   3.058   5.909  11.809 -0.8993 -0.5481  0.7879
16499TIP3   OH270911   3.438   3.414   5.424  1.2304 -0.0513 -0.1705
16499TIP3    H170912   3.454   3.427   5.517 -1.2626  2.2889  0.0487
16499TIP3    H270913   3.351   3.373   5.420  0.3424  1.7831 -1.4161
16500TIP3   OH270914   2.800   0.044   3.445  0.3566  0.3478 -0.9873
16500TIP3    H170915   2.880   0.083   3.480  0.6788  0.8793 -2.2617
16500TIP3    H270916   2.817  -0.050   3.442  0.4626  0.3351 -0.1069
16501TIP3   OH270917   2.162   6.706  11.109  1.0294  0.8635 -0.3949
16501TIP3    H170918   2.219   6.630  11.095  0.9111  1.1836 -3.0530
16501TIP3    H270919   2.211   6.780  11.074 -0.2885  1.4108 -1.1511
16502TIP3   OH270920   1.634   2.350   4.411  0.0289  0.2434  0.6082
16502TIP3    H170921   1.557   2.299   4.435  0.6635 -0.4883  1.1561
16502TIP3    H270922   1.599   2.432   4.376 -1.0170 -0.6423 -0.4850
16503TIP3   OH270923   0.357   4.776   3.973  0.2409 -0.6907  0.0396
16503TIP3    H170924   0.416   4.766   4.047  0.0531  0.2609  0.3303
16503TIP3    H270925   0.352   4.870   3.958  0.5530 -0.8780 -1.4160
16504TIP3   OH270926   2.044   0.122  16.855  0.0434  0.0791 -0.5583
16504TIP3    H170927   2.087   0.162  16.779 -0.4777  1.5714 -0.1100
16504TIP3    H270928   2.109   0.128  16.925 -0.8315  2.4773  0.1598
16505TIP3   OH270929   0.228   3.120   5.502  0.3129  0.2151  0.2811
16505TIP3    H170930   0.285   3.045   5.517 -0.5361 -0.4811  0.1171
16505TIP3    H270931   0.152   3.084   5.456 -0.3244  1.0939  0.6086
16506TIP3   OH270932   3.293   1.289  13.019 -0.2657  0.1445 -0.1778
16506TIP3    H170933   3.372   1.325  13.060 -0.2720 -0.0670  0.0224
16506TIP3    H270934   3.242   1.254  13.091  0.0487 -0.8615 -0.4191
16507TIP3   OH270935   0.540   0.641   4.830  0.4558  0.7258  0.9970
16507TIP3    H170936   0.484   0.565   4.841  0.6254  0.6667  1.4801
16507TIP3    H270937   0.551   0.650   4.735  1.2156 -0.4127  0.9689
16508TIP3   OH270938   1.840   1.496   5.082 -0.7641  0.8716  0.2280
16508TIP3    H170939   1.839   1.434   5.009 -0.0775  0.1454  0.8032
16508TIP3    H270940   1.861   1.580   5.043  0.6385  0.3077 -0.2939
16509TIP3   OH270941   4.616   6.166  15.130  0.3599  0.3401 -0.0824
16509TIP3    H170942   4.630   6.117  15.211  0.6387  1.1663  0.3734
16509TIP3    H270943   4.688   6.138  15.073  2.3984  2.4722  1.2678
16510TIP3   OH270944   4.837   0.696   4.379 -0.3513  0.6388 -0.5839
16510TIP3    H170945   4.884   0.770   4.418 -1.1629  1.5831 -1.3327
16510TIP3    H270946   4.832   0.718   4.286 -0.7776 -0.2723 -0.7834
16511TIP3   OH270947   2.750   4.968  12.820 -0.2507  0.0277 -0.9400
16511TIP3    H170948   2.673   5.024  12.806 -0.6592 -0.4448 -0.6305
16511TIP3    H270949   2.824   5.029  12.821 -0.6847  0.5646 -0.6467
16512TIP3   OH270950   5.192   5.911  16.804  0.7243 -0.4663  0.0617
16512TIP3    H170951   5.233   5.836  16.760 -1.3326 -1.7149  0.1653
16512TIP3    H270952   5.102   5.912  16.771 -0.0517  0.3405  2.0674
16513TIP3   OH270953   6.563   4.927  12.358 -0.0009  0.4245  0.2119
16513TIP3    H170954   6.604   5.011  12.344  3.3042 -1.3894 -2.1860
16513TIP3    H270955   6.545   4.925  12.452  0.0715  3.5936  0.3940
16514TIP3   OH270956   2.803   5.821   6.364  0.4189 -0.6540 -0.2986
16514TIP3    H170957   2.727   5.819   6.422  0.4809 -0.8634 -0.2236
16514TIP3    H270958   2.827   5.729   6.354  2.0055 -0.4643  1.4184
16515TIP3   OH270959   1.361   2.443   5.028 -0.1438 -0.2073  0.0103
16515TIP3    H170960   1.441   2.415   4.984 -1.4976 -1.5013 -1.7915
16515TIP3    H270961   1.313   2.491   4.961 -0.5229  1.2974  1.3198
16516TIP3   OH270962   3.616   0.972   5.436 -0.1465  0.8062  0.5573
16516TIP3    H170963   3.664   1.054   5.441  2.0847 -0.0042 -3.7967
16516TIP3    H270964   3.675   0.907   5.474  0.6820  0.4007 -1.3343
16517TIP3   OH270965   5.740   2.900   2.140  0.6707  0.1647 -0.1423
16517TIP3    H170966   5.809   2.967   2.139  1.6284 -0.7565 -2.1185
16517TIP3    H270967   5.671   2.937   2.084  0.7521 -0.0642 -0.3948
16518TIP3   OH270968   4.063   1.981   3.557  0.2711 -0.1431  0.3331
16518TIP3    H170969   4.100   1.920   3.620  2.1085  0.5423  0.0027
16518TIP3    H270970   4.028   2.052   3.610  0.6412 -0.1825  0.6371
16519TIP3   OH270971   4.079   2.814  13.433  0.0161  0.3415  0.2147
16519TIP3    H170972   4.030   2.846  13.509 -0.7003  0.4207 -0.2746
16519TIP3    H270973   4.031   2.848  13.357  1.3523  1.2337 -0.2781
16520TIP3   OH270974   6.617   6.739   2.405 -0.1653 -0.1242 -0.2877
16520TIP3    H170975   6.595   6.832   2.413 -0.9271 -0.3123 -0.2048
16520TIP3    H270976   6.697   6.729   2.457 -1.6671 -0.1011  2.1367
16521TIP3   OH270977   4.652   4.527  11.473  0.1049  0.1205 -0.3960
16521TIP3    H170978   4.586   4.567  11.529 -0.2785  1.1986 -1.5678
16521TIP3    H270979   4.634   4.433  11.477 -1.2546  0.3672 -0.3816
16522TIP3   OH270980   3.474   1.289  14.906  0.1572 -0.0213  0.2239
16522TIP3    H170981   3.513   1.376  14.896  0.7366 -0.0872  1.6653
16522TIP3    H270982   3.492   1.245  14.823 -0.4835  1.3456 -0.6814
16523TIP3   OH270983   1.899   3.666  17.048 -0.0949 -0.4693  0.4445
16523TIP3    H170984   1.872   3.752  17.015  1.9704  0.1708  0.3109
16523TIP3    H270985   1.900   3.610  16.971 -0.7740 -0.4588  0.4182
16524TIP3   OH270986   5.385   1.129   3.679 -0.4975  0.1732 -0.2088
16524TIP3    H170987   5.430   1.052   3.645 -2.6127 -0.5568 -1.5477
16524TIP3    H270988   5.292   1.110   3.665 -1.2309  1.7900  1.9993
16525TIP3   OH270989   0.455   3.945  11.751  0.2470  0.0986 -0.4303
16525TIP3    H170990   0.532   3.957  11.695  0.8868  2.8509  0.8854
16525TIP3    H270991   0.489   3.952  11.840 -1.4821  1.3090  0.1757
16526TIP3   OH270992   6.445   4.915  15.473 -0.5861  0.4833  0.3024
16526TIP3    H170993   6.537   4.917  15.449 -0.5768  0.4284  0.3321
16526TIP3    H270994   6.443   4.867  15.556 -0.4985  1.5605  0.9523
16527TIP3   OH270995   3.548   5.194   5.959 -0.4855  0.0689  0.1210
16527TIP3    H170996   3.534   5.105   5.989 -1.1978 -0.4808 -1.7081
16527TIP3    H270997   3.473   5.212   5.901 -0.8928  2.2070  1.1985
16528TIP3   OH270998   5.932   2.126  12.624 -0.0039 -0.0304 -0.1727
16528TIP3    H170999   5.936   2.059  12.555 -0.6706  0.1370 -0.3790
16528TIP3    H271000   5.839   2.140  12.638  0.1210 -0.2231  0.9235
16529TIP3   OH271001   1.158   6.290  11.137 -0.4994 -0.5797 -0.0059
16529TIP3    H171002   1.187   6.368  11.090 -3.1985 -0.4576 -1.6891
16529TIP3    H271003   1.203   6.218  11.094  0.7573 -0.1030  0.4754
16530TIP3   OH271004   6.294   2.477  15.886  0.1988  0.5663  0.1688
16530TIP3    H171005   6.363   2.413  15.903 -0.5009 -0.0471  0.7485
16530TIP3    H271006   6.306   2.501  15.794 -1.3519 -2.6998 -1.0414
16531TIP3   OH271007   5.308   0.310   4.053 -0.4621 -0.2284  0.3695
16531TIP3    H171008   5.268   0.269   3.977 -4.0811  0.0794  1.9034
16531TIP3    H271009   5.293   0.404   4.041  2.1369  0.2114 -0.1102
16532TIP3   OH271010   5.269   6.318  11.172  0.0893  0.6201  0.0683
16532TIP3    H171011   5.257   6.238  11.122 -0.2277  0.8259 -0.1917
16532TIP3    H271012   5.255   6.389  11.109  0.3504  0.8801  0.2975
16533TIP3   OH271013   2.648   2.837  15.663 -0.3905  0.9900  0.4727
16533TIP3    H171014   2.732   2.791  15.658  0.6749  2.7974  0.9331
16533TIP3    H271015   2.591   2.778  15.714  0.2029 -0.7701 -0.8242
16534TIP3   OH271016   2.291   6.565  15.991  0.0218  0.7613 -0.3900
16534TIP3    H171017   2.344   6.637  16.028  1.3212  1.2894 -3.0531
16534TIP3    H271018   2.204   6.577  16.030  0.5886  2.8830  0.3632
16535TIP3   OH271019   4.639   1.370  14.752 -0.2359 -0.3567 -0.0700
16535TIP3    H171020   4.643   1.283  14.713 -0.7152 -1.5159  2.2897
16535TIP3    H271021   4.731   1.399  14.755  0.0511 -1.2463  0.0784
16536TIP3   OH271022   2.053   5.869   2.809 -0.1059  0.4918  0.1139
16536TIP3    H171023   2.036   5.924   2.733  1.2349 -0.3077 -0.7890
16536TIP3    H271024   2.019   5.783   2.785  2.4568 -0.4073 -0.6224
16537TIP3   OH271025   6.408   5.807   0.283  0.2951 -0.2612 -0.6268
16537TIP3    H171026   6.477   5.835   0.221  1.3775 -0.7931  0.2998
16537TIP3    H271027   6.456   5.775   0.359 -0.9814  2.5311  1.5400
16538TIP3   OH271028   3.276   6.590   5.713 -0.2598  0.3103 -0.0614
16538TIP3    H171029   3.303   6.554   5.628  0.6082  0.4407  0.1522
16538TIP3    H271030   3.335   6.550   5.776 -0.5612  0.6152  0.4186
16539TIP3   OH271031   1.005   5.412  15.784 -0.1175  0.2802  0.3987
16539TIP3    H171032   1.013   5.472  15.710 -0.4860 -1.0329 -0.7518
16539TIP3    H271033   1.094   5.380  15.799 -0.2443 -0.5368 -0.4574
16540TIP3   OH271034   6.576   2.515   6.527  0.0924  0.5947  0.3693
16540TIP3    H171035   6.531   2.432   6.515 -0.8323  0.3530  4.1437
16540TIP3    H271036   6.661   2.504   6.483  0.0996 -2.4430  0.9527
16541TIP3   OH271037   2.994   1.383  16.126 -0.2156  0.4678  0.1701
16541TIP3    H171038   3.070   1.331  16.152 -1.5990 -1.9777 -0.3201
16541TIP3    H271039   3.031   1.457  16.077  1.8446 -1.1634 -0.9238
16542TIP3   OH271040   1.267   1.138  10.831 -0.5618  0.4938  0.6429
16542TIP3    H171041   1.362   1.131  10.834 -0.7044 -1.4410  2.0926
16542TIP3    H271042   1.251   1.217  10.780  1.8136  0.9954  0.5602
16543TIP3   OH271043   3.922   1.767  12.942  0.5511 -0.6904  0.2511
16543TIP3    H171044   3.915   1.748  13.036  0.5558  2.4289  0.9921
16543TIP3    H271045   3.967   1.851  12.938  1.1049 -1.0169 -2.6302
16544TIP3   OH271046   3.599   3.261   0.061 -0.3184  0.0418 -0.2728
16544TIP3    H171047   3.522   3.207   0.078  0.6119 -1.2854 -0.1271
16544TIP3    H271048   3.631   3.284   0.149 -1.6293  2.2901 -0.2926
16545TIP3   OH271049   5.443   0.768  11.330  0.2372 -0.7732  0.3528
16545TIP3    H171050   5.394   0.769  11.413  0.7782 -0.8990  0.6786
16545TIP3    H271051   5.452   0.675  11.309 -0.0181 -0.7372  0.0795
16546TIP3   OH271052   5.905   5.855   4.230  0.1684  0.1041 -0.2643
16546TIP3    H171053   5.887   5.898   4.314  1.2376  0.9580 -0.4514
16546TIP3    H271054   5.935   5.767   4.253  2.1295  0.8951  0.3662
16547TIP3   OH271055   1.041   3.909  12.689 -0.4170  0.4663 -0.2958
16547TIP3    H171056   1.014   3.831  12.641  0.7148 -1.1115  1.4676
16547TIP3    H271057   0.960   3.948  12.720 -1.1144  1.0711 -2.6812
16548TIP3   OH271058   2.678   2.501  14.123 -0.2807  0.0960 -0.7058
16548TIP3    H171059   2.635   2.567  14.069 -0.0220 -1.0897 -2.4498
16548TIP3    H271060   2.620   2.424  14.118 -0.2528 -0.0482  0.7451
16549TIP3   OH271061   5.848   2.741  16.654  0.1610 -0.1019 -0.7781
16549TIP3    H171062   5.850   2.775  16.564 -1.1646 -0.1018 -0.8266
16549TIP3    H271063   5.926   2.779  16.696  2.1912 -1.9787 -2.5521
16550TIP3   OH271064   6.389   1.056   4.114  0.7961 -0.6324 -0.0110
16550TIP3    H171065   6.469   1.017   4.147  0.9049 -1.1617 -0.8836
16550TIP3    H271066   6.375   1.132   4.170  2.3740 -0.0247 -0.4008
16551TIP3   OH271067   2.829   5.189  16.527 -0.7547 -0.6828 -0.2092
16551TIP3    H171068   2.832   5.108  16.476 -0.4439 -1.2429  0.6762
16551TIP3    H271069   2.797   5.163  16.613  1.0457 -0.2140  0.6705
16552TIP3   OH271070   0.003   1.701   2.656  0.2114  0.0239  0.0971
16552TIP3    H171071   0.085   1.750   2.647  0.5533 -0.6448 -0.4512
16552TIP3    H271072  -0.055   1.762   2.703  1.0153  0.4980  0.5083
16553TIP3   OH271073   5.864   2.848  15.951  0.2513  0.6574 -0.3045
16553TIP3    H171074   5.939   2.847  15.892 -1.0868  2.7119 -2.2245
16553TIP3    H271075   5.895   2.892  16.029  1.0096  1.7151 -1.1670
16554TIP3   OH271076   4.731   0.255   2.023  0.0377 -0.4629  1.1358
16554TIP3    H171077   4.664   0.304   2.071 -1.2344 -1.2559  0.2443
16554TIP3    H271078   4.738   0.171   2.069  1.2183  0.0021  1.8519
16555TIP3   OH271079   0.371   5.369   4.462 -0.0111 -0.1734  0.0234
16555TIP3    H171080   0.349   5.371   4.555 -2.0841 -0.6862 -0.4125
16555TIP3    H271081   0.288   5.385   4.417  1.2457  1.9727 -1.7461
16556TIP3   OH271082   6.343   5.134   4.980  0.1205  0.0141 -0.2018
16556TIP3    H171083   6.419   5.124   5.037  0.9996  1.4515 -1.0560
16556TIP3    H271084   6.269   5.144   5.039  1.0129  1.4676  0.7237
16557TIP3   OH271085   6.365   2.684  13.846 -0.4463  0.2383 -0.1868
16557TIP3    H171086   6.429   2.667  13.916 -0.6468  0.8460  0.1518
16557TIP3    H271087   6.307   2.608  13.848 -0.5971  0.3656  0.4788
16558TIP3   OH271088   3.669   1.057  13.399  0.2990  0.4750 -0.4431
16558TIP3    H171089   3.713   1.006  13.330 -1.5936 -2.5557  0.4141
16558TIP3    H271090   3.727   1.050  13.475  1.0537  1.5188 -0.8790
16559TIP3   OH271091   5.894   4.298   3.220  0.1829  0.0683  0.2018
16559TIP3    H171092   5.938   4.217   3.194  0.7137  0.0616  1.0691
16559TIP3    H271093   5.873   4.342   3.138 -0.8359 -1.3176 -0.3102
16560TIP3   OH271094   5.818   1.096  16.795  0.3153  1.2368  0.3737
16560TIP3    H171095   5.859   1.029  16.741 -1.2946  0.9452 -0.5489
16560TIP3    H271096   5.883   1.117  16.862  2.2639  1.3616 -1.4541
16561TIP3   OH271097   5.218   0.368   1.137 -0.1853  0.9043  0.4814
16561TIP3    H171098   5.196   0.445   1.085 -1.1988 -0.0712 -0.6250
16561TIP3    H271099   5.209   0.295   1.075  2.2418  0.0116  1.0679
16562TIP3   OH271100   3.850   4.535  16.838  0.0437 -0.2435  0.5674
16562TIP3    H171101   3.943   4.515  16.837  0.0086 -0.4122  0.5885
16562TIP3    H271102   3.813   4.474  16.902 -0.2998 -1.1868 -0.4939
16563TIP3   OH271103   4.073   5.980  14.318  0.1512  0.2868 -0.2851
16563TIP3    H171104   4.096   6.073  14.311 -0.7996  0.6933  1.4460
16563TIP3    H271105   4.117   5.939  14.244  0.9883  2.0412 -0.8136
16564TIP3   OH271106   3.034   0.598   1.546 -0.2774  0.3686 -0.5606
16564TIP3    H171107   3.059   0.524   1.490  0.8293  0.2667  0.0144
16564TIP3    H271108   3.106   0.660   1.536 -0.9162  1.1150 -0.5804
16565TIP3   OH271109   3.840   3.142  12.714  0.6419 -0.5361  0.1545
16565TIP3    H171110   3.893   3.101  12.646 -0.2638 -0.5858 -0.5269
16565TIP3    H271111   3.845   3.236  12.696 -0.0448 -0.5835 -0.3264
16566TIP3   OH271112   3.182   3.518  13.225  0.2161 -0.0942 -0.3421
16566TIP3    H171113   3.091   3.540  13.243  0.2363  0.1728 -0.5631
16566TIP3    H271114   3.223   3.601  13.203  0.5772 -0.1790  0.0198
16567TIP3   OH271115   6.546   2.036  13.437  0.2187 -0.0422  0.0050
16567TIP3    H171116   6.472   2.043  13.497  0.9841  2.5848  0.7873
16567TIP3    H271117   6.535   2.110  13.377  0.6919 -1.2970 -1.7055
16568TIP3   OH271118   4.608   6.601  12.569 -0.5871  0.0677  0.7181
16568TIP3    H171119   4.528   6.648  12.594 -1.9996 -0.4870 -2.2797
16568TIP3    H271120   4.576   6.526  12.517  1.8105 -1.5360  1.4125
16569TIP3   OH271121   1.378   2.265   1.813 -0.4660  0.0324  0.4685
16569TIP3    H171122   1.428   2.339   1.779  0.0057 -0.0571  0.9524
16569TIP3    H271123   1.312   2.247   1.746 -0.6805  0.9836  0.4187
16570TIP3   OH271124   4.516   3.134  16.864  0.0114 -0.5130  0.2247
16570TIP3    H171125   4.556   3.153  16.949 -2.7114  0.7263  1.3296
16570TIP3    H271126   4.446   3.072  16.883 -0.7183 -0.1329 -1.0805
16571TIP3   OH271127   3.319   0.081   4.087 -0.3519 -0.1273  0.2916
16571TIP3    H171128   3.292   0.031   4.010 -1.4491 -0.5024  0.9148
16571TIP3    H271129   3.244   0.078   4.146  0.6994 -0.3730  1.6539
16572TIP3   OH271130   4.171   5.279   1.380 -0.7876 -0.0268 -0.3102
16572TIP3    H171131   4.247   5.274   1.437  0.5301  0.7507 -1.9100
16572TIP3    H271132   4.114   5.207   1.409  1.1769 -1.5039  0.0719
16573TIP3   OH271133   4.146   5.190   5.119 -0.8201  0.2564 -0.6557
16573TIP3    H171134   4.146   5.106   5.164  1.7374 -0.5638 -1.9838
16573TIP3    H271135   4.211   5.243   5.165  0.2619  0.1531 -2.0010
16574TIP3   OH271136   2.490   0.064  15.394  0.4702  0.1523 -0.1975
16574TIP3    H171137   2.428   0.074  15.322  0.9676 -3.0522 -1.2330
16574TIP3    H271138   2.563   0.123  15.372 -0.1145  0.4325 -1.4518
16575TIP3   OH271139   6.667   4.274  13.309 -0.0705 -0.1763  0.5866
16575TIP3    H171140   6.750   4.264  13.356  0.8341  0.7840 -0.7211
16575TIP3    H271141   6.673   4.361  13.268 -1.1215 -0.6659 -0.6718
16576TIP3   OH271142   3.580   1.671   6.752  0.0213 -0.4036  0.3530
16576TIP3    H171143   3.645   1.605   6.778 -1.3434 -2.1378 -0.3623
16576TIP3    H271144   3.603   1.749   6.802  2.2468 -1.1397  0.5915
16577TIP3   OH271145   6.210   6.422   1.170  0.2116  0.1230  0.1118
16577TIP3    H171146   6.232   6.452   1.082  1.4370  0.1945  0.4152
16577TIP3    H271147   6.115   6.427   1.175  0.2129  1.3333 -0.7739
16578TIP3   OH271148   4.255   0.448   0.175  0.3264 -0.8009  0.4458
16578TIP3    H171149   4.199   0.399   0.115  0.8885 -1.9109  0.8100
16578TIP3    H271150   4.342   0.442   0.138  0.5993 -1.0958  1.1121
16579TIP3   OH271151   5.304   5.721   5.216 -0.0600 -0.5597  0.2221
16579TIP3    H171152   5.305   5.692   5.125 -0.9178 -1.3309  0.4447
16579TIP3    H271153   5.295   5.816   5.211 -0.1175 -0.5988 -0.5003
16580TIP3   OH271154   3.854   2.040   1.892  0.1896 -0.1225  0.2292
16580TIP3    H171155   3.864   2.096   1.968 -0.5287  2.6204 -1.5401
16580TIP3    H271156   3.938   1.994   1.885  1.0472  1.1654  1.4706
16581TIP3   OH271157   1.933   2.003   0.721 -0.4501  0.4746  0.1544
16581TIP3    H171158   2.028   2.001   0.728 -0.4786  1.0203  0.9402
16581TIP3    H271159   1.907   1.911   0.719  0.0268  0.2914  1.3272
16582TIP3   OH271160   4.634   2.301   5.381 -0.1937 -0.1635 -0.4273
16582TIP3    H171161   4.723   2.318   5.411 -0.0630 -1.5107  0.0135
16582TIP3    H271162   4.639   2.310   5.286  0.0493  1.2671 -0.2998
16583TIP3   OH271163   0.420   6.747  15.683 -0.5991  0.0812 -0.1049
16583TIP3    H171164   0.353   6.792  15.630 -0.0626  0.3265 -0.5884
16583TIP3    H271165   0.498   6.747  15.627  0.2607  1.2013  1.0472
16584TIP3   OH271166   2.801   1.510   5.301 -0.2444  0.1433  0.2058
16584TIP3    H171167   2.847   1.504   5.218 -0.9683 -0.0489 -0.1914
16584TIP3    H271168   2.842   1.584   5.347 -0.1599  0.5558 -0.5251
16585TIP3   OH271169   2.415   2.166   4.997  0.3464  0.4138  0.1547
16585TIP3    H171170   2.495   2.165   5.050 -0.4104  0.4332  1.3432
16585TIP3    H271171   2.344   2.178   5.061 -0.5070  1.8581 -0.9992
16586TIP3   OH271172   0.347   2.044  14.186 -0.0393 -0.1856  0.8281
16586TIP3    H171173   0.288   2.113  14.155 -0.2678 -1.2293 -1.2070
16586TIP3    H271174   0.403   2.087  14.251 -0.4347  1.8072 -0.0991
16587TIP3   OH271175   0.719   4.021  14.751 -0.5655  0.5401 -0.3526
16587TIP3    H171176   0.765   4.067  14.681  0.0686  0.5274  0.0458
16587TIP3    H271177   0.693   4.089  14.813  2.4497  0.2261  1.4430
16588TIP3   OH271178   4.195   1.671  16.764  0.3745  0.8855 -0.5509
16588TIP3    H171179   4.179   1.579  16.783  1.2179  0.7971 -0.2180
16588TIP3    H271180   4.274   1.672  16.710  0.3119  1.4074 -0.6446
16589TIP3   OH271181   4.716   5.280   3.269  0.0054  0.1254  0.3752
16589TIP3    H171182   4.709   5.185   3.282  0.3765  0.0929  0.3244
16589TIP3    H271183   4.731   5.315   3.357  0.9249  0.0435  0.2536
16590TIP3   OH271184   2.872   3.270   2.706 -0.3558 -0.3120 -0.2207
16590TIP3    H171185   2.884   3.298   2.797 -1.2252  1.4474 -0.6110
16590TIP3    H271186   2.926   3.330   2.655 -1.1724 -0.2205 -1.0008
16591TIP3   OH271187   2.465   4.775   5.993 -0.2844 -0.6655 -0.1539
16591TIP3    H171188   2.453   4.831   5.917 -0.9141  0.0366  0.4503
16591TIP3    H271189   2.491   4.834   6.064 -3.5725 -0.6146  1.2076
16592TIP3   OH271190   3.554   6.711   5.801  0.0216 -0.1630  0.4677
16592TIP3    H171191   3.624   6.773   5.784  0.6462 -0.6118  1.3361
16592TIP3    H271192   3.479   6.765   5.827 -0.6317  0.4738 -2.4307
16593TIP3   OH271193   3.506   1.295   2.328 -0.0133 -0.5133 -0.5688
16593TIP3    H171194   3.453   1.326   2.255  0.6493 -0.6852 -1.1243
16593TIP3    H271195   3.521   1.202   2.309  0.7901 -0.3771 -0.5982
16594TIP3   OH271196   6.628   4.177  15.188 -0.4031 -0.3695 -0.1518
16594TIP3    H171197   6.644   4.083  15.199 -3.3007 -0.7978  1.1809
16594TIP3    H271198   6.708   4.218  15.222 -0.0437 -2.3145  1.5878
16595TIP3   OH271199   0.423   6.511  13.380  0.1955 -0.1316 -0.8762
16595TIP3    H171200   0.456   6.553  13.301 -1.9039  1.6317 -0.9078
16595TIP3    H271201   0.492   6.450  13.405  2.9112  2.4644 -1.5121
16596TIP3   OH271202   2.780   6.417  12.786  0.1649 -0.3553 -0.6001
16596TIP3    H171203   2.793   6.444  12.695 -0.1221 -1.3489 -0.9511
16596TIP3    H271204   2.732   6.490  12.826 -0.1901 -0.1495 -1.3858
16597TIP3   OH271205   5.339   0.136   5.857 -0.2763 -0.2739  0.0919
16597TIP3    H171206   5.425   0.115   5.893 -0.5405  0.7136  1.3889
16597TIP3    H271207   5.316   0.220   5.896 -1.2498  0.1462 -1.3026
16598TIP3   OH271208   3.527   1.341  13.139  0.3231  0.5407  0.0426
16598TIP3    H171209   3.615   1.309  13.121  0.1267 -0.7751  1.2853
16598TIP3    H271210   3.538   1.403  13.211  0.5506  2.4929 -1.6011
16599TIP3   OH271211   3.883   4.918  14.657  0.0024 -0.0794  0.0294
16599TIP3    H171212   3.826   4.989  14.686  0.8707  0.2449  0.9999
16599TIP3    H271213   3.921   4.883  14.737  1.0451 -0.3858 -0.5769
16600TIP3   OH271214   4.605   6.137   3.579  0.2212  0.1351 -0.2245
16600TIP3    H171215   4.600   6.043   3.561 -0.5317  0.1100  0.0973
16600TIP3    H271216   4.519   6.171   3.556  0.9323  0.9998 -1.6946
16601TIP3   OH271217   1.362   4.067  17.110  0.0369  0.0747 -0.0605
16601TIP3    H171218   1.434   4.033  17.057  0.2432 -0.4286  0.5283
16601TIP3    H271219   1.387   4.047  17.200 -0.4653  0.6176  0.2069
16602TIP3   OH271220   4.805   3.616  13.484  0.1529 -0.2308 -0.2686
16602TIP3    H171221   4.863   3.570  13.545  1.3348  0.4316 -0.8572
16602TIP3    H271222   4.731   3.556  13.472 -1.7899  0.8104  4.1851
16603TIP3   OH271223   1.141   6.619  17.349 -0.0882  0.0342 -0.1915
16603TIP3    H171224   1.187   6.681  17.292  0.7367 -0.5830 -0.2165
16603TIP3    H271225   1.187   6.536  17.336 -1.8608 -0.8707 -1.0177
16604TIP3   OH271226   2.663   3.934   5.365  0.4772 -0.2503 -0.1337
16604TIP3    H171227   2.621   3.854   5.332 -2.6349  1.2593 -0.1723
16604TIP3    H271228   2.691   3.981   5.287 -0.5666  0.1171 -0.2995
16605TIP3   OH271229   2.229   1.913   6.486  0.5475 -0.3905 -0.2714
16605TIP3    H171230   2.238   1.830   6.440  2.0613 -1.6018  2.0001
16605TIP3    H271231   2.138   1.939   6.471 -0.3362 -3.0753 -0.1445
16606TIP3   OH271232   1.081   4.947  14.542 -0.3669  0.5530 -0.4524
16606TIP3    H171233   1.019   5.003  14.495 -2.6846 -0.2994  1.4151
16606TIP3    H271234   1.088   4.986  14.629 -1.0259 -1.2918  0.4625
16607TIP3   OH271235   5.093   3.919   2.013 -0.2762 -0.3570  0.3500
16607TIP3    H171236   5.119   3.963   1.932  0.0945 -0.1891  0.5571
16607TIP3    H271237   5.176   3.889   2.051 -0.6258 -3.4452 -1.0001
16608TIP3   OH271238   4.843   5.913  16.368  0.2636  0.2585 -0.4134
16608TIP3    H171239   4.914   5.885  16.310 -0.5829 -0.6082 -1.0720
16608TIP3    H271240   4.837   6.008  16.355 -0.1994  0.0296 -2.1108
16609TIP3   OH271241   3.708   3.787   2.695  0.2814  0.4632 -0.6534
16609TIP3    H171242   3.735   3.719   2.634  0.0373  0.8726 -1.2327
16609TIP3    H271243   3.783   3.847   2.699  0.7558 -0.1815  0.3751
16610TIP3   OH271244   3.969   1.744   0.408  0.1201  0.3335 -0.0715
16610TIP3    H171245   4.048   1.691   0.399 -0.7717 -1.3541  1.2769
16610TIP3    H271246   3.998   1.834   0.399  2.4027 -0.1697  1.4966
16611TIP3   OH271247   4.135   5.626  17.066  0.3372  0.0287  0.6131
16611TIP3    H171248   4.213   5.657  17.112  0.9067 -0.8190  0.2510
16611TIP3    H271249   4.162   5.618  16.975  0.5284 -2.3301  0.8076
16612TIP3   OH271250   4.122   3.975   5.806 -0.3439  0.0531  0.5500
16612TIP3    H171251   4.207   4.018   5.796 -0.1167 -0.2614  1.0375
16612TIP3    H271252   4.075   4.029   5.869 -0.0241 -0.4437  1.2320
16613TIP3   OH271253   3.831   0.711   6.165  0.1165  0.0923 -0.0254
16613TIP3    H171254   3.823   0.804   6.188  0.9629  0.5619 -1.4603
16613TIP3    H271255   3.926   0.696   6.159 -0.0138 -0.8675  0.1973
16614TIP3   OH271256   6.618   3.620  12.528  0.4240 -0.4286  0.2894
16614TIP3    H171257   6.697   3.577  12.561  0.1285 -0.0906  1.4696
16614TIP3    H271258   6.622   3.708  12.565 -2.3343 -1.4611  3.5075
16615TIP3   OH271259   4.796   5.095  17.107 -0.3008  0.4085 -0.1806
16615TIP3    H171260   4.706   5.098  17.076 -0.0092 -2.2245 -1.5226
16615TIP3    H271261   4.789   5.069  17.199 -0.9001 -0.6998 -0.5237
16616TIP3   OH271262   3.210   0.612  11.731  0.5833  0.2331  0.3252
16616TIP3    H171263   3.145   0.665  11.685  1.3338  0.8619 -0.0112
16616TIP3    H271264   3.188   0.522  11.707  1.3798  0.5633 -1.8626
16617TIP3   OH271265   1.453   4.051   3.533 -0.1221 -0.4158 -0.4744
16617TIP3    H171266   1.475   3.978   3.475  1.7779 -0.3994  0.1855
16617TIP3    H271267   1.537   4.086   3.562 -1.0106  1.0978  0.4180
16618TIP3   OH271268   3.891   0.289  15.018  0.0911  0.0878 -0.0535
16618TIP3    H171269   3.882   0.208  15.068  1.3330  0.4081  0.7341
16618TIP3    H271270   3.981   0.318  15.035 -0.6793  2.2395  0.6557
16619TIP3   OH271271   5.085   1.437   3.218  0.1277 -0.1019  0.2247
16619TIP3    H171272   5.131   1.353   3.220  0.6693  0.1998  0.4861
16619TIP3    H271273   5.110   1.480   3.299 -0.0656  0.3586  0.0400
16620TIP3   OH271274   5.761   0.769   1.694 -0.1586 -0.0850 -0.0908
16620TIP3    H171275   5.751   0.863   1.680  0.7745 -0.0296 -0.4159
16620TIP3    H271276   5.846   0.759   1.736 -1.1682 -0.5990  2.0460
16621TIP3   OH271277   0.716   1.001  14.114 -0.3373 -0.1904 -0.9071
16621TIP3    H171278   0.698   0.914  14.150 -0.8781 -1.3424 -3.7028
16621TIP3    H271279   0.678   1.062  14.178 -2.1499 -2.0954 -0.0680
16622TIP3   OH271280   4.526   6.074  14.020 -0.2814  0.0130  0.2435
16622TIP3    H171281   4.523   6.077  13.925 -3.8887 -0.6604  0.2078
16622TIP3    H271282   4.539   5.981  14.041  2.9899  0.4095  0.5648
16623TIP3   OH271283   0.614   0.859  16.193 -0.4723  0.0789 -0.4623
16623TIP3    H171284   0.646   0.907  16.269  1.8406 -0.9391 -0.6973
16623TIP3    H271285   0.556   0.920  16.148  1.2041  2.1270  0.0082
16624TIP3   OH271286   0.518   3.810   1.319  1.2708 -0.0045  0.4214
16624TIP3    H171287   0.545   3.857   1.397  2.5695 -0.8757  0.5217
16624TIP3    H271288   0.519   3.717   1.344 -1.1906 -0.1609  0.2268
16625TIP3   OH271289   4.191   6.590  15.643  0.1375 -0.1653  0.2048
16625TIP3    H171290   4.275   6.550  15.621 -0.6456 -1.2707 -0.9504
16625TIP3    H271291   4.144   6.523  15.692 -1.2391 -0.8064 -1.8608
16626TIP3   OH271292   0.021   6.173   3.909 -0.3432  0.5717  0.7444
16626TIP3    H171293   0.023   6.112   3.835  2.3872 -0.1491  1.2891
16626TIP3    H271294   0.041   6.118   3.985 -1.7551  1.5366  1.8725
16627TIP3   OH271295   6.188   0.294  12.574  0.1083  0.4624 -0.9845
16627TIP3    H171296   6.157   0.298  12.484  1.1039  0.2525 -1.3531
16627TIP3    H271297   6.258   0.360  12.578  0.4208  0.1099 -0.5156
16628TIP3   OH271298   6.191   3.586   1.242  0.2835 -0.4770 -0.2301
16628TIP3    H171299   6.285   3.585   1.262 -0.1313 -1.6405  2.0275
16628TIP3    H271300   6.159   3.502   1.275 -1.8031  0.5715  0.5710
16629TIP3   OH271301   3.939   6.717   2.834 -0.4359  0.2508  0.0381
16629TIP3    H171302   3.933   6.787   2.769  0.2558 -0.5417 -0.9174
16629TIP3    H271303   4.004   6.747   2.897  0.3964  0.1646 -0.7680
16630TIP3   OH271304   4.742   6.746  13.109  0.1060  0.4131  0.0522
16630TIP3    H171305   4.710   6.832  13.083 -1.4468 -0.3787 -0.8154
16630TIP3    H271306   4.812   6.727  13.047 -0.6339  0.3936 -0.8035
16631TIP3   OH271307   4.012   1.363   1.855  0.0603 -0.0603 -0.4878
16631TIP3    H171308   3.956   1.351   1.932 -1.0143  1.0810 -1.0455
16631TIP3    H271309   3.984   1.294   1.795  0.9265 -0.9765  0.1317
16632TIP3   OH271310   1.641   1.380  14.622 -0.0336  0.3895 -0.0699
16632TIP3    H171311   1.638   1.292  14.584  1.5419 -0.6585  2.0983
16632TIP3    H271312   1.558   1.388  14.669  0.3900 -0.5310  0.8828
16633TIP3   OH271313   2.493   5.444  13.642  0.2460 -0.0122 -0.1169
16633TIP3    H171314   2.519   5.478  13.728 -2.4194 -0.6114  1.0189
16633TIP3    H271315   2.545   5.496  13.580  0.5913  2.0698  1.7576
16634TIP3   OH271316   1.136   5.209   0.157  0.4615 -0.3180  0.4043
16634TIP3    H171317   1.207   5.164   0.111  1.0083 -0.1271  1.0364
16634TIP3    H271318   1.158   5.302   0.149 -0.3390 -0.1894 -0.3784
16635TIP3   OH271319   3.553   1.475  16.678  0.5072 -0.3365  0.1833
16635TIP3    H171320   3.520   1.386  16.688 -0.3859 -0.0787 -0.2644
16635TIP3    H271321   3.620   1.484  16.745 -0.6786 -0.7507  1.4858
16636TIP3   OH271322   1.391   5.803   2.366 -0.2233  0.4291 -0.1231
16636TIP3    H171323   1.369   5.807   2.459  0.4272 -0.6428  0.0859
16636TIP3    H271324   1.458   5.871   2.355 -0.5958  0.8402  0.0980
16637TIP3   OH271325   3.637   5.854   5.123  0.5263 -0.3428 -0.1399
16637TIP3    H171326   3.701   5.881   5.189 -0.5506 -0.9043  1.1783
16637TIP3    H271327   3.600   5.935   5.090  1.6523 -0.0253 -0.6613
16638TIP3   OH271328   4.071   1.611  12.633 -0.5316  0.3572 -0.0208
16638TIP3    H171329   4.150   1.566  12.605  0.1794  0.3638  1.8196
16638TIP3    H271330   4.096   1.702  12.641 -0.3459  0.1899  1.7062
16639TIP3   OH271331   4.273   2.387   5.208  0.5393  0.0816 -0.4106
16639TIP3    H171332   4.319   2.350   5.132 -0.2659  0.7200 -1.2358
16639TIP3    H271333   4.216   2.316   5.238  2.0502 -0.7377  0.6614
16640TIP3   OH271334   4.579   6.311   0.371  0.2059 -0.7419  0.2210
16640TIP3    H171335   4.600   6.390   0.321 -0.0935 -1.2111 -0.6702
16640TIP3    H271336   4.485   6.319   0.390  0.0481 -1.1359 -0.3569
16641TIP3   OH271337   4.590   2.195  13.736  0.0517  0.4379 -0.0238
16641TIP3    H171338   4.652   2.182  13.808 -0.1802  1.2230  0.3403
16641TIP3    H271339   4.565   2.288  13.743 -2.1314 -0.1383  0.6427
16642TIP3   OH271340   6.177   5.486  14.915 -0.0728 -0.4691 -0.6081
16642TIP3    H171341   6.157   5.406  14.866  1.7258 -0.2341 -1.8172
16642TIP3    H271342   6.272   5.496  14.906 -0.3276  2.1275 -1.0243
16643TIP3   OH271343   5.946   2.056   5.817  0.2512  0.8939 -0.1103
16643TIP3    H171344   5.865   2.011   5.841  0.6863 -0.5096 -1.1775
16643TIP3    H271345   5.978   2.093   5.899 -1.2633  1.1549  0.3967
16644TIP3   OH271346   0.484   5.494   3.337  0.4422  0.5404  0.5927
16644TIP3    H171347   0.485   5.538   3.252  0.7318  1.1309  0.8939
16644TIP3    H271348   0.486   5.565   3.401  0.9525  0.0867  1.0925
16645TIP3   OH271349   3.710   1.504  12.985  0.3000 -0.6710  0.1001
16645TIP3    H171350   3.670   1.570  13.042 -0.6378 -1.3370  0.2230
16645TIP3    H271351   3.662   1.511  12.903 -0.1519 -1.5628  0.2881
16646TIP3   OH271352   0.730   4.298   4.496  0.2934 -0.1318  0.1125
16646TIP3    H171353   0.771   4.213   4.479  1.1130  0.1455  0.6386
16646TIP3    H271354   0.804   4.359   4.504 -0.2132  0.3550  1.2483
16647TIP3   OH271355   5.193   1.120  15.631 -0.5343  0.1574 -0.0832
16647TIP3    H171356   5.269   1.081  15.586 -0.3925  0.1446  0.1660
16647TIP3    H271357   5.199   1.086  15.720 -1.2788 -0.4662 -0.2642
16648TIP3   OH271358   2.702   1.398   3.475 -0.1393 -0.1635 -0.1804
16648TIP3    H171359   2.668   1.443   3.553 -0.8144 -1.9502  0.5975
16648TIP3    H271360   2.636   1.332   3.454  1.6993 -2.1649 -0.0424
16649TIP3   OH271361   4.976   2.631   2.179  0.6828  0.1853 -0.2217
16649TIP3    H171362   4.955   2.708   2.232  1.1911 -0.2507  0.6360
16649TIP3    H271363   5.023   2.666   2.104 -0.6169  0.8863 -0.7381
16650TIP3   OH271364   6.608   0.030  12.192 -0.2478  0.1698 -0.4699
16650TIP3    H171365   6.555  -0.045  12.164 -0.2148  0.1347 -0.4362
16650TIP3    H271366   6.549   0.105  12.182 -0.5675  0.0342  0.3450
16651TIP3   OH271367   2.465   5.611  15.311 -0.7495 -0.7230  0.2592
16651TIP3    H171368   2.531   5.544  15.326 -1.4053 -1.4141  0.0822
16651TIP3    H271369   2.409   5.607  15.389 -0.2828  0.2399  0.6733
16652TIP3   OH271370   2.004   1.786  11.276 -0.3812  0.0240 -0.3132
16652TIP3    H171371   2.080   1.813  11.225  1.1713  0.2438  1.9983
16652TIP3    H271372   1.939   1.761  11.210  1.0043  1.5797 -2.3935
16653TIP3   OH271373   2.891   1.223   2.047  0.1163 -0.3892 -0.7244
16653TIP3    H171374   2.800   1.224   2.017 -0.6507 -0.2159  1.3972
16653TIP3    H271375   2.903   1.136   2.084 -0.0591  0.3719  1.2736
16654TIP3   OH271376   5.098   0.431  13.087  0.6567 -0.0195 -0.5508
16654TIP3    H171377   5.079   0.341  13.062 -1.5311 -0.0657  0.9660
16654TIP3    H271378   5.040   0.484  13.032 -0.0675  0.2375  0.4273
16655TIP3   OH271379   1.809   2.537   1.122  0.1811 -0.5770 -0.1805
16655TIP3    H171380   1.775   2.550   1.034 -0.0845  0.9203  0.1036
16655TIP3    H271381   1.864   2.614   1.138 -2.0365  0.7497  1.9599
16656TIP3   OH271382   1.734   2.721  12.336 -0.1416 -0.1200 -0.3015
16656TIP3    H171383   1.787   2.778  12.280  0.9264  0.2624  1.0424
16656TIP3    H271384   1.661   2.694  12.280  1.2730 -0.4067 -2.1588
16657TIP3   OH271385   0.330   1.650  14.847 -0.2325  0.4212 -0.5751
16657TIP3    H171386   0.419   1.637  14.879 -0.0982  0.3428 -0.9779
16657TIP3    H271387   0.291   1.563  14.846 -0.8010  0.6339  1.0015
16658TIP3   OH271388   0.284   6.552   3.024 -0.0625 -0.7435 -0.1385
16658TIP3    H171389   0.317   6.606   2.952  0.2865 -0.2056  0.4116
16658TIP3    H271390   0.196   6.586   3.041 -0.9278 -2.1771 -1.6037
16659TIP3   OH271391   4.114   0.641  17.200  0.5189  0.1561  0.5251
16659TIP3    H171392   4.165   0.674  17.274  1.3926  0.7985 -0.3336
16659TIP3    H271393   4.172   0.578  17.158  0.4024  0.4988 -0.1547
16660TIP3   OH271394   2.168   2.235   2.570  0.0512 -1.0269  0.2098
16660TIP3    H171395   2.258   2.205   2.583  1.2940  1.6733 -1.1732
16660TIP3    H271396   2.168   2.325   2.601 -0.9670  0.4153 -3.4178
16661TIP3   OH271397   4.106   0.981   5.283  0.1091  0.1138  0.0224
16661TIP3    H171398   4.201   0.989   5.284  0.1126  0.1168  1.1509
16661TIP3    H271399   4.085   0.928   5.359 -0.7593 -0.4462 -0.5884
16662TIP3   OH271400   6.255   1.932  13.346  0.5808 -0.0320  0.4660
16662TIP3    H171401   6.229   2.011  13.393  0.8149 -0.6936  1.7582
16662TIP3    H271402   6.245   1.862  13.411  2.4670 -0.7581  0.0200
16663TIP3   OH271403   5.828   3.235  15.487  0.3679  0.2018  0.0634
16663TIP3    H171404   5.756   3.249  15.426 -2.3100  0.4455  3.0654
16663TIP3    H271405   5.823   3.308  15.548  0.9378 -1.5761  2.3793
16664TIP3   OH271406   5.413   4.231   2.668  0.0296 -0.2419  0.3073
16664TIP3    H171407   5.359   4.170   2.618  1.0911 -0.2144 -0.9404
16664TIP3    H271408   5.368   4.315   2.662 -1.6197 -0.9151  2.3219
16665TIP3   OH271409   1.119   1.881   2.960  0.2879 -0.2674  0.2311
16665TIP3    H171410   1.144   1.791   2.940 -1.6095 -0.7358 -0.2492
16665TIP3    H271411   1.034   1.873   3.002 -0.0521  1.3191 -0.1055
16666TIP3   OH271412   0.332   1.192   5.012 -0.1962  0.0075 -0.1038
16666TIP3    H171413   0.396   1.126   5.039  0.1800  1.4039  2.9153
16666TIP3    H271414   0.368   1.275   5.044 -1.2954  1.5310 -2.5592
16667TIP3   OH271415   2.748   4.316   0.848  0.2487 -0.5399  0.2105
16667TIP3    H171416   2.691   4.243   0.822 -0.6016  0.6822 -1.5138
16667TIP3    H271417   2.824   4.273   0.888 -0.1313 -2.4021 -0.9253
16668TIP3   OH271418   5.275   2.022  15.883 -0.1469 -0.4089  0.1844
16668TIP3    H171419   5.319   1.963  15.944  2.4392 -0.1347 -1.2413
16668TIP3    H271420   5.184   1.992  15.882  0.1128 -1.5794  2.7085
16669TIP3   OH271421   1.812   1.298   3.395  0.6651  0.1443  0.0278
16669TIP3    H171422   1.741   1.242   3.427  1.2210  1.3427  3.9394
16669TIP3    H271423   1.883   1.237   3.373 -0.7340 -0.9270 -1.7031
16670TIP3   OH271424   5.679   6.272   4.659 -0.4090 -0.3299  0.0464
16670TIP3    H171425   5.604   6.217   4.638 -0.4154 -0.4324  0.3307
16670TIP3    H271426   5.750   6.211   4.676  0.5992 -0.2253 -3.1713
16671TIP3   OH271427   2.535   6.668   3.345 -0.3668  0.0374  0.3123
16671TIP3    H171428   2.517   6.597   3.283  0.5844  1.0016 -1.1579
16671TIP3    H271429   2.569   6.624   3.423 -0.6243 -1.1683 -0.2272
16672TIP3   OH271430   4.690   4.674  12.777 -0.6530 -0.4040  0.3185
16672TIP3    H171431   4.764   4.725  12.811  0.5373 -1.9624  0.1865
16672TIP3    H271432   4.703   4.586  12.812 -1.4583 -1.1465 -1.1454
16673TIP3   OH271433   2.291   2.935  11.272 -0.4154 -0.1740  0.5372
16673TIP3    H171434   2.323   3.006  11.327 -1.2260  0.6972 -0.0884
16673TIP3    H271435   2.199   2.925  11.297 -0.9990  0.7203 -1.1351
16674TIP3   OH271436   2.331   3.119  11.513 -0.8167 -0.3106  0.3957
16674TIP3    H171437   2.261   3.129  11.578 -0.5564 -0.7595  0.7452
16674TIP3    H271438   2.394   3.060  11.553 -0.5514 -0.4366 -0.1856
16675TIP3   OH271439   3.606   5.237   4.055  0.0724 -0.3311  0.7410
16675TIP3    H171440   3.679   5.214   4.113  1.1626  2.0281  0.4220
16675TIP3    H271441   3.562   5.309   4.100  0.6864  1.2656 -1.1116
16676TIP3   OH271442   4.000   0.489   2.753  0.2064  0.4312 -0.3081
16676TIP3    H171443   4.084   0.533   2.766 -1.0977  2.6764  1.1850
16676TIP3    H271444   3.992   0.429   2.828 -0.0907  1.2077  0.2899
16677TIP3   OH271445   4.982   3.229  12.743 -0.0638 -0.0780 -0.5528
16677TIP3    H171446   5.016   3.274  12.820 -0.5178 -0.9037  0.1549
16677TIP3    H271447   5.060   3.205  12.693  0.5407 -2.3104  1.2466
16678TIP3   OH271448   4.568   5.718   1.478  0.0121  0.0488  0.0708
16678TIP3    H171449   4.638   5.783   1.480  0.9978 -1.0089  0.6674
16678TIP3    H271450   4.541   5.710   1.570 -1.0298  0.5728 -0.1723
16679TIP3   OH271451   4.672   3.585   0.139  0.1101  0.0224  0.2942
16679TIP3    H171452   4.710   3.652   0.082  1.6153 -1.2378 -0.2672
16679TIP3    H271453   4.593   3.625   0.174  0.8435  1.9943 -0.1852
16680TIP3   OH271454   1.890   3.069   3.385 -0.4494  0.1675  0.1894
16680TIP3    H171455   1.890   3.163   3.405  0.3241  0.7246 -2.1247
16680TIP3    H271456   1.825   3.060   3.315  1.1057 -0.5742 -1.2301
16681TIP3   OH271457   1.292   1.335  13.000  0.1525 -0.3426  0.0503
16681TIP3    H171458   1.380   1.364  12.977 -0.4731  1.2833 -0.4897
16681TIP3    H271459   1.243   1.417  13.014 -1.6340 -1.1650 -1.0567
16682TIP3   OH271460   2.102   4.936  10.619 -0.0765 -0.9975 -0.9750
16682TIP3    H171461   2.089   4.981  10.535 -0.2414 -0.3669 -0.6177
16682TIP3    H271462   2.197   4.932  10.629 -0.0537  0.3460 -0.4606
16683TIP3   OH271463   2.961   4.335   1.758 -0.0190  0.3776  0.1194
16683TIP3    H171464   2.941   4.292   1.675 -0.0706  0.4937  0.0701
16683TIP3    H271465   2.922   4.279   1.825  0.2930  0.1194  0.0874
16684TIP3   OH271466   4.948   5.595  13.055 -0.2649 -0.0592 -0.4391
16684TIP3    H171467   5.000   5.532  13.104 -1.5049 -0.3096  0.6123
16684TIP3    H271468   4.864   5.598  13.101 -0.8733  0.9915 -1.5518
16685TIP3   OH271469   5.232   0.965  17.299 -0.0693  0.2247 -0.2819
16685TIP3    H171470   5.156   0.915  17.330  0.3154  1.4898  3.1908
16685TIP3    H271471   5.307   0.918  17.335  0.4375  1.6224  0.5628
16686TIP3   OH271472   1.025   2.089  17.209 -0.2313 -0.0241  0.1162
16686TIP3    H171473   0.997   2.155  17.273 -1.5399  1.5436 -1.9593
16686TIP3    H271474   0.944   2.048  17.180  0.0875  0.6764 -1.9164
16687TIP3   OH271475   1.481   4.201   5.483 -0.1589  0.1023 -0.3702
16687TIP3    H171476   1.441   4.216   5.398 -1.0393 -0.9051 -0.1524
16687TIP3    H271477   1.538   4.125   5.469 -1.2392 -0.8377  0.2076
16688TIP3   OH271478   2.392   1.283   3.847  0.7791 -0.5623 -0.8098
16688TIP3    H171479   2.335   1.354   3.819 -0.2988 -0.6245  1.0627
16688TIP3    H271480   2.473   1.326   3.874  0.1625 -0.0145  0.2375
16689TIP3   OH271481   5.168   3.012  10.948  0.0325 -0.2251  0.4610
16689TIP3    H171482   5.119   2.932  10.930 -0.7341  0.4593 -0.6054
16689TIP3    H271483   5.214   2.994  11.030 -1.6810 -1.0469  1.3001
16690TIP3   OH271484   0.236   6.580   0.026  0.8329  0.0830  0.0847
16690TIP3    H171485   0.162   6.621   0.070 -0.4072 -0.3369 -1.5046
16690TIP3    H271486   0.196   6.512  -0.029  2.3737  0.0221 -1.0109
16691TIP3   OH271487   6.734   1.857  11.079 -0.8127 -0.3707  0.6234
16691TIP3    H171488   6.750   1.796  11.007 -1.1961  2.2430 -1.8658
16691TIP3    H271489   6.673   1.922  11.043 -0.1159  1.7268  2.9132
16692TIP3   OH271490   0.599   5.270  16.844 -0.1801  0.1532  0.1836
16692TIP3    H171491   0.530   5.213  16.877  0.0211 -0.6611 -0.7708
16692TIP3    H271492   0.656   5.286  16.920 -0.0296 -1.2270  0.3721
16693TIP3   OH271493   4.760   5.672  16.074 -0.2183  0.4634 -0.0377
16693TIP3    H171494   4.711   5.749  16.043 -1.1796  0.1821  0.7560
16693TIP3    H271495   4.827   5.659  16.007 -0.4533  1.5959 -0.5256
16694TIP3   OH271496   2.868   1.374   1.372  0.5169  0.2215 -0.1797
16694TIP3    H171497   2.954   1.365   1.413  0.5505 -0.7809 -0.4436
16694TIP3    H271498   2.809   1.395   1.444  0.7330 -0.6084  0.2596
16695TIP3   OH271499   0.319   2.753  12.718 -0.6235 -0.0326  0.2630
16695TIP3    H171500   0.314   2.692  12.645 -2.9493  2.1758 -1.5765
16695TIP3    H271501   0.398   2.805  12.701 -0.3356 -0.4997  0.1594
16696TIP3   OH271502   4.526   2.595   3.448  0.0100  0.3947 -0.0545
16696TIP3    H171503   4.589   2.589   3.377 -0.6892  0.3821 -0.6899
16696TIP3    H271504   4.446   2.627   3.406 -0.2203  1.0505  0.8493
16697TIP3   OH271505   2.575   5.347   3.407 -0.5538 -0.2159  0.0403
16697TIP3    H171506   2.536   5.327   3.492  0.5764  2.6392  1.3528
16697TIP3    H271507   2.506   5.395   3.360 -0.2391  0.7499  0.5337
16698TIP3   OH271508   1.008   3.799  17.060  0.6666  0.4143 -0.1423
16698TIP3    H171509   1.016   3.894  17.062  0.2766  0.4443  1.1326
16698TIP3    H271510   1.020   3.772  17.151 -2.1421 -0.4714  0.0787
16699TIP3   OH271511   2.578   0.881   4.993 -0.2235 -0.2994 -0.0497
16699TIP3    H171512   2.490   0.874   4.956  0.5823 -2.0812 -1.8161
16699TIP3    H271513   2.571   0.842   5.080 -1.1529 -0.5445 -0.2295
16700TIP3   OH271514   3.011   4.883   1.802 -0.5231 -0.7830 -0.0278
16700TIP3    H171515   2.992   4.794   1.831  0.2152 -0.8265  0.3283
16700TIP3    H271516   3.070   4.919   1.869  1.4748 -0.9909 -1.5895
16701TIP3   OH271517   3.729   0.945   5.867 -0.4681  0.4602  0.0600
16701TIP3    H171518   3.799   0.891   5.831 -0.9172  1.1777 -1.9992
16701TIP3    H271519   3.767   1.032   5.874 -0.9413  0.7091 -0.4302
16702TIP3   OH271520   3.979   6.164  12.482  0.1534 -0.5623 -0.1268
16702TIP3    H171521   3.921   6.146  12.556 -1.4622  0.5453 -1.0813
16702TIP3    H271522   4.028   6.082  12.470 -1.6163 -1.7461  0.3466
16703TIP3   OH271523   1.098   0.771  16.955  0.0323  0.1142 -0.3667
16703TIP3    H171524   1.009   0.803  16.942 -0.0568 -0.0648 -0.1963
16703TIP3    H271525   1.101   0.687  16.908  0.2671  0.3731 -0.8191
16704TIP3   OH271526   2.839   3.616   4.379  0.6090 -0.2357 -0.7084
16704TIP3    H171527   2.746   3.640   4.391  0.0758 -2.4005 -0.1283
16704TIP3    H271528   2.836   3.534   4.329  2.0496 -1.7310  1.5118
16705TIP3   OH271529   1.572   2.252  15.300 -0.4767  0.0422 -0.2275
16705TIP3    H171530   1.481   2.265  15.273 -0.9387 -1.0325  0.7268
16705TIP3    H271531   1.580   2.158  15.314  1.4955 -0.2652 -2.6718
16706TIP3   OH271532   1.057   0.727   4.931  0.3889  0.1153  0.3099
16706TIP3    H171533   1.077   0.820   4.925  2.0716 -0.2960 -1.2271
16706TIP3    H271534   1.142   0.685   4.945 -0.0262 -1.3557 -1.3218
16707TIP3   OH271535   1.596   1.117   0.653 -0.4826 -0.0093  0.4363
16707TIP3    H171536   1.615   1.024   0.666 -0.5310  0.0561  1.0026
16707TIP3    H271537   1.678   1.162   0.676 -0.3744  0.0708 -0.0977
16708TIP3   OH271538   3.375   6.165  11.657  0.1855 -0.6632  0.0962
16708TIP3    H171539   3.280   6.172  11.645 -0.0410 -0.4151  1.7875
16708TIP3    H271540   3.401   6.252  11.689  0.7817 -1.1066  0.8380
16709TIP3   OH271541   4.987   2.801  11.908  0.1559 -0.2350  0.0749
16709TIP3    H171542   4.999   2.845  11.824 -0.7317 -1.0956 -0.5209
16709TIP3    H271543   5.033   2.717  11.898  0.2528 -0.2417  0.5414
16710TIP3   OH271544   1.243   2.296  13.734 -0.0941 -0.0035 -0.3798
16710TIP3    H171545   1.337   2.316  13.737  0.2507 -1.1042 -2.0487
16710TIP3    H271546   1.226   2.247  13.814  1.2471 -1.4902 -0.9360
16711TIP3   OH271547   1.829   4.957   5.614 -0.7209 -0.6552  0.6847
16711TIP3    H171548   1.839   4.882   5.554 -3.8143  0.3125 -1.2823
16711TIP3    H271549   1.880   5.026   5.573 -0.7330 -0.7135  0.5695
16712TIP3   OH271550   0.427   2.885  15.370 -0.2115 -0.9386  0.5819
16712TIP3    H171551   0.382   2.846  15.295  1.2847 -2.6871  0.5159
16712TIP3    H271552   0.489   2.946  15.331  0.4195 -1.6919  0.3757
16713TIP3   OH271553   2.491   1.895   1.619  0.1573 -0.2692  0.2078
16713TIP3    H171554   2.497   1.965   1.684 -1.7819 -0.2179  0.3954
16713TIP3    H271555   2.564   1.836   1.639  0.1338  0.2207  1.8498
16714TIP3   OH271556   5.932   5.087  15.628  0.0001  0.1483  0.1033
16714TIP3    H171557   5.930   5.012  15.569 -0.6353  0.0560  0.2329
16714TIP3    H271558   6.023   5.117  15.626  0.3182 -0.7697  0.2345
16715TIP3   OH271559   4.750   1.907   1.777 -0.4102  0.0146 -0.1737
16715TIP3    H171560   4.828   1.898   1.832 -0.4654  1.3752  0.1715
16715TIP3    H271561   4.743   2.002   1.761  0.3903 -0.3811 -3.6638
16716TIP3   OH271562   2.679   2.162  15.296  0.1619 -0.3384 -0.3291
16716TIP3    H171563   2.705   2.126  15.211  0.6218  2.4555 -1.4907
16716TIP3    H271564   2.585   2.148  15.300 -0.1424  0.7689 -2.0726
16717TIP3   OH271565   6.741   6.235  15.354  0.2963 -0.0714  0.6836
16717TIP3    H171566   6.788   6.308  15.315  0.1348 -0.2341  0.1834
16717TIP3    H271567   6.655   6.270  15.376  0.0902 -0.2027  0.1069
16718TIP3   OH271568   2.663   2.919  14.809 -0.0593  0.0546 -0.1947
16718TIP3    H171569   2.710   2.995  14.774 -0.9175  0.7969  0.2229
16718TIP3    H271570   2.690   2.846  14.753  0.6544  0.6932 -0.7093
16719TIP3   OH271571   0.452   1.249  11.534  0.2055  0.3597  0.0788
16719TIP3    H171572   0.514   1.321  11.523  1.6308 -1.0025 -1.3160
16719TIP3    H271573   0.497   1.173  11.498 -2.2026 -0.7565 -0.7835
16720TIP3   OH271574   1.281   4.757   1.393 -0.1839  0.9272  0.2521
16720TIP3    H171575   1.318   4.764   1.481 -0.3235  0.7868  0.3225
16720TIP3    H271576   1.199   4.807   1.397 -0.6029  0.2291  0.4327
16721TIP3   OH271577   0.906   6.455  12.919 -0.4900 -0.0458  0.6349
16721TIP3    H171578   0.928   6.482  13.009 -2.1556 -1.4221  1.5246
16721TIP3    H271579   0.849   6.524  12.887 -0.3269  0.1884  0.8422
16722TIP3   OH271580   4.418   2.271   2.212 -0.2193 -0.1284  0.4222
16722TIP3    H171581   4.469   2.350   2.230  0.7991 -0.4813 -0.7030
16722TIP3    H271582   4.346   2.301   2.156  1.0953 -0.1719 -1.4119
16723TIP3   OH271583   2.746   1.237  14.128 -0.8248  0.8003 -0.4562
16723TIP3    H171584   2.838   1.234  14.101 -0.9082  0.2068 -0.7009
16723TIP3    H271585   2.709   1.312  14.082 -0.2037  1.6974  0.4884
16724TIP3   OH271586   5.250   3.169  12.223 -0.4288 -0.7130 -0.4142
16724TIP3    H171587   5.319   3.160  12.158  0.7043  2.4398  0.1614
16724TIP3    H271588   5.213   3.081  12.232  3.1871 -2.4661 -1.0914
16725TIP3   OH271589   4.900   2.697   0.743  0.2904  0.2355 -0.2681
16725TIP3    H171590   4.960   2.637   0.787  0.0784 -0.2104 -0.5891
16725TIP3    H271591   4.888   2.768   0.807  0.8467  0.1411 -0.0439
16726TIP3   OH271592   5.434   5.223  16.309  0.6602 -0.7201  0.4824
16726TIP3    H171593   5.461   5.133  16.291  2.3316 -0.3677  1.0586
16726TIP3    H271594   5.432   5.264  16.222 -1.0202 -1.5005  0.1043
16727TIP3   OH271595   0.434   1.352  16.417  0.3228  0.1656 -0.0095
16727TIP3    H171596   0.400   1.264  16.434 -3.7307  1.7504  1.2760
16727TIP3    H271597   0.475   1.378  16.500  0.4195 -0.0627  0.0147
16728TIP3   OH271598   6.211   0.167   3.094 -0.6013 -0.2121 -0.1143
16728TIP3    H171599   6.290   0.138   3.140 -1.0982 -0.6651  0.4854
16728TIP3    H271600   6.217   0.127   3.008 -0.2493 -0.3766 -0.0154
16729TIP3   OH271601   4.226   2.663  13.140  0.1127  0.1980  0.4434
16729TIP3    H171602   4.234   2.739  13.198 -1.1484  1.0221 -0.3948
16729TIP3    H271603   4.198   2.592  13.197 -2.5993  1.3467  0.6999
16730TIP3   OH271604   3.491   0.576   1.157 -0.0681  0.2971  0.3328
16730TIP3    H171605   3.552   0.504   1.176 -0.4687  0.2332  1.4671
16730TIP3    H271606   3.479   0.572   1.062  0.3605 -0.7795  0.2996
16731TIP3   OH271607   4.723   5.240   2.309 -0.4651 -0.4960 -0.2932
16731TIP3    H171608   4.749   5.199   2.226  0.5124  1.8394 -1.2361
16731TIP3    H271609   4.628   5.231   2.313 -0.3486 -2.1238 -0.8167
16732TIP3   OH271610   1.467   6.559  14.072  0.2036  0.5435 -0.2477
16732TIP3    H171611   1.517   6.494  14.123  1.8765  2.2625  0.4526
16732TIP3    H271612   1.397   6.586  14.131  1.8666  2.1952  1.1080
16733TIP3   OH271613   5.589   0.393  10.938  0.2382  0.3326 -0.0441
16733TIP3    H171614   5.643   0.383  10.860 -1.1076 -1.2139 -0.8473
16733TIP3    H271615   5.598   0.309  10.984  0.9005  1.1655  1.4327
16734TIP3   OH271616   5.435   0.962  12.044 -0.0561  0.0367  0.3920
16734TIP3    H171617   5.458   0.871  12.023 -0.9389 -0.2319  0.5393
16734TIP3    H271618   5.440   1.008  11.960  0.4756 -0.1323  0.3317
16735TIP3   OH271619   0.011   2.017   3.141  0.0193 -0.1696 -0.0419
16735TIP3    H171620   0.016   2.097   3.194  1.1277  1.0272 -1.8566
16735TIP3    H271621  -0.073   2.025   3.095 -0.5466 -0.7912  0.8593
16736TIP3   OH271622   2.671   1.640  12.387 -0.0662  0.1469 -0.5545
16736TIP3    H171623   2.739   1.631  12.320  1.2309 -0.6982  0.8282
16736TIP3    H271624   2.641   1.550  12.402 -0.8905  0.4192 -0.5188
16737TIP3   OH271625   5.251   4.503   6.245 -1.1209 -0.1913  0.1856
16737TIP3    H171626   5.263   4.461   6.160  0.2562  1.7063 -0.6292
16737TIP3    H271627   5.184   4.569   6.229  0.2060  1.1903  0.1305
16738TIP3   OH271628   3.523   3.777   0.283 -0.2477  0.2007  0.1190
16738TIP3    H171629   3.543   3.772   0.190  1.8386  0.9474  0.4950
16738TIP3    H271630   3.529   3.686   0.313  0.4518  0.1274 -0.2195
16739TIP3   OH271631   6.060   3.323   4.722 -0.9637  0.4998  0.4509
16739TIP3    H171632   6.116   3.287   4.791 -0.3112  0.6266 -0.0054
16739TIP3    H271633   6.117   3.384   4.675 -1.3652  0.3089 -0.2860
16740TIP3   OH271634   0.030   4.573  12.591  0.0986 -0.3410 -0.1767
16740TIP3    H171635   0.037   4.534  12.505  0.6206 -1.0070  0.1592
16740TIP3    H271636   0.051   4.502  12.652  0.5650  0.3291  0.4629
16741TIP3   OH271637   4.338   5.913  12.912  0.1191 -0.6150  0.0378
16741TIP3    H171638   4.412   5.875  12.960 -1.3979 -1.4870  1.8848
16741TIP3    H271639   4.369   5.921  12.822  2.4728 -0.8170  0.7500
16742TIP3   OH271640   0.237   3.321  12.091  0.4147 -0.1835  0.5294
16742TIP3    H171641   0.205   3.339  12.180  0.0622 -0.1768  0.4023
16742TIP3    H271642   0.332   3.330  12.098  0.6107 -2.1897  1.3992
16743TIP3   OH271643   3.609   4.832   2.083  0.1088 -0.1927 -0.0972
16743TIP3    H171644   3.577   4.922   2.073  0.9383  0.0970 -0.2455
16743TIP3    H271645   3.550   4.779   2.031 -0.0890  0.3377 -0.4206
16744TIP3   OH271646   0.287   4.380  14.456  0.1582  0.2508 -0.1714
16744TIP3    H171647   0.321   4.469  14.462 -0.2359  0.4335 -0.6152
16744TIP3    H271648   0.271   4.366  14.363 -2.9538  0.9319  0.1447
16745TIP3   OH271649   5.532   0.541  15.368 -0.5012 -0.5481  0.4933
16745TIP3    H171650   5.571   0.512  15.286  0.9241 -0.4122  1.0893
16745TIP3    H271651   5.530   0.636  15.362 -0.7296 -0.5526  0.4777
16746TIP3   OH271652   5.521   2.452   1.074  0.1953 -0.1181 -0.2838
16746TIP3    H171653   5.452   2.452   1.007  0.8565 -0.9798 -0.9926
16746TIP3    H271654   5.566   2.368   1.061  1.8129  0.7123 -0.3011
16747TIP3   OH271655   2.814   1.026  15.945 -0.1655  0.1788 -0.0174
16747TIP3    H171656   2.826   1.114  15.909  0.7985  0.4855  0.9808
16747TIP3    H271657   2.737   1.033  16.002 -0.2709  0.3032 -0.1749
16748TIP3   OH271658   4.352   1.706  14.104  0.4518 -0.2375 -0.6419
16748TIP3    H171659   4.266   1.743  14.119  0.6830  0.0671 -0.0356
16748TIP3    H271660   4.358   1.632  14.165  1.5549  1.2581  1.1794
16749TIP3   OH271661   3.818   0.750  16.243 -0.6861  0.3664  0.4273
16749TIP3    H171662   3.784   0.736  16.331 -1.4755 -1.2314 -0.0890
16749TIP3    H271663   3.913   0.761  16.255 -0.6896 -0.5686  1.4148
16750TIP3   OH271664   0.722   5.489   4.511  0.0640  0.1909  0.3472
16750TIP3    H171665   0.684   5.574   4.532 -0.4112 -0.0164  0.3576
16750TIP3    H271666   0.740   5.493   4.417 -3.0469 -0.8179 -0.4196
16751TIP3   OH271667   1.531   2.375  13.430  0.1049 -0.1157 -0.3660
16751TIP3    H171668   1.608   2.324  13.455 -0.3848 -1.5382 -1.6066
16751TIP3    H271669   1.521   2.359  13.336 -1.4846  0.3310 -0.3038
16752TIP3   OH271670   3.973   6.193   5.731 -0.6128  0.4632 -0.0829
16752TIP3    H171671   3.890   6.181   5.777  0.3597 -1.8210  1.2657
16752TIP3    H271672   4.040   6.179   5.798  0.8571 -0.5344 -1.6575
16753TIP3   OH271673   3.118   5.818  16.953  0.3180 -0.2759  0.2397
16753TIP3    H171674   3.053   5.824  17.023 -1.0000  2.0793 -1.0575
16753TIP3    H271675   3.200   5.845  16.994 -0.0198 -0.8061  1.3090
16754TIP3   OH271676   1.280   1.657   5.514 -0.0871  0.2926 -0.7957
16754TIP3    H171677   1.313   1.671   5.425 -0.3246  0.6970 -0.8262
16754TIP3    H271678   1.241   1.741   5.538 -2.6113 -0.6196 -1.4059
16755TIP3   OH271679   1.917   3.041  13.099  0.0817 -0.6999 -0.1321
16755TIP3    H171680   1.841   3.083  13.059  0.3824 -0.6612 -0.6776
16755TIP3    H271681   1.980   3.112  13.111  0.0176 -0.7235  0.3623
16756TIP3   OH271682   1.578   2.310  14.859  0.2804 -0.2868 -0.1186
16756TIP3    H171683   1.559   2.371  14.930 -2.8042  1.7128 -2.4098
16756TIP3    H271684   1.504   2.249  14.858 -0.1279  0.1655 -1.9658
16757TIP3   OH271685   6.055   4.523  16.173 -0.4608  0.4328 -0.5032
16757TIP3    H171686   6.033   4.604  16.220 -1.2994 -0.0396 -0.0648
16757TIP3    H271687   6.063   4.550  16.082 -0.8560  0.9933 -0.3796
16758TIP3   OH271688   4.280   1.348   0.585  0.2334  0.3570  0.4296
16758TIP3    H171689   4.203   1.399   0.558 -0.7358 -0.7673  0.9863
16758TIP3    H271690   4.338   1.350   0.508 -1.5149 -0.9467 -1.0256
16759TIP3   OH271691   3.345   3.467   2.807  0.3115  0.0898 -0.2821
16759TIP3    H171692   3.281   3.460   2.878 -1.5897 -0.9708 -1.9931
16759TIP3    H271693   3.363   3.561   2.801 -0.8335  0.3850  0.4656
16760TIP3   OH271694   6.172   4.710   3.459 -0.1269  0.8309  0.2278
16760TIP3    H171695   6.096   4.723   3.516  0.0951  1.3645  0.4175
16760TIP3    H271696   6.151   4.632   3.408  1.1481 -1.8541  3.4628
16761TIP3   OH271697   2.956   4.345   2.067 -0.1802  0.0952  0.3741
16761TIP3    H171698   3.039   4.311   2.034 -1.1138 -0.0321 -2.0882
16761TIP3    H271699   2.901   4.268   2.078 -0.9718  0.3865 -1.2087
16762TIP3   OH271700   4.790   2.619  16.180  0.0853  0.0926  0.6703
16762TIP3    H171701   4.700   2.621  16.214  0.5329  1.0565  1.8478
16762TIP3    H271702   4.811   2.526  16.175 -0.0319 -0.1107  3.0510
16763TIP3   OH271703   5.086   1.911  14.240 -0.3080 -0.2678 -0.2105
16763TIP3    H171704   5.041   1.866  14.169 -2.3812  2.5457 -0.8669
16763TIP3    H271705   5.129   1.985  14.197  0.0394  0.3771  1.2110
16764TIP3   OH271706   3.652   2.999   2.888 -0.1623 -0.1633 -0.3720
16764TIP3    H171707   3.686   2.920   2.846 -3.3451 -0.7320 -2.2011
16764TIP3    H271708   3.668   3.069   2.825  1.0140  0.3712  0.4686
16765TIP3   OH271709   5.512   5.647   1.870 -0.5931  0.1480 -0.1283
16765TIP3    H171710   5.552   5.581   1.926 -0.6734  1.0611  1.0396
16765TIP3    H271711   5.525   5.614   1.781 -1.6402 -1.9880  0.4508
16766TIP3   OH271712   2.459   1.001   5.370 -0.0210  0.1393  0.1712
16766TIP3    H171713   2.432   1.081   5.415 -1.2370  0.6770 -1.4377
16766TIP3    H271714   2.553   1.011   5.358 -0.0846  1.1201  0.3969
16767TIP3   OH271715   2.888   5.194   6.583 -0.3734 -0.4934  0.3407
16767TIP3    H171716   2.953   5.236   6.639 -0.2779  0.0638 -0.1743
16767TIP3    H271717   2.811   5.251   6.588 -0.3713 -0.4494 -0.0722
16768TIP3   OH271718   2.472   4.909  11.139  0.7047 -0.0658 -0.0658
16768TIP3    H171719   2.404   4.843  11.151 -1.0427  1.5689 -0.4919
16768TIP3    H271720   2.450   4.979  11.200  1.3971  0.9630 -0.9510
16769TIP3   OH271721   5.482   5.650   0.982 -0.1352 -0.0269  0.4493
16769TIP3    H171722   5.551   5.716   0.979  0.2445 -0.4523 -0.2774
16769TIP3    H271723   5.414   5.684   0.923 -0.2242  0.0257  0.5806
16770TIP3   OH271724   0.598   3.511  14.370  0.1375  0.2238 -0.4989
16770TIP3    H171725   0.508   3.480  14.358 -0.7254  2.8787 -1.5003
16770TIP3    H271726   0.592   3.574  14.441  1.2459  0.3774 -0.5236
16771TIP3   OH271727   0.695   1.178   1.147 -0.1925 -0.3724  0.4000
16771TIP3    H171728   0.613   1.216   1.116  0.3386  1.6074  1.2624
16771TIP3    H271729   0.763   1.236   1.113  0.9569 -2.3758 -0.9112
16772TIP3   OH271730   6.041   3.189   5.492 -0.1048 -0.3484 -0.1397
16772TIP3    H171731   6.039   3.163   5.400  0.1512  0.0483 -0.2599
16772TIP3    H271732   5.960   3.154   5.529 -0.5972  0.1667 -0.7010
16773TIP3   OH271733   4.644   0.549  11.159  0.3631  0.3041  0.7686
16773TIP3    H171734   4.550   0.533  11.164  0.1978  1.4685  2.4261
16773TIP3    H271735   4.673   0.499  11.083 -1.5313 -0.3337  0.4031
16774TIP3   OH271736   0.685   5.705  16.511 -0.0804 -0.0625 -0.4003
16774TIP3    H171737   0.660   5.797  16.523  0.7368  0.0074  1.0270
16774TIP3    H271738   0.629   5.658  16.572  1.5622 -0.1501  1.1243
16775TIP3   OH271739   1.576   4.748   3.909  0.0397 -0.6021  0.4006
16775TIP3    H171740   1.578   4.658   3.877  1.5596 -0.1494 -0.8539
16775TIP3    H271741   1.494   4.753   3.959  0.4162 -2.9693  1.4200
16776TIP3   OH271742   2.723   0.336   5.264  0.4259 -0.4587 -0.3278
16776TIP3    H171743   2.652   0.323   5.201  0.0686  0.1667 -0.0581
16776TIP3    H271744   2.703   0.419   5.306  1.2669 -0.3241 -0.1780
16777TIP3   OH271745   4.121   5.758   5.847  0.0397  0.0610 -0.1397
16777TIP3    H171746   4.181   5.732   5.778 -1.1099  0.2132 -1.2242
16777TIP3    H271747   4.178   5.776   5.923  1.8064  3.6534 -2.0528
16778TIP3   OH271748   4.857   2.004   6.489  0.3268  0.0610 -0.3131
16778TIP3    H171749   4.939   1.989   6.537 -0.0941  0.2155  0.4748
16778TIP3    H271750   4.840   2.098   6.499 -0.1937 -0.0573 -0.0591
16779TIP3   OH271751   0.516   1.852  13.090 -0.1208  0.1081  0.3941
16779TIP3    H171752   0.604   1.870  13.125 -1.1054  1.5019  2.3151
16779TIP3    H271753   0.527   1.858  12.995  2.0494 -0.7960  0.5107
16780TIP3   OH271754   5.798   2.446  12.952  0.1882 -0.2672 -0.6454
16780TIP3    H171755   5.809   2.354  12.975  0.9653 -0.0077  0.0664
16780TIP3    H271756   5.792   2.492  13.036  1.8164  0.5477 -0.9337
16781TIP3   OH271757   2.349   4.028   2.552 -0.2746  0.2356  0.4090
16781TIP3    H171758   2.276   3.970   2.531  0.2686 -0.0125 -0.8595
16781TIP3    H271759   2.416   4.007   2.488 -0.3094  2.7574 -0.5584
16782TIP3   OH271760   4.308   5.697   4.780  0.1594 -0.6004 -0.4162
16782TIP3    H171761   4.243   5.742   4.727  0.9101  0.7085 -0.2749
16782TIP3    H271762   4.261   5.672   4.860 -0.5048 -0.9297 -0.9034
16783TIP3   OH271763   5.866   0.335   4.133  0.4120 -0.3046 -0.0660
16783TIP3    H171764   5.791   0.375   4.177  0.1604 -0.9747  0.1248
16783TIP3    H271765   5.827   0.271   4.073  0.7891  0.0365 -0.6861
16784TIP3   OH271766   1.264   2.569   4.294 -0.0924 -1.1748 -0.3895
16784TIP3    H171767   1.187   2.593   4.346  1.2514  1.5748  0.4874
16784TIP3    H271768   1.250   2.612   4.210  1.0468  0.4927  0.2312
16785TIP3   OH271769   2.867   3.891   2.944  0.1231 -0.6584  1.1404
16785TIP3    H171770   2.782   3.901   2.902 -0.0855  0.9237  1.8790
16785TIP3    H271771   2.922   3.958   2.904  0.4051 -0.2578  2.1664
16786TIP3   OH271772   1.715   6.422   4.499  0.2564 -0.1545 -1.1227
16786TIP3    H171773   1.783   6.489   4.510 -0.8956  1.1726 -1.8199
16786TIP3    H271774   1.635   6.462   4.533 -0.3871 -1.3511 -1.1482
16787TIP3   OH271775   2.266   2.886  15.853 -0.3073 -0.2671  0.0989
16787TIP3    H171776   2.277   2.924  15.766  0.2366  1.4023  0.8618
16787TIP3    H271777   2.177   2.850  15.852 -0.6465  0.5304 -0.8533
16788TIP3   OH271778   0.255   4.699   6.242 -0.3779  0.2737 -0.4057
16788TIP3    H171779   0.280   4.644   6.168 -2.4754  1.0025 -1.7470
16788TIP3    H271780   0.338   4.724   6.283  0.6725 -3.6325  0.1669
16789TIP3   OH271781   3.497   1.131  11.582  0.1138 -0.0538 -0.5725
16789TIP3    H171782   3.579   1.101  11.544 -0.7053 -0.2528 -2.2631
16789TIP3    H271783   3.473   1.063  11.645  2.3773  1.1246  1.7571
16790TIP3   OH271784   1.572   4.937   4.609 -0.0921  0.1046 -0.2381
16790TIP3    H171785   1.589   5.031   4.597  0.6493 -0.1300 -1.1279
16790TIP3    H271786   1.586   4.922   4.703  0.1752  0.8176 -0.1561
16791TIP3   OH271787   5.483   0.782   4.379 -0.0579 -0.0891  0.4023
16791TIP3    H171788   5.434   0.777   4.297 -0.5880  0.0361  0.7095
16791TIP3    H271789   5.557   0.722   4.366  0.6318  0.9469 -0.6790
16792TIP3   OH271790   4.760   2.375  14.215  0.0352  0.1706  0.0709
16792TIP3    H171791   4.846   2.333  14.210 -0.2957 -0.4624 -0.4444
16792TIP3    H271792   4.736   2.370  14.308  0.8555  0.9797  0.3347
16793TIP3   OH271793   1.417   4.854   0.910 -0.4536 -0.2821 -0.4441
16793TIP3    H171794   1.382   4.839   0.822  0.3167  0.0756 -0.8217
16793TIP3    H271795   1.468   4.776   0.930 -0.0009 -0.0382 -0.6333
16794TIP3   OH271796   5.596   3.827  10.952 -0.2314 -0.2950 -0.0540
16794TIP3    H171797   5.688   3.800  10.948 -0.5881 -1.4284 -1.8916
16794TIP3    H271798   5.556   3.785  10.876 -2.3789 -0.2051  0.9645
16795TIP3   OH271799   6.523   6.328  14.949  0.9812 -0.0058 -0.6600
16795TIP3    H171800   6.610   6.290  14.942  0.9602 -0.0330 -0.7775
16795TIP3    H271801   6.476   6.270  15.008  1.7351  1.2773  1.2902
16796TIP3   OH271802   0.415   4.774   4.933  0.1432  0.2976  0.3996
16796TIP3    H171803   0.428   4.791   5.026 -1.0161 -0.4565  0.7236
16796TIP3    H271804   0.423   4.679   4.925 -0.3768  0.2937 -0.1549
16797TIP3   OH271805   6.760   5.127  13.987  0.3608 -0.4143  0.0181
16797TIP3    H171806   6.766   5.065  14.060 -0.5768  0.4227  0.8327
16797TIP3    H271807   6.836   5.184  13.998 -0.6134  0.6890  1.3011
16798TIP3   OH271808   0.185   0.003   2.495 -0.3860 -0.0794 -0.2325
16798TIP3    H171809   0.251  -0.033   2.436  1.0595  0.0207  1.2580
16798TIP3    H271810   0.130  -0.072   2.518 -0.4592 -0.2799 -1.0394
16799TIP3   OH271811   6.155   3.621  14.921 -0.1880  0.4410 -0.3101
16799TIP3    H171812   6.080   3.635  14.978 -1.3933 -1.5907 -1.2775
16799TIP3    H271813   6.213   3.564  14.971 -1.3485 -1.5258 -1.0801
16800TIP3   OH271814   5.253   6.028  14.392  0.4161  0.0913  0.5219
16800TIP3    H171815   5.278   6.086  14.320 -0.9065 -0.0666 -0.0824
16800TIP3    H271816   5.309   5.952  14.381  2.0786  1.1501  1.2383
16801TIP3   OH271817   0.750   4.193  16.654  0.0201 -0.2107 -0.3114
16801TIP3    H171818   0.727   4.178  16.562  2.2055 -3.2649 -0.5430
16801TIP3    H271819   0.829   4.246  16.650  1.4166 -2.1680 -0.4533
16802TIP3   OH271820   0.203   0.587  17.040  0.3816  0.3649  0.0504
16802TIP3    H171821   0.119   0.548  17.065  0.2862  0.0517 -0.7248
16802TIP3    H271822   0.180   0.655  16.976  0.7532 -0.1681 -0.6723
16803TIP3   OH271823   3.174   5.542   1.692  0.1519 -0.1982  0.2169
16803TIP3    H171824   3.202   5.626   1.658  1.0340 -0.4860  0.2141
16803TIP3    H271825   3.091   5.561   1.737 -1.6817  0.0427 -2.8934
16804TIP3   OH271826   5.979   2.461  16.413 -0.4207  0.4464 -0.1749
16804TIP3    H171827   5.995   2.554  16.398  1.6962  0.3217  0.9648
16804TIP3    H271828   5.935   2.458  16.498  0.3885  0.3625  0.2451
16805TIP3   OH271829   2.603   5.179  16.942  0.0124  0.4360  0.3346
16805TIP3    H171830   2.546   5.256  16.940 -0.7544 -0.1470 -1.3324
16805TIP3    H271831   2.681   5.206  16.892  0.0927  0.3841  0.4323
16806TIP3   OH271832   6.569   6.614   1.686 -0.7707 -0.6234  0.1137
16806TIP3    H171833   6.519   6.638   1.608 -1.0843 -0.1472  0.4578
16806TIP3    H271834   6.505   6.578   1.747 -0.4776 -1.2814  0.0404
16807TIP3   OH271835   0.491   5.169   0.829  0.9167 -0.3486  0.1400
16807TIP3    H171836   0.514   5.236   0.893 -1.4492 -0.1408  0.8734
16807TIP3    H271837   0.514   5.207   0.745 -0.1225  1.3134  0.5603
16808TIP3   OH271838   2.937   3.798   4.132  0.1268  0.7256 -0.3469
16808TIP3    H171839   2.857   3.750   4.154  0.8203  0.1790  1.0369
16808TIP3    H271840   3.008   3.736   4.146  0.8744  1.4600 -0.7588
16809TIP3   OH271841   1.018   0.597  10.846  0.0381 -0.2137 -0.6796
16809TIP3    H171842   0.970   0.516  10.832 -0.6410  0.4636 -2.6417
16809TIP3    H271843   1.104   0.581  10.808  0.8173 -0.8327  1.2453
16810TIP3   OH271844   6.235   1.335  15.585 -0.3889 -0.5292 -0.1549
16810TIP3    H171845   6.255   1.289  15.503 -0.2096 -1.5652  0.4587
16810TIP3    H271846   6.176   1.406  15.558 -1.2011 -1.5014 -1.0368
16811TIP3   OH271847   1.908   2.268  16.824  0.0622 -0.2976  0.7471
16811TIP3    H171848   1.935   2.343  16.878 -0.2352  0.3307  0.0528
16811TIP3    H271849   1.968   2.272  16.749  0.2519 -0.9572  0.8624
16812TIP3   OH271850   0.656   1.558  12.953  0.0811 -0.5675 -0.4361
16812TIP3    H171851   0.592   1.592  12.891  0.4922 -0.2812 -0.7111
16812TIP3    H271852   0.605   1.510  13.017 -0.2342 -2.2868 -1.8976
16813TIP3   OH271853   2.291   6.581  11.841  0.5916  0.4738  0.6340
16813TIP3    H171854   2.378   6.617  11.823 -0.0753  1.2955 -1.1113
16813TIP3    H271855   2.287   6.500  11.790  0.0693  0.8427  0.0727
16814TIP3   OH271856   4.244   5.709   1.027 -0.3302 -0.5303 -0.0173
16814TIP3    H171857   4.207   5.754   0.951  2.6149  1.7626 -0.2743
16814TIP3    H271858   4.254   5.618   0.999  0.5978  0.2443 -2.3950
16815TIP3   OH271859   0.180   2.404  13.720 -0.4495  0.1784  0.2646
16815TIP3    H171860   0.090   2.380  13.701 -0.0871 -0.3042 -0.9656
16815TIP3    H271861   0.203   2.353  13.798  0.1592 -3.4085 -2.0020
16816TIP3   OH271862   1.236   0.730   3.294 -0.1147 -0.3146 -0.3267
16816TIP3    H171863   1.178   0.797   3.257  1.0316  0.2841 -1.0875
16816TIP3    H271864   1.272   0.771   3.373  0.7028  0.0473 -0.8731
16817TIP3   OH271865   5.140   4.132   7.102 -0.4883 -0.3728  0.3078
16817TIP3    H171866   5.225   4.152   7.141 -0.3009 -1.5801  0.5683
16817TIP3    H271867   5.088   4.211   7.116  0.3815  0.1422  0.7336
16818TIP3   OH271868   2.812   5.350   1.426 -0.2118  0.1735  0.4098
16818TIP3    H171869   2.802   5.257   1.405  0.0351  0.3598 -0.6028
16818TIP3    H271870   2.904   5.359   1.449 -0.0660  0.2897 -0.1996
16819TIP3   OH271871   0.614   2.362   4.429 -0.0992  0.1491 -0.4763
16819TIP3    H171872   0.536   2.307   4.423 -0.4429  0.6641 -0.9180
16819TIP3    H271873   0.683   2.304   4.459 -1.0810  0.0863  1.8332
16820TIP3   OH271874   1.300   4.979   6.334 -0.3197  0.0493 -0.0747
16820TIP3    H171875   1.255   5.062   6.328 -0.3190  0.0044 -0.7667
16820TIP3    H271876   1.387   5.001   6.368 -0.5297  0.2519  0.3306
16821TIP3   OH271877   6.230   6.451  13.506 -0.6095 -0.1157 -0.5446
16821TIP3    H171878   6.156   6.472  13.563  0.0272  0.6134  0.0319
16821TIP3    H271879   6.246   6.357  13.520  0.0209  0.2037  1.0815
16822TIP3   OH271880   1.023   3.186   1.978  0.0742  0.1544 -0.1520
16822TIP3    H171881   1.017   3.198   2.073  0.6895 -2.9690  0.3733
16822TIP3    H271882   1.020   3.091   1.965 -0.2113  0.4829 -3.3026
16823TIP3   OH271883   2.217   5.050  16.011  0.5210 -0.1251  0.2321
16823TIP3    H171884   2.174   4.974  15.971 -0.5155 -1.0317  2.8644
16823TIP3    H271885   2.148   5.114  16.022  0.9492  0.4013 -0.1013
16824TIP3   OH271886   3.873   6.509   0.585  0.0929  0.0409 -0.1251
16824TIP3    H171887   3.968   6.516   0.599 -0.0744  1.0363  0.6869
16824TIP3    H271888   3.854   6.416   0.592  1.2090 -0.3576 -1.7801
16825TIP3   OH271889   5.822   4.992   5.161  0.0755  0.0523  0.0769
16825TIP3    H171890   5.904   5.005   5.112 -0.3275 -0.0653 -0.6526
16825TIP3    H271891   5.834   5.040   5.242  1.3437 -0.9631  0.5202
16826TIP3   OH271892   4.197   1.526  15.236 -0.0587  0.0103 -0.4248
16826TIP3    H171893   4.281   1.558  15.202  0.3861 -0.5209  0.1470
16826TIP3    H271894   4.136   1.598  15.221 -0.2312 -0.6189 -3.5492
16827TIP3   OH271895   0.516   5.832  11.147 -0.0238  0.2082 -0.8460
16827TIP3    H171896   0.564   5.903  11.105  1.8756  0.0411  0.8786
16827TIP3    H271897   0.529   5.848  11.241 -0.7664 -1.6195 -0.4043
16828TIP3   OH271898   5.796   3.357  16.238  0.5143  0.1888  0.5443
16828TIP3    H171899   5.751   3.388  16.159  2.2855 -1.4161 -1.2023
16828TIP3    H271900   5.888   3.382  16.224  1.1599 -1.6519  1.2523
16829TIP3   OH271901   2.794   3.296   5.228 -0.6089 -0.2369  0.3945
16829TIP3    H171902   2.805   3.390   5.235  0.9275 -0.1266 -2.0881
16829TIP3    H271903   2.883   3.262   5.220 -1.2012 -1.6251 -0.8774
16830TIP3   OH271904   3.004   5.543  14.318 -0.1096 -0.9776 -0.1731
16830TIP3    H171905   2.974   5.541  14.409 -0.1203  0.4624 -0.1220
16830TIP3    H271906   3.099   5.537  14.324 -0.0130  0.5343  0.0323
16831TIP3   OH271907   2.268   3.258   0.464  0.0165  0.2673  0.0088
16831TIP3    H171908   2.267   3.177   0.516  0.1433  0.3035  0.0686
16831TIP3    H271909   2.183   3.259   0.420 -0.0814  0.2208  0.1925
16832TIP3   OH271910   5.072   2.506  12.623 -0.2365  0.0572  0.3211
16832TIP3    H171911   5.041   2.428  12.670  0.0134  0.2168  0.7515
16832TIP3    H271912   5.166   2.509  12.640  0.1631 -0.7501 -1.4510
16833TIP3   OH271913   1.353   0.134  15.646  0.2608 -0.2891 -0.1979
16833TIP3    H171914   1.407   0.055  15.653  2.4204  1.0361 -0.7683
16833TIP3    H271915   1.371   0.182  15.727 -0.4845 -0.0396 -0.1714
16834TIP3   OH271916   3.597   1.105  14.155 -0.0801 -0.3233 -0.0303
16834TIP3    H171917   3.535   1.047  14.111  0.7106 -0.1467 -1.4152
16834TIP3    H271918   3.680   1.057  14.155  0.1579  0.0762  0.4429
16835TIP3   OH271919   5.418   4.040   4.710 -0.0939  0.3457 -0.6705
16835TIP3    H171920   5.513   4.043   4.719  0.0104 -1.1393 -0.9964
16835TIP3    H271921   5.396   3.947   4.715 -2.0926  0.8040  4.4013
16836TIP3   OH271922   0.732   6.288   0.944 -0.0137  0.1063 -0.2301
16836TIP3    H171923   0.748   6.351   0.875  0.2160 -1.6439 -1.8573
16836TIP3    H271924   0.657   6.236   0.913 -1.0684  0.3837  1.6672
16837TIP3   OH271925   2.602   0.484   2.255 -0.4056 -0.3813  0.0039
16837TIP3    H171926   2.655   0.446   2.185 -0.1880 -2.2934  1.1422
16837TIP3    H271927   2.549   0.411   2.288 -2.2162  1.0050  0.3064
16838TIP3   OH271928   3.074   0.110  16.508  0.1396  0.3775  0.2713
16838TIP3    H171929   3.093   0.016  16.515 -2.1357 -0.0166  2.9587
16838TIP3    H271930   3.023   0.118  16.427 -0.9321 -0.9945  0.7769
16839TIP3   OH271931   5.362   6.589   0.480 -0.4816  0.2269  0.1365
16839TIP3    H171932   5.443   6.540   0.493 -0.8002 -0.1262  0.7851
16839TIP3    H271933   5.392   6.677   0.455  0.0936  0.0294  0.1098
16840TIP3   OH271934   6.701   6.717  17.225  0.2182  0.3782  0.8156
16840TIP3    H171935   6.634   6.652  17.203  2.5100 -1.7584 -0.3778
16840TIP3    H271936   6.653   6.786  17.272 -2.8841 -0.6849 -0.4769
16841TIP3   OH271937   2.754   3.483  16.592  0.2462  0.7316 -0.2378
16841TIP3    H171938   2.846   3.492  16.569  0.4441 -0.8071 -0.1377
16841TIP3    H271939   2.709   3.543  16.532  1.2278  0.8452 -0.8854
16842TIP3   OH271940   0.350   6.655   4.348 -0.0025  0.5277 -0.0196
16842TIP3    H171941   0.322   6.577   4.299  1.3854  0.7217 -1.1895
16842TIP3    H271942   0.280   6.669   4.412 -1.0140 -0.7927 -0.7741
16843TIP3   OH271943   5.640   1.171  13.757  0.6399  0.0188  0.5493
16843TIP3    H171944   5.671   1.182  13.847  0.5029  0.8926  0.4967
16843TIP3    H271945   5.714   1.197  13.703  0.5260  0.0530  0.4096
16844TIP3   OH271946   6.206   6.557   4.999  0.1072  0.1995  0.0493
16844TIP3    H171947   6.258   6.487   4.960 -0.0119  0.1770 -0.0701
16844TIP3    H271948   6.193   6.530   5.090  0.5813  0.3644  0.1666
16845TIP3   OH271949   5.711   4.855   1.851 -0.5497  0.5478 -0.2733
16845TIP3    H171950   5.753   4.807   1.780 -0.3174  0.9928 -0.4407
16845TIP3    H271951   5.760   4.937   1.857 -2.1480  1.6411 -1.3063
16846TIP3   OH271952   3.382   1.070   5.290 -0.0178 -0.7939  0.1745
16846TIP3    H171953   3.396   1.099   5.200  1.8164 -3.7597 -0.6679
16846TIP3    H271954   3.470   1.056   5.324 -0.6927 -0.1364  2.3182
16847TIP3   OH271955   5.289   1.311  12.861 -0.8748 -0.0884  0.1613
16847TIP3    H171956   5.383   1.306  12.844 -0.8563  1.3386 -0.3428
16847TIP3    H271957   5.277   1.262  12.942  0.8239  2.1462  1.9276
16848TIP3   OH271958   3.733   6.489  12.251 -0.2107 -0.0436  0.9575
16848TIP3    H171959   3.654   6.487  12.197 -0.3790 -1.9477  1.2118
16848TIP3    H271960   3.746   6.582  12.271  0.7892  1.0310 -3.6293
16849TIP3   OH271961   3.169   5.066  16.174  0.3443 -0.0464 -0.8687
16849TIP3    H171962   3.258   5.052  16.141  1.0671  0.1262  0.9239
16849TIP3    H271963   3.180   5.131  16.244 -0.7267 -2.1878  1.4129
16850TIP3   OH271964   4.983   5.225  15.952 -0.0350  0.3922  0.4940
16850TIP3    H171965   5.002   5.158  16.017 -1.1879 -0.6362 -0.1905
16850TIP3    H271966   4.901   5.197  15.912  0.9231  0.6983 -1.8073
16851TIP3   OH271967   6.696   5.849   3.820 -0.3968  0.7502  0.7089
16851TIP3    H171968   6.733   5.916   3.763 -1.7957 -0.5202 -1.8371
16851TIP3    H271969   6.753   5.772   3.808 -2.7001 -0.7150 -2.0403
16852TIP3   OH271970   5.246   2.604   1.464 -0.4463  0.1323  0.5401
16852TIP3    H171971   5.307   2.537   1.494 -0.5937 -0.2298  0.0389
16852TIP3    H271972   5.286   2.639   1.385 -1.0021 -0.2738  0.0734
16853TIP3   OH271973   2.383   5.418   5.814 -0.1372 -0.0008  0.5929
16853TIP3    H171974   2.357   5.470   5.891  1.1315 -0.8809  1.6635
16853TIP3    H271975   2.372   5.327   5.842  0.5146 -0.3333 -0.2024
16854TIP3   OH271976   2.888   6.602  16.222  0.0226 -0.0283  0.0039
16854TIP3    H171977   2.895   6.696  16.211 -0.8555  0.0547  0.0274
16854TIP3    H271978   2.793   6.585  16.226  0.1731 -0.7433  1.3807
16855TIP3   OH271979   5.145   6.208  11.877 -0.1341 -0.0285  0.2349
16855TIP3    H171980   5.065   6.193  11.927 -1.1960  0.6093 -1.2047
16855TIP3    H271981   5.173   6.296  11.901 -0.0761 -0.1085  0.4597
16856TIP3   OH271982   0.730   5.742  16.837 -0.3057 -0.7891 -0.1988
16856TIP3    H171983   0.688   5.719  16.920  2.0323 -0.2888  1.2283
16856TIP3    H271984   0.708   5.670  16.778 -0.8097 -1.9233  1.3038
16857TIP3   OH271985   4.936   5.877   5.582  0.2892 -0.2653 -0.3868
16857TIP3    H171986   4.846   5.900   5.605  0.7247  1.3608 -0.1859
16857TIP3    H271987   4.982   5.875   5.666  0.7299  0.2946 -0.6084
16858TIP3   OH271988   6.387   3.855  12.189 -0.2378 -0.7785  0.2906
16858TIP3    H171989   6.310   3.912  12.184  0.1301 -0.1997  1.0452
16858TIP3    H271990   6.350   3.768  12.206 -0.6927 -0.1994  2.6889
16859TIP3   OH271991   5.032   6.631   2.438  0.0920 -0.3988 -0.2815
16859TIP3    H171992   5.105   6.594   2.388  0.5826 -0.5906  0.5449
16859TIP3    H271993   5.012   6.565   2.504  0.2073  0.3066  0.4847
16860TIP3   OH271994   5.934   5.409  11.178 -0.4950 -0.1384  0.2995
16860TIP3    H171995   5.874   5.369  11.115 -1.0702 -0.5685  1.1006
16860TIP3    H271996   6.000   5.341  11.193 -1.0868 -0.5476  1.1345
16861TIP3   OH271997   6.325   4.365   3.071  0.2996 -0.2561  0.5924
16861TIP3    H171998   6.312   4.271   3.075  4.3354 -1.0127  0.1140
16861TIP3    H271999   6.379   4.386   3.147 -0.7629  1.7587  0.8638
16862TIP3   OH272000   6.086   1.341  10.925 -0.3398 -0.3142  0.5827
16862TIP3    H172001   6.137   1.309  10.999 -0.2683 -0.1747  0.5954
16862TIP3    H272002   6.017   1.276  10.912 -0.1611 -0.5016  0.5680
16863TIP3   OH272003   0.501   4.648  12.582  0.6634 -0.5527  0.0273
16863TIP3    H172004   0.560   4.576  12.605 -0.6763 -1.6466  0.1770
16863TIP3    H272005   0.473   4.628  12.493  1.1993  0.4557 -0.3854
16864TIP3   OH272006   5.033   4.308   5.183 -0.3511  0.3240  0.0669
16864TIP3    H172007   5.049   4.227   5.135  0.1820 -0.0984  0.9405
16864TIP3    H272008   5.089   4.302   5.260 -3.0616 -0.1647  2.1216
16865TIP3   OH272009   1.837   1.445  16.701 -0.0284  0.6492 -0.5670
16865TIP3    H172010   1.779   1.442  16.625  1.2371 -4.4275 -1.6687
16865TIP3    H272011   1.923   1.420  16.666  0.2878 -3.6003  2.5072
16866TIP3   OH272012   3.072   4.824  15.207 -0.3891 -0.4363  0.2246
16866TIP3    H172013   3.011   4.883  15.251  0.2389  2.2175 -2.1327
16866TIP3    H272014   3.036   4.813  15.119  0.9125 -1.3844 -0.2312
16867TIP3   OH272015   5.554   1.005  12.634  0.2905  0.4049  0.6543
16867TIP3    H172016   5.462   1.013  12.656 -0.1196  0.5944 -1.0067
16867TIP3    H272017   5.579   0.917  12.663 -0.4703  0.2494  0.8440
16868TIP3   OH272018   5.224   2.793  11.412  0.1943 -0.9105  0.2284
16868TIP3    H172019   5.180   2.710  11.396  0.4729 -0.5529 -3.3653
16868TIP3    H272020   5.313   2.769  11.436 -0.0585 -1.6397  0.4554
16869TIP3   OH272021   3.936   5.734  16.466 -0.0202 -0.3552  0.1845
16869TIP3    H172022   3.985   5.790  16.526  0.6882  1.3405 -1.8498
16869TIP3    H272023   3.927   5.786  16.386 -0.8776 -2.5047 -1.2219
16870TIP3   OH272024   4.012   1.895  15.502  0.1948 -0.1224  0.2950
16870TIP3    H172025   4.010   1.807  15.540  0.6439  0.4573  1.7197
16870TIP3    H272026   4.011   1.880  15.408 -4.5606 -1.6185  0.3053
16871TIP3   OH272027   3.462   2.069  14.361 -0.2568  0.2359 -0.5123
16871TIP3    H172028   3.484   2.099  14.449 -3.5397 -2.1768  1.3180
16871TIP3    H272029   3.394   2.130  14.331 -0.4524 -0.0355 -0.6209
16872TIP3   OH272030   2.205   6.013  13.052 -0.1350 -0.0119 -0.6023
16872TIP3    H172031   2.151   5.946  13.092  1.6571 -1.4448 -0.4695
16872TIP3    H272032   2.142   6.072  13.010 -1.8513 -0.6275  0.9673
16873TIP3   OH272033   6.008   6.007   2.735  0.2873 -0.0081  1.2245
16873TIP3    H172034   5.940   6.006   2.666  0.0761  0.5037  1.4189
16873TIP3    H272035   6.085   6.043   2.692  0.7817 -1.6063  0.7028
16874TIP3   OH272036   4.986   1.047  12.678 -0.0137 -0.2314 -0.2093
16874TIP3    H172037   4.891   1.047  12.688  0.0549  0.1602  0.5023
16874TIP3    H272038   5.015   0.970  12.725  0.1113  0.2707  0.5430
16875TIP3   OH272039   4.218   2.865   0.508 -0.0236 -0.1992 -0.0239
16875TIP3    H172040   4.237   2.871   0.415  2.4374  1.7135  0.4801
16875TIP3    H272041   4.275   2.931   0.548 -1.0098 -0.9354  2.8340
16876TIP3   OH272042   6.610   5.764   1.743 -0.1923  0.3831 -0.3517
16876TIP3    H172043   6.579   5.854   1.742 -0.6021  0.2581 -2.0568
16876TIP3    H272044   6.705   5.771   1.755 -0.0783  1.1207 -1.5162
16877TIP3   OH272045   3.736   1.858  13.937  0.0181  0.0874  0.1209
16877TIP3    H172046   3.645   1.861  13.910 -0.2374 -0.7567  0.8315
16877TIP3    H272047   3.735   1.814  14.022  1.1187 -0.2478 -0.0148
16878TIP3   OH272048   4.197   4.189  11.977  0.2067 -1.0837 -0.7706
16878TIP3    H172049   4.116   4.140  11.966  0.2537 -0.9882 -1.6526
16878TIP3    H272050   4.266   4.125  11.961  0.3813 -1.5960  1.7116
16879TIP3   OH272051   6.020   6.337  11.582 -0.0556 -0.2538  0.2096
16879TIP3    H172052   5.989   6.420  11.617  1.0542 -0.1294  0.9528
16879TIP3    H272053   5.961   6.317  11.509 -2.4675 -0.5428  2.1472
16880TIP3   OH272054   5.334   5.949   3.607  0.3097  0.4969  0.3596
16880TIP3    H172055   5.258   5.908   3.649  0.6889 -0.5801  0.0463
16880TIP3    H272056   5.330   6.041   3.632 -1.8403  0.7570 -0.7093
16881TIP3   OH272057   5.054   5.815  15.423  0.1622 -0.0264  0.2013
16881TIP3    H172058   4.965   5.791  15.448  0.7271 -1.5263  0.8929
16881TIP3    H272059   5.085   5.741  15.372  0.4803  1.1916 -1.4285
16882TIP3   OH272060   1.658   4.667   2.017 -0.5428  0.2061  0.3101
16882TIP3    H172061   1.568   4.645   2.039 -1.0466  0.2825 -1.4618
16882TIP3    H272062   1.660   4.667   1.921  1.7792 -1.5540  0.2613
16883TIP3   OH272063   1.037   1.466   0.822 -0.4893  0.3295  0.5199
16883TIP3    H172064   1.129   1.492   0.826 -0.3204 -0.3356  1.2099
16883TIP3    H272065   1.034   1.398   0.755 -1.0021  2.2937 -1.5858
16884TIP3   OH272066   3.494   1.665   1.735 -0.7206  0.0834 -0.3493
16884TIP3    H172067   3.545   1.693   1.811 -2.3345 -0.7589  1.1147
16884TIP3    H272068   3.522   1.575   1.719 -1.8080 -0.4328  0.5539
16885TIP3   OH272069   6.282   5.985  16.524  0.0952 -0.0026 -0.3296
16885TIP3    H172070   6.199   5.993  16.477  0.2914  0.8193 -0.5574
16885TIP3    H272071   6.347   5.970  16.455  0.3284  0.7881 -0.2884
16886TIP3   OH272072   1.238   5.059  12.956  0.0873  0.1654 -0.2612
16886TIP3    H172073   1.163   5.056  13.014  0.8734  2.0496  0.9572
16886TIP3    H272074   1.207   5.107  12.879  0.0033  0.8724  0.2070
16887TIP3   OH272075   5.848   6.706  17.174  0.3995  0.0181 -0.2495
16887TIP3    H172076   5.834   6.786  17.122 -0.7225  1.0220  1.4883
16887TIP3    H272077   5.762   6.664  17.178  1.1912 -1.9605 -2.0844
16888TIP3   OH272078   4.131   4.293  15.013 -0.6153  0.2723 -0.3540
16888TIP3    H172079   4.162   4.384  15.012 -1.8916  0.7948  1.6281
16888TIP3    H272080   4.050   4.296  15.064 -1.0642 -1.8826 -0.8619
16889TIP3   OH272081   4.033   1.426   0.540 -0.5226 -0.5495  0.5982
16889TIP3    H172082   3.949   1.431   0.586 -0.4209  0.4959  0.7122
16889TIP3    H272083   4.010   1.435   0.447 -0.4412  1.5350  0.7302
16890TIP3   OH272084   3.250   3.773   2.438 -0.0514 -0.5532  0.0145
16890TIP3    H172085   3.268   3.688   2.397 -0.4014 -2.0193  2.6531
16890TIP3    H272086   3.322   3.784   2.501 -0.6114  0.5506  0.4853
16891TIP3   OH272087   2.104   0.091   6.461  0.3647 -0.0433 -0.1636
16891TIP3    H172088   2.195   0.097   6.488  0.6688 -2.2925 -0.4901
16891TIP3    H272089   2.094   0.001   6.429 -1.8106  0.3298 -0.7117
16892TIP3   OH272090   1.995   3.532  11.776 -0.0901  0.4961 -0.2143
16892TIP3    H172091   1.994   3.616  11.821 -1.8960  1.2535 -1.5365
16892TIP3    H272092   1.989   3.554  11.683 -2.5068 -1.0909 -0.5194
16893TIP3   OH272093   3.027   5.526   4.607 -0.2932 -0.4052  0.1430
16893TIP3    H172094   3.122   5.523   4.592 -0.3656  1.2211 -0.9736
16893TIP3    H272095   2.990   5.532   4.519 -1.3498  0.3594  0.6242
16894TIP3   OH272096   0.620   4.367  15.999 -0.1244 -0.2136 -0.3598
16894TIP3    H172097   0.658   4.335  15.918 -1.4965  1.1138 -1.5886
16894TIP3    H272098   0.684   4.429  16.034  0.1100 -0.1524 -0.8956
16895TIP3   OH272099   4.721   1.554  16.418  0.1111  0.7706 -0.3650
16895TIP3    H172100   4.720   1.520  16.328 -0.3249 -0.3243  0.0368
16895TIP3    H272101   4.787   1.501  16.463 -0.1326  0.8626  0.1132
16896TIP3   OH272102   4.332   3.131   4.578 -0.0991  0.1509 -0.2427
16896TIP3    H172103   4.237   3.127   4.593 -0.2548 -0.3124 -1.2741
16896TIP3    H272104   4.368   3.155   4.663 -1.1553  0.5167  0.1240
16897TIP3   OH272105   6.265   6.544   3.945  0.1970  0.0318 -0.5263
16897TIP3    H172106   6.351   6.514   3.918  1.8587  2.6290  1.3864
16897TIP3    H272107   6.273   6.563   4.038 -1.8850  2.0191 -0.6425
16898TIP3   OH272108   1.108   2.957  15.335  0.0294 -0.4300 -0.3003
16898TIP3    H172109   1.034   3.015  15.350  0.7082  0.7747 -1.3711
16898TIP3    H272110   1.117   2.953  15.239  0.1809 -2.0944 -0.2517
16899TIP3   OH272111   3.722   1.965  14.429  0.1217 -0.1885  0.2321
16899TIP3    H172112   3.737   1.914  14.350  1.2546  0.3940  0.0444
16899TIP3    H272113   3.627   1.975  14.434 -0.2218 -2.8022  0.6129
16900TIP3   OH272114   6.420   2.295  10.606  0.0539  0.5150  0.7630
16900TIP3    H172115   6.337   2.258  10.636  0.8955  0.4533  3.2546
16900TIP3    H272116   6.473   2.220  10.580 -0.4338  0.5172 -0.2989
16901TIP3   OH272117   0.192   2.115   1.395 -0.8487  0.1619 -0.4700
16901TIP3    H172118   0.204   2.199   1.351  1.5349 -0.6193 -1.4793
16901TIP3    H272119   0.218   2.049   1.331  0.0638 -1.1806  1.1831
16902TIP3   OH272120   6.046   1.908   2.628  0.1903  0.0227  0.1827
16902TIP3    H172121   5.964   1.913   2.578 -0.2652 -3.4735  0.3905
16902TIP3    H272122   6.112   1.882   2.564  0.2248 -1.4053  0.7650
16903TIP3   OH272123   3.303   3.364   4.171  0.6485  0.1053  0.1615
16903TIP3    H172124   3.256   3.298   4.223  1.8979  0.6595  2.0748
16903TIP3    H272125   3.261   3.359   4.084 -0.3860 -2.0376  0.6940
16904TIP3   OH272126   1.751   4.544   3.657  0.1717  0.3133 -0.6895
16904TIP3    H172127   1.789   4.529   3.743 -1.9606 -1.3150  0.0352
16904TIP3    H272128   1.815   4.600   3.612  1.0843  1.6514  2.0891
16905TIP3   OH272129   6.176   2.490  13.836 -0.7036 -0.1266  0.1217
16905TIP3    H172130   6.146   2.515  13.748  0.2775  0.9652  0.0836
16905TIP3    H272131   6.100   2.445  13.874 -2.2555  2.0434 -0.1734
16906TIP3   OH272132   1.892   5.841   3.569 -0.3342 -0.3330 -0.8253
16906TIP3    H172133   1.947   5.780   3.520  0.8261 -0.8222  0.9727
16906TIP3    H272134   1.953   5.886   3.628 -1.7267 -0.2609  0.6362
16907TIP3   OH272135   6.443   3.499   2.335  0.5573  0.8489  0.3163
16907TIP3    H172136   6.400   3.564   2.279  0.1124 -0.7063 -1.2558
16907TIP3    H272137   6.381   3.426   2.338  0.8494  0.6396  2.3954
16908TIP3   OH272138   5.901   0.591  15.672 -0.7437  0.1139  0.9399
16908TIP3    H172139   5.945   0.658  15.726 -0.2635  0.1101  0.5633
16908TIP3    H272140   5.808   0.607  15.685 -0.6760 -0.8064  2.9208
16909TIP3   OH272141   3.717   0.013  11.871 -0.5187  0.5537  0.5017
16909TIP3    H172142   3.763   0.062  11.939  0.5081 -0.7330  0.7883
16909TIP3    H272143   3.645  -0.031  11.917  0.1635 -0.3004  0.7867
16910TIP3   OH272144   3.025   1.098   1.822 -0.1304 -0.3579  0.2377
16910TIP3    H172145   2.984   1.106   1.908 -2.2981 -1.4007 -0.6325
16910TIP3    H272146   2.956   1.123   1.760  1.2104 -0.1608 -1.2458
16911TIP3   OH272147   0.221   1.965  15.580 -0.1383  0.0321 -0.1684
16911TIP3    H172148   0.266   1.987  15.498  1.0354 -2.4933 -0.2993
16911TIP3    H272149   0.163   1.893  15.557  0.6002 -1.0889  1.2600
16912TIP3   OH272150   6.034   2.155  16.350 -0.7724  0.1079 -0.1452
16912TIP3    H172151   6.028   2.249  16.360 -0.5747  0.1436 -0.3331
16912TIP3    H272152   6.055   2.122  16.437 -2.2326  0.1005  0.2194
16913TIP3   OH272153   1.119   1.189  12.606 -0.4336  0.7518  0.7531
16913TIP3    H172154   1.142   1.155  12.692  2.4314 -0.1999 -0.2934
16913TIP3    H272155   1.075   1.116  12.562 -2.5287  1.4508  1.5340
16914TIP3   OH272156   1.498   4.651   3.262 -0.9713 -0.2704  0.6666
16914TIP3    H172157   1.477   4.656   3.355 -2.0149 -0.2542  0.4417
16914TIP3    H272158   1.528   4.561   3.250  0.5413  0.1067  1.2638
16915TIP3   OH272159   6.482   2.616  13.313  0.2924 -0.5541  0.1117
16915TIP3    H172160   6.546   2.561  13.360  1.3856  1.2909  0.9059
16915TIP3    H272161   6.412   2.631  13.377  0.1742 -0.7075  0.0202
16916TIP3   OH272162   4.617   1.227  13.064 -0.0778  0.2328 -0.3639
16916TIP3    H172163   4.687   1.242  13.001  2.3366 -1.1791  1.8154
16916TIP3    H272164   4.588   1.315  13.089 -0.2966  0.8311 -2.4822
16917TIP3   OH272165   5.081   0.402  15.286  0.0663 -0.1235  0.4350
16917TIP3    H172166   5.152   0.463  15.267  0.4188 -1.0990 -1.6550
16917TIP3    H272167   5.114   0.316  15.258 -1.7326 -0.6886 -0.1051
16918TIP3   OH272168   4.403   3.950   2.643  0.0587 -0.6314  0.2695
16918TIP3    H172169   4.405   4.044   2.659  1.8773 -0.7234  0.8881
16918TIP3    H272170   4.469   3.936   2.574  0.7744 -1.5770  1.1152
16919TIP3   OH272171   5.717   2.785   1.835  0.2309 -0.1945 -0.1300
16919TIP3    H172172   5.676   2.699   1.829  0.8343 -0.3709 -2.7924
16919TIP3    H272173   5.738   2.795   1.928  1.5737 -3.6167  0.0602
16920TIP3   OH272174   2.084   2.380  15.431 -0.2881  0.5759 -0.3975
16920TIP3    H172175   2.057   2.297  15.391 -3.3423  0.4410  1.5720
16920TIP3    H272176   2.033   2.446  15.385  1.4944  1.3182 -1.3786
16921TIP3   OH272177   5.824   4.794  13.666 -0.0191  0.3600 -0.3388
16921TIP3    H172178   5.791   4.749  13.743 -1.1927 -0.0431 -1.0494
16921TIP3    H272179   5.886   4.733  13.627  0.1482  0.3283 -0.0199
16922TIP3   OH272180   0.552   3.304   3.223  0.2062 -0.2497  0.0023
16922TIP3    H172181   0.592   3.242   3.285 -0.1188 -1.2288 -0.7334
16922TIP3    H272182   0.458   3.286   3.230  0.2493 -1.5151 -1.8888
16923TIP3   OH272183   2.527   5.721  15.074  0.1812 -0.2137  0.5869
16923TIP3    H172184   2.542   5.633  15.040 -1.0915 -0.0634 -0.4389
16923TIP3    H272185   2.480   5.707  15.156 -2.2368 -0.5035 -0.7596
16924TIP3   OH272186   4.666   1.318   3.256  0.2351 -0.0298 -0.2152
16924TIP3    H172187   4.708   1.378   3.317  1.0117  0.0842 -0.8456
16924TIP3    H272188   4.735   1.297   3.192  0.5092 -2.8338  0.8705
16925TIP3   OH272189   4.265   0.119   6.428  0.0012  0.2116 -0.1473
16925TIP3    H172190   4.210   0.191   6.461  0.5614  0.9356 -0.7697
16925TIP3    H272191   4.318   0.094   6.504 -0.5902  0.0690  0.2285
16926TIP3   OH272192   4.831   1.305   0.482 -0.1347  0.2463 -0.6799
16926TIP3    H172193   4.810   1.278   0.393  0.4847 -0.7921 -0.5288
16926TIP3    H272194   4.795   1.237   0.538  0.6558  0.1780 -0.2285
16927TIP3   OH272195   3.053   5.448   0.402  0.3425  0.4756  0.9274
16927TIP3    H172196   3.068   5.362   0.362 -0.5779  0.3797  0.7648
16927TIP3    H272197   3.051   5.431   0.496 -0.1585  0.2579  0.8813
16928TIP3   OH272198   5.785   3.469  12.819  0.0521 -0.0915  0.5134
16928TIP3    H172199   5.842   3.418  12.877  0.4726  0.7960  0.8909
16928TIP3    H272200   5.845   3.516  12.761 -0.3599 -0.8340 -0.5440
16929TIP3   OH272201   1.354   0.071   3.239  0.4895  0.1161 -0.1736
16929TIP3    H172202   1.426   0.013   3.214  0.3194  0.4757 -1.5501
16929TIP3    H272203   1.392   0.159   3.234  0.0107  0.2937 -0.7329
16930TIP3   OH272204   4.885   5.460   3.868 -1.2193 -0.0782 -0.1601
16930TIP3    H172205   4.953   5.474   3.933 -0.5200  2.0108 -1.2584
16930TIP3    H272206   4.804   5.488   3.911 -0.8717  0.5970  0.0681
16931TIP3   OH272207   3.506   2.073  13.390  0.5992  0.4231 -0.3583
16931TIP3    H172208   3.544   1.986  13.397 -2.9337 -1.2620  0.0566
16931TIP3    H272209   3.506   2.092  13.296  0.6158 -0.4203 -0.5323
16932TIP3   OH272210   1.015   0.664   0.084 -0.0927 -0.4843 -0.4500
16932TIP3    H172211   0.993   0.675  -0.009  1.0731  0.8749 -0.6045
16932TIP3    H272212   1.094   0.717   0.096 -0.8095  0.2313  1.5525
16933TIP3   OH272213   4.789   1.009  13.224  0.2408  0.1334 -0.1204
16933TIP3    H172214   4.700   1.009  13.192  0.1986 -0.6169 -0.0101
16933TIP3    H272215   4.794   1.087  13.280  0.0610  0.9328 -1.2038
16934TIP3   OH272216   5.544   4.154   2.159 -0.1997 -0.1642 -0.1701
16934TIP3    H172217   5.485   4.163   2.233  2.6109 -0.7322  2.3698
16934TIP3    H272218   5.582   4.067   2.169  1.8028  0.5466 -1.0128
16935TIP3   OH272219   5.702   3.989   2.491 -0.8701  0.2520  0.8551
16935TIP3    H172220   5.792   3.962   2.475 -1.0948  0.8621 -2.0835
16935TIP3    H272221   5.710   4.072   2.539  0.1620  0.4864  0.3181
16936TIP3   OH272222   1.631   6.201  14.399  0.0616  0.1085 -0.0157
16936TIP3    H172223   1.662   6.122  14.443 -0.6877 -1.3222 -1.9424
16936TIP3    H272224   1.536   6.194  14.400 -0.0582  1.4776  0.5843
16937TIP3   OH272225   0.493   1.900  12.794 -0.1799  0.0848  0.3569
16937TIP3    H172226   0.416   1.934  12.749 -0.0525  0.6471  0.5663
16937TIP3    H272227   0.548   1.976  12.811 -0.3279 -0.0785  1.6774
16938TIP3   OH272228   4.542   2.015  11.732 -0.3806  0.0906  0.4825
16938TIP3    H172229   4.561   1.924  11.709 -0.6575 -0.3765  1.9759
16938TIP3    H272230   4.455   2.031  11.696  0.4492  0.4133 -1.4636
16939TIP3   OH272231   4.132   3.418  11.850 -1.0316  0.4040 -0.1330
16939TIP3    H172232   4.227   3.403  11.848 -0.9694  0.7535  0.1410
16939TIP3    H272233   4.094   3.331  11.843 -0.6882 -0.0426  2.5588
16940TIP3   OH272234   4.202   5.550  16.224  0.0672  0.4276 -0.7419
16940TIP3    H172235   4.244   5.464  16.220  2.0181  1.3797 -2.6328
16940TIP3    H272236   4.115   5.532  16.260 -0.0960 -2.5609 -2.2972
16941TIP3   OH272237   5.785   1.690  14.916  0.3296 -0.0950  0.1398
16941TIP3    H172238   5.691   1.687  14.936  0.3104 -0.1137  0.0456
16941TIP3    H272239   5.800   1.779  14.884  0.1047 -0.4427 -1.0048
16942TIP3   OH272240   2.688   1.875  15.342 -0.4097  0.4781  0.1744
16942TIP3    H172241   2.737   1.934  15.284 -0.2319  0.4046  0.2474
16942TIP3    H272242   2.708   1.907  15.430 -1.5230  1.2457  0.1634
16943TIP3   OH272243   2.748   4.865  11.769 -0.3281  0.2010 -1.1059
16943TIP3    H172244   2.838   4.836  11.750 -0.5037  1.4964 -4.7875
16943TIP3    H272245   2.693   4.795  11.733 -0.8560 -0.4812  0.9352
16944TIP3   OH272246   3.945   0.275   1.551 -0.4240  0.2644  0.2599
16944TIP3    H172247   3.968   0.266   1.459 -0.7402 -0.3912  0.2362
16944TIP3    H272248   3.915   0.365   1.560 -1.1164  0.1184 -0.4526
16945TIP3   OH272249   2.786   1.519   4.270  0.4768  0.2654 -0.5856
16945TIP3    H172250   2.820   1.460   4.338 -1.8265 -1.0910 -0.5200
16945TIP3    H272251   2.823   1.485   4.189 -0.0936 -0.7587 -0.4410
16946TIP3   OH272252   1.019   3.856   5.656  0.8517  0.1385  0.0044
16946TIP3    H172253   1.088   3.874   5.720 -0.1525  1.7184  0.7077
16946TIP3    H272254   1.039   3.914   5.583  0.5913  0.1912 -0.0266
16947TIP3   OH272255   2.527   1.849   0.244 -0.4481 -0.2742  0.2216
16947TIP3    H172256   2.589   1.906   0.289  0.2096 -1.6702  1.1448
16947TIP3    H272257   2.533   1.765   0.289  1.7253 -2.4696 -3.6150
16948TIP3   OH272258   4.535   4.860   0.127 -0.5908 -1.2795 -0.4302
16948TIP3    H172259   4.606   4.798   0.112 -0.6133 -1.5465  0.5044
16948TIP3    H272260   4.465   4.832   0.067  0.2306 -0.7590 -1.6563
16949TIP3   OH272261   1.223   1.693   2.059 -0.4067  0.2555  0.2612
16949TIP3    H172262   1.283   1.618   2.056  0.1468  0.7055 -1.9597
16949TIP3    H272263   1.136   1.655   2.047 -0.4373 -0.2438  1.8304
16950TIP3   OH272264   6.132   0.980  11.509  0.7788 -0.2588 -0.3621
16950TIP3    H172265   6.193   0.984  11.582  1.5203 -0.0250 -0.9802
16950TIP3    H272266   6.187   0.978  11.431 -0.0001  0.9275 -0.9824
16951TIP3   OH272267   2.163   0.398   1.202 -0.7017  0.1389 -0.7401
16951TIP3    H172268   2.070   0.411   1.220 -1.1850 -3.2213 -0.2090
16951TIP3    H272269   2.207   0.427   1.282 -1.1466  2.2426 -1.1867
16952TIP3   OH272270   5.763   1.352  17.316  0.2635  0.4647 -0.2832
16952TIP3    H172271   5.757   1.393  17.230  0.2905  0.8741 -0.0953
16952TIP3    H272272   5.844   1.386  17.353  0.0990  0.5320  0.0242
16953TIP3   OH272273   4.892   6.180  14.986 -0.2979 -0.6688 -0.4045
16953TIP3    H172274   4.873   6.120  15.058 -1.5230 -1.6439 -1.5046
16953TIP3    H272275   4.904   6.265  15.028 -3.7566 -0.6301  0.7687
16954TIP3   OH272276   1.501   0.507  13.749 -1.1054 -0.1759 -0.4633
16954TIP3    H172277   1.499   0.430  13.805  2.1565  0.8574  1.3219
16954TIP3    H272278   1.435   0.565  13.786 -2.0470 -1.1934 -0.4737
16955TIP3   OH272279   6.619   1.962   0.807 -0.4249 -0.5161  0.1468
16955TIP3    H172280   6.692   1.949   0.868  1.1440 -0.9995 -1.6952
16955TIP3    H272281   6.598   1.873   0.776 -1.1590 -0.2863 -0.0253
16956TIP3   OH272282   1.479   5.278  12.947  0.5122 -0.8207  0.0563
16956TIP3    H172283   1.416   5.336  12.906 -0.5606  0.0438  2.6820
16956TIP3    H272284   1.428   5.200  12.970  0.7799 -0.7946  0.7580
16957TIP3   OH272285   5.008   2.552   6.020 -0.5896  0.8357 -0.0327
16957TIP3    H172286   5.076   2.538   6.086  0.1890 -0.7077 -1.1015
16957TIP3    H272287   4.982   2.464   5.994 -3.2751  1.3637  0.5561
16958TIP3   OH272288   6.457   5.178  16.896 -0.2224 -0.0076 -0.2567
16958TIP3    H172289   6.401   5.101  16.902 -1.3311  0.6349 -1.6854
16958TIP3    H272290   6.494   5.188  16.983  1.7606 -3.4598 -0.5324
16959TIP3   OH272291   2.989   3.966   3.324 -0.2619 -0.1396  0.1999
16959TIP3    H172292   2.930   3.891   3.312 -0.5936  0.0256  0.7618
16959TIP3    H272293   3.015   3.961   3.416  1.0194 -0.5092 -0.1617
16960TIP3   OH272294   2.404   2.320   0.459 -0.0367 -0.7003  0.2228
16960TIP3    H172295   2.445   2.312   0.373 -1.4067  1.3341 -0.7142
16960TIP3    H272296   2.310   2.319   0.440 -0.3575 -0.2838  1.7120
16961TIP3   OH272297   2.714   1.301   4.483 -0.0486  0.5926 -0.2918
16961TIP3    H172298   2.762   1.220   4.467 -0.2037  0.7742 -1.8671
16961TIP3    H272299   2.628   1.272   4.514  0.4891  0.2249  0.8978
16962TIP3   OH272300   1.749   3.131  12.250 -0.4485  0.5277 -0.2489
16962TIP3    H172301   1.656   3.145  12.269 -0.3748  0.5790  0.0774
16962TIP3    H272302   1.780   3.216  12.220 -0.1230  0.9493  1.2348
16963TIP3   OH272303   1.595   6.225   3.780  0.3583 -0.2344 -0.1792
16963TIP3    H172304   1.578   6.135   3.811 -0.1133  0.3626  1.4299
16963TIP3    H272305   1.545   6.280   3.841 -0.5286  1.0712 -2.0035
16964TIP3   OH272306   0.160   3.066   2.232 -0.3813 -0.1543 -0.2213
16964TIP3    H172307   0.139   3.140   2.176 -1.9141  0.5740  1.2302
16964TIP3    H272308   0.097   2.998   2.207 -2.1444  0.7097  1.5493
16965TIP3   OH272309   0.764   3.000   0.160  0.1271  0.2000  0.2534
16965TIP3    H172310   0.810   3.082   0.141  2.9369 -1.3603 -0.3103
16965TIP3    H272311   0.828   2.931   0.139 -2.9486 -2.3036 -1.8934
16966TIP3   OH272312   0.332   5.037   3.298 -0.4557 -0.3267  0.1875
16966TIP3    H172313   0.384   5.106   3.257 -1.6138  0.3572 -0.1784
16966TIP3    H272314   0.311   4.978   3.227  1.1012 -1.4649  0.6216
16967TIP3   OH272315   2.693   3.665  15.904 -0.5929  0.6424 -0.2580
16967TIP3    H172316   2.697   3.572  15.926  0.4128  1.1219  1.8236
16967TIP3    H272317   2.605   3.693  15.931  0.1540  0.9187  2.0394
16968TIP3   OH272318   3.356   2.104   1.342 -0.3011  0.1289  0.7162
16968TIP3    H172319   3.348   2.189   1.299  0.4667 -0.5260 -0.8003
16968TIP3    H272320   3.448   2.099   1.368 -0.3727 -0.1907  0.9132
16969TIP3   OH272321   4.295   3.452  16.256 -0.5967 -0.2076  0.3477
16969TIP3    H172322   4.303   3.425  16.348 -0.4734  2.8809  1.3540
16969TIP3    H272323   4.351   3.390  16.209  0.3146 -1.1503  2.5056
16970TIP3   OH272324   1.908   3.071  15.926 -0.0734  0.2444 -0.1355
16970TIP3    H172325   1.939   3.084  15.836  0.7267  0.7485  0.1984
16970TIP3    H272326   1.832   3.013  15.917  1.9695 -2.5448 -0.8566
16971TIP3   OH272327   4.128   1.904  14.142 -0.3164 -0.5996  0.0715
16971TIP3    H172328   4.173   1.919  14.225  0.3958  0.4676 -0.4914
16971TIP3    H272329   4.046   1.953  14.151 -0.7232 -1.3435  0.5304
16972TIP3   OH272330   6.645   4.417  16.062  0.0052  0.9885 -0.0206
16972TIP3    H172331   6.637   4.377  16.149  1.0330 -0.1331 -0.4255
16972TIP3    H272332   6.653   4.510  16.080 -1.4317  0.9571  1.0000
16973TIP3   OH272333   0.308   4.995   0.896  0.0069 -0.4057  0.0975
16973TIP3    H172334   0.374   5.039   0.841  0.2710 -1.5893 -0.5583
16973TIP3    H272335   0.275   5.065   0.953 -0.2820  0.8848 -1.5582
16974TIP3   OH272336   2.513   1.478   3.650  0.4977  0.4167 -0.2237
16974TIP3    H172337   2.522   1.558   3.701 -0.8505  0.7869 -0.5454
16974TIP3    H272338   2.461   1.503   3.574  1.5563 -0.3676 -1.2534
16975TIP3   OH272339   5.405   6.029  13.898 -0.4283  0.0806 -0.1653
16975TIP3    H172340   5.430   6.069  13.981 -0.5632 -0.2508  0.0311
16975TIP3    H272341   5.312   6.047  13.889 -0.6045 -0.6675  0.1806
16976TIP3   OH272342   5.823   2.503  15.707 -0.2058  0.3160 -0.3604
16976TIP3    H172343   5.860   2.521  15.794  0.6359 -0.7190 -0.4819
16976TIP3    H272344   5.796   2.589  15.674 -0.5399  0.7181  0.9188
16977TIP3   OH272345   2.172   6.247  13.949 -0.4127 -0.2653 -0.1598
16977TIP3    H172346   2.162   6.341  13.964  1.0294 -0.3414  1.6757
16977TIP3    H272347   2.143   6.207  14.032 -0.0689 -1.3710 -0.5639
16978TIP3   OH272348   4.148   2.022  16.632 -0.4545  0.5258 -0.0632
16978TIP3    H172349   4.153   2.106  16.676  0.6862 -0.5273  1.9362
16978TIP3    H272350   4.195   2.035  16.550 -0.6652  1.9301  0.0162
16979TIP3   OH272351   3.925   3.222   3.767 -0.1584 -0.1166 -0.0121
16979TIP3    H172352   3.933   3.275   3.846 -0.1497 -2.9206  2.0475
16979TIP3    H272353   4.015   3.206   3.740 -0.1627  2.8558 -2.2041
16980TIP3   OH272354   1.275   0.551  12.245 -0.8091 -0.2571  0.6179
16980TIP3    H172355   1.192   0.545  12.291 -1.1600 -1.4510 -0.1356
16980TIP3    H272356   1.255   0.528  12.154  0.2652 -0.1502  0.3341
16981TIP3   OH272357   6.718   5.929   2.643 -0.2982  0.1411  0.0166
16981TIP3    H172358   6.655   5.877   2.592 -1.0387  0.5309  0.5302
16981TIP3    H272359   6.729   5.879   2.724 -1.5557  1.1033  0.8211
16982TIP3   OH272360   2.878   1.212  16.842  0.5845 -0.5611  0.2692
16982TIP3    H172361   2.962   1.197  16.798  0.2212 -1.0090 -0.3012
16982TIP3    H272362   2.824   1.138  16.814 -0.6975  0.8336 -1.1376
16983TIP3   OH272363   5.512   5.856  11.819 -0.4317  0.2292  0.2859
16983TIP3    H172364   5.528   5.779  11.764 -0.8139 -0.2101  0.7811
16983TIP3    H272365   5.590   5.910  11.808 -0.1200 -0.2733  0.0046
16984TIP3   OH272366   4.286   3.756   6.590  0.2478 -0.0393  0.0320
16984TIP3    H172367   4.194   3.731   6.602 -0.4521  1.7016 -1.3073
16984TIP3    H272368   4.322   3.756   6.679 -1.5158  0.8553  0.8106
16985TIP3   OH272369   4.143   5.012   5.316 -0.3620  0.2689  0.4323
16985TIP3    H172370   4.081   5.055   5.374  0.0048 -0.9273  1.7780
16985TIP3    H272371   4.227   5.017   5.363 -0.3137 -1.8741  0.6652
16986TIP3   OH272372   5.347   0.631  14.720  0.4105 -0.1000  0.2236
16986TIP3    H172373   5.430   0.585  14.710  0.6378  0.2213  0.5632
16986TIP3    H272374   5.366   0.699  14.786 -0.2981 -0.4521  0.7986
16987TIP3   OH272375   3.811   2.344   3.804 -0.3417 -0.5129 -0.6825
16987TIP3    H172376   3.738   2.288   3.776 -0.8694  0.2658 -0.8945
16987TIP3    H272377   3.804   2.422   3.749  0.9600 -0.6378 -1.0484
16988TIP3   OH272378   0.869   1.212  13.278  0.3862 -0.7768 -0.0553
16988TIP3    H172379   0.873   1.161  13.198  0.2668 -0.4310 -0.2829
16988TIP3    H272380   0.957   1.249  13.288 -0.2720  1.3366 -1.4543
16989TIP3   OH272381   2.194   0.407  11.807 -0.4898  0.1614  0.3355
16989TIP3    H172382   2.101   0.399  11.787 -0.5355 -1.0075  0.9103
16989TIP3    H272383   2.215   0.498  11.787 -1.3722  0.0459 -1.3613
16990TIP3   OH272384   4.185   3.924   2.271 -0.3108 -0.1661 -0.3570
16990TIP3    H172385   4.201   3.953   2.362 -0.4434 -0.5230 -0.2194
16990TIP3    H272386   4.097   3.888   2.272 -0.0927 -0.7107 -0.4927
16991TIP3   OH272387   3.413   2.086   0.985  0.2481 -0.1653  0.1965
16991TIP3    H172388   3.504   2.094   1.011 -0.1035  0.0437  1.4384
16991TIP3    H272389   3.416   2.058   0.894  1.5445  0.0290  0.1667
16992TIP3   OH272390   4.510   4.991  13.758 -0.2038 -0.0332  0.3399
16992TIP3    H172391   4.563   5.024  13.831 -0.0842  1.7922 -0.5245
16992TIP3    H272392   4.575   4.960  13.694 -0.2575  0.1298  0.2083
16993TIP3   OH272393   1.704   5.357  16.339 -0.0837  0.3840  0.1876
16993TIP3    H172394   1.741   5.398  16.260 -1.1480 -0.7331 -0.9366
16993TIP3    H272395   1.644   5.291  16.305  0.6256 -1.2339  1.9458
16994TIP3   OH272396   0.456   4.727  11.932 -0.1812 -0.4608  0.0966
16994TIP3    H172397   0.362   4.715  11.920  0.0324 -1.7585 -0.4191
16994TIP3    H272398   0.473   4.815  11.899 -0.9142 -0.9221 -1.6318
16995TIP3   OH272399   3.392   3.077  12.664 -0.1088  0.7943 -0.0674
16995TIP3    H172400   3.401   3.035  12.578  0.1458  1.1045 -0.1957
16995TIP3    H272401   3.437   3.161  12.654 -0.9263  1.2618  0.0754
16996TIP3   OH272402   1.612   1.633  10.586 -0.2724  0.2845 -0.1323
16996TIP3    H172403   1.520   1.655  10.573 -1.0796 -1.4515  1.9719
16996TIP3    H272404   1.643   1.697  10.650 -0.1186  0.6109 -0.5280
16997TIP3   OH272405   2.468   2.744   2.145 -0.0439  0.3910 -0.0072
16997TIP3    H172406   2.554   2.724   2.108 -0.5756  0.1835 -1.1759
16997TIP3    H272407   2.475   2.835   2.173 -0.0488  1.0593 -2.0112
16998TIP3   OH272408   5.859   3.162   0.487 -0.2465 -0.4684 -0.4705
16998TIP3    H172409   5.875   3.070   0.467 -1.5968 -0.8602  0.1400
16998TIP3    H272410   5.837   3.202   0.403  1.7354 -0.3414 -0.9948
16999TIP3   OH272411   5.604   5.447   1.342 -0.1730  0.4099 -0.0304
16999TIP3    H172412   5.680   5.420   1.292 -1.7160  0.2387 -2.4858
16999TIP3    H272413   5.572   5.367   1.384  0.8810  0.4625  0.9081
17000TIP3   OH272414   2.443   2.699   1.664  0.4269  0.4900 -0.5869
17000TIP3    H172415   2.455   2.783   1.620 -0.8726  1.1786  0.3411
17000TIP3    H272416   2.355   2.702   1.701 -0.2339 -1.8404 -1.7230
17001TIP3   OH272417   1.408   3.087   3.001  0.4630  0.3141  0.3429
17001TIP3    H172418   1.502   3.076   2.990  0.2042 -1.4077 -0.5901
17001TIP3    H272419   1.382   3.013   3.056 -0.6100 -0.4826 -1.1682
17002TIP3   OH272420   4.516   5.187   6.279 -0.1239  0.2926 -0.5924
17002TIP3    H172421   4.544   5.250   6.213  0.5810 -2.5390 -3.2705
17002TIP3    H272422   4.597   5.164   6.325  0.3678 -1.1415 -2.0610
17003TIP3   OH272423   2.755   3.657  11.056  0.1941 -0.3516  0.2354
17003TIP3    H172424   2.696   3.722  11.095 -0.9608 -0.7000 -0.8918
17003TIP3    H272425   2.798   3.704  10.984  1.8862  0.1118  1.4548
17004TIP3   OH272426   3.829   4.720  13.102  0.0851 -0.0203  0.4711
17004TIP3    H172427   3.846   4.812  13.080  0.6369  0.0339  1.1002
17004TIP3    H272428   3.894   4.699  13.169 -0.1065 -0.8424  0.4082
17005TIP3   OH272429   0.629   5.200  12.034  0.1359  0.4511 -0.2802
17005TIP3    H172430   0.709   5.252  12.037  1.3480 -1.2589 -0.8646
17005TIP3    H272431   0.571   5.241  12.097  2.9994 -0.6352  3.4292
17006TIP3   OH272432   2.376   6.725  16.301  1.0246  0.1201  0.1033
17006TIP3    H172433   2.456   6.766  16.333 -0.2838  1.6615  1.6124
17006TIP3    H272434   2.335   6.791  16.246  0.6696 -0.5738 -0.4827
17007TIP3   OH272435   3.936   5.094   1.367 -0.2092 -0.4388  0.4171
17007TIP3    H172436   3.932   5.088   1.271 -2.4943  0.9429  0.3385
17007TIP3    H272437   3.911   5.007   1.398 -0.6210 -0.5759 -0.2743
17008TIP3   OH272438   4.675   1.162  12.350 -0.0103 -0.1870  0.3966
17008TIP3    H172439   4.665   1.123  12.437 -0.5773  0.9552  0.8646
17008TIP3    H272440   4.770   1.167  12.337  0.1975  1.8523  2.0437
17009TIP3   OH272441   3.862   1.035  13.015  0.6483  0.4663  0.0651
17009TIP3    H172442   3.844   1.120  13.056 -0.5337  0.5779 -0.6153
17009TIP3    H272443   3.814   0.972  13.069  0.4514  0.4063 -0.1761
17010TIP3   OH272444   6.098   0.477   0.257  0.1018 -0.1661 -0.0130
17010TIP3    H172445   6.164   0.546   0.251 -0.2631  0.5726  2.7440
17010TIP3    H272446   6.014   0.524   0.263 -0.1209 -0.7155  2.3478
17011TIP3   OH272447   5.789   1.255  16.382  0.5006  0.1501 -0.2962
17011TIP3    H172448   5.733   1.292  16.314  1.6185 -0.0362 -1.3499
17011TIP3    H272449   5.821   1.173  16.346 -0.0113 -0.6835  1.0467
17012TIP3   OH272450   1.384   5.570   3.390  0.2421 -0.0075  0.1234
17012TIP3    H172451   1.407   5.643   3.448 -0.1117  0.8804 -0.8140
17012TIP3    H272452   1.365   5.497   3.449  2.5729  0.0385  1.0311
17013TIP3   OH272453   3.347   4.926  17.344  0.3176  0.1896  0.5357
17013TIP3    H172454   3.332   5.003  17.289 -1.0124 -0.7340 -0.4578
17013TIP3    H272455   3.292   4.940  17.421  1.1101  0.8314  1.0018
17014TIP3   OH272456   5.524   5.212   1.485  0.1606 -0.2417 -0.1394
17014TIP3    H172457   5.511   5.126   1.444 -0.4929 -0.9703  1.4808
17014TIP3    H272458   5.600   5.199   1.542  0.3478  0.4029 -0.2403
17015TIP3   OH272459   1.024   0.165   4.463  0.0219 -0.2951  0.0875
17015TIP3    H172460   0.948   0.108   4.475 -0.4337  0.2693 -0.1226
17015TIP3    H272461   1.099   0.110   4.488 -0.5033 -0.6372  0.9280
17016TIP3   OH272462   0.230   5.167   5.135  0.0833 -0.3417 -0.4162
17016TIP3    H172463   0.317   5.198   5.112 -1.6280  3.1426 -3.0448
17016TIP3    H272464   0.196   5.130   5.054 -1.4603 -0.0953  0.0925
17017TIP3   OH272465   2.246   4.316   4.094  0.2569 -0.2527  0.8557
17017TIP3    H172466   2.283   4.287   4.010  0.2133  1.5505  0.1858
17017TIP3    H272467   2.314   4.293   4.158  0.9678 -0.2458  0.1255
17018TIP3   OH272468   3.603   1.059  13.735 -0.3352  0.2063 -0.0355
17018TIP3    H172469   3.590   0.972  13.773  0.2123 -0.2253 -0.8099
17018TIP3    H272470   3.523   1.076  13.686  0.1361 -0.5048 -1.0903
17019TIP3   OH272471   5.455   3.710  15.914  0.5097 -0.3828 -0.3865
17019TIP3    H172472   5.514   3.660  15.858 -1.1499  0.7544 -3.4064
17019TIP3    H272473   5.378   3.653  15.923  0.1745  0.0252 -0.5912
17020TIP3   OH272474   2.663   4.663   1.124 -0.1617  0.5334 -0.4045
17020TIP3    H172475   2.648   4.573   1.152 -2.0623  1.1889  0.9546
17020TIP3    H272476   2.658   4.660   1.029 -0.4286 -0.7782 -0.3696
17021TIP3   OH272477   0.963   3.561   6.168 -0.2394  0.0013 -0.1724
17021TIP3    H172478   0.979   3.537   6.259 -2.2028  0.8207  0.4540
17021TIP3    H272479   0.959   3.657   6.169 -1.2387 -0.0147 -0.9135
17022TIP3   OH272480   2.737   1.824   5.128  0.0933 -0.2860 -0.0537
17022TIP3    H172481   2.682   1.746   5.122  0.8114 -1.0766  2.4700
17022TIP3    H272482   2.812   1.805   5.071 -1.5545  0.3057 -2.5739
17023TIP3   OH272483   1.685   2.805   3.299 -0.0456  0.9471 -0.4627
17023TIP3    H172484   1.699   2.827   3.391  0.5589 -0.8790 -0.0939
17023TIP3    H272485   1.667   2.711   3.298 -0.5985  1.0298 -2.1614
17024TIP3   OH272486   0.085   3.452  15.710 -0.4556  0.3577  0.7600
17024TIP3    H172487   0.035   3.532  15.700 -0.4736  0.5852  2.4488
17024TIP3    H272488   0.175   3.476  15.686 -0.9211  0.1364 -1.4995
17025TIP3   OH272489   0.830   0.024  13.258 -0.5017  0.4470  0.3392
17025TIP3    H172490   0.839   0.079  13.180  0.7008  0.2627  0.3237
17025TIP3    H272491   0.754   0.059  13.304 -0.7293  1.0770 -0.5030
17026TIP3   OH272492   5.172   3.773   6.785  0.0871 -0.3972 -0.0892
17026TIP3    H172493   5.207   3.736   6.867 -2.0255 -0.1986  0.9882
17026TIP3    H272494   5.154   3.865   6.806  0.3207 -0.1186 -1.0686
17027TIP3   OH272495   3.900   1.702  17.014 -0.0585  0.3600 -0.2918
17027TIP3    H172496   3.882   1.744  17.098 -6.6221 -0.0986 -0.9843
17027TIP3    H272497   3.907   1.774  16.951 -1.1400  0.6049 -0.1327
17028TIP3   OH272498   0.186   2.422  15.067  0.5876  0.7365 -0.7382
17028TIP3    H172499   0.209   2.379  15.149 -1.8496  1.7136  0.5646
17028TIP3    H272500   0.213   2.513  15.078  0.0982  0.9116 -0.9483
17029TIP3   OH272501   0.675   1.479   0.067  0.4411 -0.5819 -0.2002
17029TIP3    H172502   0.745   1.464   0.003  2.3598  0.4574  1.5614
17029TIP3    H272503   0.639   1.564   0.043  1.3902 -0.0332  0.2837
17030TIP3   OH272504   0.796   5.649  13.200  0.0779 -0.4764  0.0682
17030TIP3    H172505   0.804   5.608  13.114  1.2865  0.3598 -0.2370
17030TIP3    H272506   0.706   5.683  13.202  0.5921  1.1040 -1.6249
17031TIP3   OH272507   1.796   0.906  16.046 -0.1691  0.1423 -0.0268
17031TIP3    H172508   1.850   0.935  15.972 -1.9791 -0.0091 -1.4851
17031TIP3    H272509   1.856   0.906  16.121  2.0647 -0.7666 -1.6821
17032TIP3   OH272510   5.994   1.958  11.383 -0.3189  1.0386  0.0773
17032TIP3    H172511   6.020   1.969  11.292  0.5107  1.6205  0.3675
17032TIP3    H272512   5.910   2.004  11.391 -0.1209  1.4635 -0.2684
17033TIP3   OH272513   5.827   0.633  15.305 -0.5161 -0.3496 -0.9267
17033TIP3    H172514   5.814   0.560  15.366 -1.1989  0.2122 -0.3750
17033TIP3    H272515   5.873   0.699  15.356 -2.6434  0.8305 -0.4300
17034TIP3   OH272516   3.060   6.253  13.983  0.3413 -0.2020 -0.2130
17034TIP3    H172517   2.977   6.253  14.030 -0.6713  0.0236 -1.9096
17034TIP3    H272518   3.116   6.313  14.033 -0.9519  0.6676  0.2396
17035TIP3   OH272519   0.250   1.237  14.792  0.5024  0.2653  0.1212
17035TIP3    H172520   0.328   1.279  14.755  1.5011 -1.7025 -0.1535
17035TIP3    H272521   0.263   1.144  14.776 -0.5707 -0.3942  2.5611
17036TIP3   OH272522   0.333   4.473   4.210 -0.3174 -0.2753  0.4857
17036TIP3    H172523   0.355   4.414   4.282 -0.6009 -3.0858 -1.5376
17036TIP3    H272524   0.238   4.464   4.201 -0.3653  0.5174  0.1405
17037TIP3   OH272525   1.014   4.240  15.825  0.1910  0.3445 -0.3695
17037TIP3    H172526   0.970   4.173  15.877 -0.8394  1.4024  0.1817
17037TIP3    H272527   1.102   4.207  15.812 -0.2983 -1.1191 -0.1439
17038TIP3   OH272528   1.909   1.324  15.451 -0.2090  0.0047 -0.3155
17038TIP3    H172529   1.921   1.270  15.373 -0.1800  0.1426 -0.4087
17038TIP3    H272530   1.977   1.392  15.443 -0.5430  0.3280 -0.4409
17039TIP3   OH272531   0.744   1.424  15.333  0.2033  0.0014 -0.2428
17039TIP3    H172532   0.674   1.360  15.318  0.1906  0.2070 -1.1421
17039TIP3    H272533   0.777   1.444  15.245  1.0520  0.2886  0.1361
17040TIP3   OH272534   2.692   1.706   1.672  0.6440 -0.6432  0.5180
17040TIP3    H172535   2.701   1.614   1.647 -0.2876 -0.7173  0.4472
17040TIP3    H272536   2.668   1.705   1.764  1.7410 -0.4222  0.8322
17041TIP3   OH272537   5.097   3.981   2.285  0.5016 -0.3769  0.0103
17041TIP3    H172538   5.080   4.021   2.199 -0.3930 -0.1505  0.2789
17041TIP3    H272539   5.171   3.923   2.270 -0.9552 -1.9911 -1.4423
17042TIP3   OH272540   1.014   2.860   0.088  0.4446  0.6485  0.0786
17042TIP3    H172541   1.041   2.915   0.015  0.6766 -0.6807 -0.8686
17042TIP3    H272542   1.038   2.911   0.166  3.2188  0.7302 -0.7113
17043TIP3   OH272543   0.636   1.443  11.426 -0.0712  0.4325  0.1959
17043TIP3    H172544   0.671   1.509  11.486 -1.1587  1.2473 -0.0381
17043TIP3    H272545   0.654   1.478  11.339 -1.0784  0.6758  0.0711
17044TIP3   OH272546   3.590   1.478  17.332  1.1119  0.1349  0.3549
17044TIP3    H172547   3.675   1.460  17.294  0.4496 -1.1985 -0.5655
17044TIP3    H272548   3.528   1.429  17.278 -0.2535  1.0979  0.9714
17045TIP3   OH272549   5.737   1.332  16.735 -0.1843  0.6669  0.0130
17045TIP3    H172550   5.787   1.251  16.738  0.3512  0.8792 -1.7580
17045TIP3    H272551   5.804   1.401  16.736 -0.4533  0.9807 -1.4601
17046TIP3   OH272552   5.714   5.110   4.146 -0.1019 -0.0698 -0.2431
17046TIP3    H172553   5.751   5.040   4.200  1.3354  0.7122 -0.1682
17046TIP3    H272554   5.667   5.166   4.207 -1.0747 -0.8347 -0.2721
17047TIP3   OH272555   5.415   6.672  15.819  0.3773  0.7352  0.0939
17047TIP3    H172556   5.425   6.737  15.888  0.7068  0.5806  0.1977
17047TIP3    H272557   5.400   6.722  15.739  0.9461  0.9558  0.1192
17048TIP3   OH272558   0.792   0.120   1.434  0.1030  0.3757 -0.2230
17048TIP3    H172559   0.708   0.165   1.438 -0.1704 -0.1731  0.1734
17048TIP3    H272560   0.854   0.184   1.470 -0.0891  0.8872 -0.7729
17049TIP3   OH272561   2.822   3.762  12.449 -0.3087 -0.0959 -0.0817
17049TIP3    H172562   2.776   3.680  12.467 -0.4730  0.4310  2.0930
17049TIP3    H272563   2.822   3.768  12.353 -4.5755 -0.2675 -0.2768
17050TIP3   OH272564   0.644   5.106  12.728 -0.0130 -0.4367 -0.2988
17050TIP3    H172565   0.583   5.036  12.704  0.5658 -1.2812  0.5988
17050TIP3    H272566   0.634   5.116  12.822  0.4506  0.1777 -0.3052
17051TIP3   OH272567   0.704   0.832  14.340  0.1056 -0.5702 -0.1023
17051TIP3    H172568   0.750   0.904  14.382 -2.7627 -0.0334  2.4205
17051TIP3    H272569   0.719   0.757  14.397  0.4794 -1.2115 -1.0160
17052TIP3   OH272570   2.353   4.752  15.794  0.2707 -0.1529 -0.0953
17052TIP3    H172571   2.405   4.779  15.870  0.1717 -2.0320  0.7103
17052TIP3    H272572   2.410   4.768  15.719  1.6265 -1.1499  0.6691
17053TIP3   OH272573   3.864   6.027   4.931  0.0054  0.2665  0.2314
17053TIP3    H172574   3.837   6.118   4.934 -0.3524  0.1851 -0.5327
17053TIP3    H272575   3.786   5.977   4.956  0.5013  0.2029  1.7915
17054TIP3   OH272576   3.828   2.795  14.979  0.0230  0.3660  0.3431
17054TIP3    H172577   3.895   2.857  15.007 -0.5314  0.6926  0.9679
17054TIP3    H272578   3.839   2.719  15.036 -0.9230  0.9188  1.3087
17055TIP3   OH272579   4.280   2.623   3.290  0.2876  0.4730 -0.4177
17055TIP3    H172580   4.248   2.538   3.261  0.3900  0.6409 -1.0437
17055TIP3    H272581   4.289   2.674   3.209 -0.2255  1.2338 -0.0075
17056TIP3   OH272582   3.162   4.878  11.253  0.4858 -0.4373  1.4483
17056TIP3    H172583   3.171   4.881  11.349  0.9402 -1.5020  1.4515
17056TIP3    H272584   3.252   4.868  11.221  0.3067 -0.3600  0.9179
17057TIP3   OH272585   6.600   2.328  13.897  0.1957  0.6505 -0.0529
17057TIP3    H172586   6.576   2.420  13.912 -0.1214  0.6009 -0.2578
17057TIP3    H272587   6.651   2.304  13.974  1.2574  1.3433 -0.5064
17058TIP3   OH272588   3.727   1.297   1.941  0.0906  0.2075  0.1465
17058TIP3    H172589   3.739   1.379   1.989 -0.3188  1.3976 -1.6969
17058TIP3    H272590   3.687   1.323   1.858  0.1296 -1.8466 -0.5736
17059TIP3   OH272591   1.306   2.255  15.221 -0.3167  0.0661 -0.0545
17059TIP3    H172592   1.271   2.313  15.288  2.0062  1.1469  0.3392
17059TIP3    H272593   1.233   2.241  15.161 -1.1777  3.0029  0.1142
17060TIP3   OH272594   2.465   4.071  10.975 -0.1404  0.4961 -0.0291
17060TIP3    H172595   2.421   4.001  10.928  0.6826 -0.0606  0.0117
17060TIP3    H272596   2.516   4.118  10.908  0.3412  0.2413  0.1539
17061TIP3   OH272597   4.234   2.200  12.600  0.0639 -0.0513 -0.3733
17061TIP3    H172598   4.267   2.289  12.617  0.4440 -0.2043 -0.3102
17061TIP3    H272599   4.293   2.143  12.649  0.1628 -0.3803 -0.8808
17062TIP3   OH272600   4.713   4.583  16.942  0.0566 -0.2970 -0.4066
17062TIP3    H172601   4.750   4.638  16.872  1.4088  0.1896  0.6533
17062TIP3    H272602   4.779   4.584  17.011 -0.7535 -1.6946  0.4393
17063TIP3   OH272603   1.643   2.154   1.349  0.2069 -0.1213  0.0549
17063TIP3    H172604   1.609   2.166   1.437 -2.3550 -2.3003 -0.5094
17063TIP3    H272605   1.581   2.202   1.293  3.2284  3.5261 -0.5789
17064TIP3   OH272606   3.838   2.089  17.240 -0.4983  0.7047 -0.5018
17064TIP3    H172607   3.902   2.146  17.282 -0.3934 -0.0693  0.4064
17064TIP3    H272608   3.887   2.046  17.169  0.7501 -1.7429  1.6739
17065TIP3   OH272609   0.008   0.159  14.076 -0.1735 -0.1143 -0.1747
17065TIP3    H172610   0.074   0.090  14.078  0.2407  0.2718  2.2849
17065TIP3    H272611   0.006   0.188  13.984  0.8545 -2.1931 -0.9106
17066TIP3   OH272612   0.873   5.064   0.461  0.2843  0.0980  0.5890
17066TIP3    H172613   0.837   5.049   0.373  1.4833 -2.4425  0.4433
17066TIP3    H272614   0.966   5.045   0.452  0.7880  1.6637  2.0434
17067TIP3   OH272615   2.988   1.642   6.695 -0.0179  0.4837 -0.2375
17067TIP3    H172616   2.915   1.596   6.652  0.2197  0.9393 -1.1632
17067TIP3    H272617   3.011   1.587   6.769 -0.8632 -0.0138 -0.3314
17068TIP3   OH272618   6.361   1.009   3.513  0.0030  0.4867 -0.3472
17068TIP3    H172619   6.438   1.045   3.558 -1.7945  3.2571  0.8195
17068TIP3    H272620   6.323   0.948   3.576  0.5347  0.0502 -0.4371
17069TIP3   OH272621   3.123   4.717   5.294 -0.2836 -0.0365  0.0269
17069TIP3    H172622   3.129   4.666   5.375 -0.3136 -2.0499 -1.1633
17069TIP3    H272623   3.197   4.778   5.298  0.6446 -1.1821  0.8615
17070TIP3   OH272624   3.050   5.959   1.488 -0.6489 -0.2052  0.0457
17070TIP3    H172625   2.967   6.000   1.464 -0.8095 -0.1267  0.7217
17070TIP3    H272626   3.063   5.982   1.580 -0.8211 -1.7987  0.4964
17071TIP3   OH272627   1.637   3.620  11.542 -0.0063  0.6066 -0.3886
17071TIP3    H172628   1.707   3.566  11.505 -1.1681  0.0718 -1.9117
17071TIP3    H272629   1.681   3.700  11.571  1.3708 -0.1183 -0.3971
17072TIP3   OH272630   1.292   2.085  13.526  0.0979 -1.0296 -0.5647
17072TIP3    H172631   1.315   1.998  13.556 -0.0498 -0.9056 -0.0902
17072TIP3    H272632   1.296   2.140  13.604 -2.2689 -1.0890 -0.3242
17073TIP3   OH272633   4.099   5.873   4.638  0.0371 -0.1532  0.6411
17073TIP3    H172634   4.025   5.832   4.594  0.7389 -0.8245  0.0515
17073TIP3    H272635   4.153   5.908   4.568  0.2796  0.3498  1.0657
17074TIP3   OH272636   6.670   0.669  13.524 -0.0927 -0.2171  0.1947
17074TIP3    H172637   6.668   0.727  13.600 -1.8020 -0.1550  0.1500
17074TIP3    H272638   6.656   0.582  13.559 -1.7505 -0.0935 -0.0827
17075TIP3   OH272639   6.389   5.605  16.354  0.2408  0.0646 -0.1207
17075TIP3    H172640   6.438   5.686  16.337  0.3820 -0.1092 -0.5608
17075TIP3    H272641   6.300   5.634  16.372  0.7384  0.4823  1.8851
17076TIP3   OH272642   4.899   1.814   4.871  0.6567 -0.5227 -0.3575
17076TIP3    H172643   4.992   1.796   4.884  1.2314  1.8705 -0.6581
17076TIP3    H272644   4.874   1.867   4.947  0.0953  0.5628 -1.2626
17077TIP3   OH272645   0.568   2.726  10.650  0.0377 -0.0685  0.2224
17077TIP3    H172646   0.577   2.818  10.627 -0.8563  0.3575  1.5177
17077TIP3    H272647   0.644   2.707  10.705 -0.8086  0.4624  1.6274
17078TIP3   OH272648   2.502   2.383   2.045  0.2778  0.3046 -0.1327
17078TIP3    H172649   2.498   2.424   1.958 -0.9855  0.8832  0.1814
17078TIP3    H272650   2.575   2.427   2.089  0.0697  0.9720 -0.4339
17079TIP3   OH272651   3.280   5.212   5.842 -0.5216  0.1607  0.5822
17079TIP3    H172652   3.259   5.276   5.774 -0.7010 -0.5577 -0.0534
17079TIP3    H272653   3.198   5.164   5.856  0.6108 -2.9829 -2.2435
17080TIP3   OH272654   0.762   2.065  13.520 -1.1126  0.0798  0.0036
17080TIP3    H172655   0.839   2.093  13.470 -1.1219  0.6600  0.3130
17080TIP3    H272656   0.793   1.993  13.574 -0.6273  0.7012  0.5767
17081TIP3   OH272657   3.546   6.676  11.671 -0.5303  0.6744  0.4658
17081TIP3    H172658   3.609   6.673  11.600 -0.5647  1.3631  0.4024
17081TIP3    H272659   3.598   6.703  11.748 -0.5809  0.3755  0.6077
17082TIP3   OH272660   5.381   2.529  11.792 -0.1198  0.0843 -0.2198
17082TIP3    H172661   5.469   2.516  11.829 -0.8360 -0.8450  1.2740
17082TIP3    H272662   5.330   2.455  11.826 -1.8839  1.4691  0.2960
17083TIP3   OH272663   6.572   5.509  12.391 -0.1505  0.3442 -0.5015
17083TIP3    H172664   6.594   5.465  12.473  2.1442 -0.2762 -1.3708
17083TIP3    H272665   6.553   5.600  12.417  0.2691  0.0997  0.7356
17084TIP3   OH272666   5.801   4.424  16.303 -0.7615 -0.6665 -0.2830
17084TIP3    H172667   5.868   4.462  16.247 -0.7503 -0.4771 -0.1395
17084TIP3    H272668   5.727   4.408  16.244 -0.0787 -2.2817 -0.7790
17085TIP3   OH272669   2.078   2.856   1.707  0.0532  0.4331  0.5877
17085TIP3    H172670   2.021   2.893   1.773  0.0499  0.7650  0.4005
17085TIP3    H272671   2.147   2.812   1.757  0.3791  1.1860  0.8172
17086TIP3   OH272672   1.404   0.059  11.784  0.1415  0.1957  0.0939
17086TIP3    H172673   1.351   0.013  11.849 -1.1032  0.3207 -0.7963
17086TIP3    H272674   1.407   0.150  11.815  0.8373 -0.0527  0.7628
17087TIP3   OH272675   2.485   1.574  14.299 -0.1688 -0.3055  0.1041
17087TIP3    H172676   2.412   1.516  14.279 -0.1001 -0.5721  0.6002
17087TIP3    H272677   2.519   1.601  14.214  0.4543 -1.8351 -0.1627
17088TIP3   OH272678   6.137   6.510   2.135  0.1448 -0.7940 -0.0397
17088TIP3    H172679   6.151   6.583   2.195 -1.3827 -0.9240  0.5123
17088TIP3    H272680   6.222   6.466   2.131  1.1049  0.9948 -0.4034
17089TIP3   OH272681   6.615   4.633  15.128  0.2361 -0.0371  0.0517
17089TIP3    H172682   6.580   4.711  15.171 -0.3298  1.0198 -2.1550
17089TIP3    H272683   6.538   4.588  15.094  0.6490 -0.8666  0.1976
17090TIP3   OH272684   2.066   2.328   2.183  0.0416  0.5187  0.3874
17090TIP3    H172685   2.064   2.256   2.120  0.5551  0.7071  0.1491
17090TIP3    H272686   2.030   2.291   2.263 -3.3476  1.0167 -0.7340
17091TIP3   OH272687   6.561   2.620   4.733 -0.1646  0.8865  0.6448
17091TIP3    H172688   6.465   2.616   4.738 -0.1163  0.0698  0.9272
17091TIP3    H272689   6.589   2.633   4.823  0.0817 -0.9266  0.8472
17092TIP3   OH272690   1.160   5.482   3.697  0.3978 -0.3577 -0.3218
17092TIP3    H172691   1.137   5.575   3.688  0.2779 -0.2887  0.6375
17092TIP3    H272692   1.252   5.482   3.722 -0.2638 -0.3420  2.4609
17093TIP3   OH272693   6.074   1.450  14.127  0.9217  0.0616 -0.1293
17093TIP3    H172694   6.146   1.480  14.183  3.2644 -1.3210 -2.1589
17093TIP3    H272695   6.050   1.527  14.076 -0.1160  0.9083  1.5494
17094TIP3   OH272696   4.761   5.870  11.935  0.4389  0.2674 -0.4895
17094TIP3    H172697   4.763   5.823  11.852  3.4622 -1.6728  0.5277
17094TIP3    H272698   4.676   5.848  11.973 -0.1018 -0.5629 -2.0854
17095TIP3   OH272699   3.126   0.987   0.541 -0.4223  0.1994  1.1118
17095TIP3    H172700   3.094   0.896   0.544 -1.3721  0.5369  1.8820
17095TIP3    H272701   3.220   0.980   0.554 -0.2568 -0.7805 -0.3649
17096TIP3   OH272702   4.150   0.343  12.472 -0.0408 -0.4570 -0.6284
17096TIP3    H172703   4.136   0.430  12.434  1.0841  0.7453  1.5238
17096TIP3    H272704   4.119   0.352  12.562  0.2337 -2.2733 -0.3249
17097TIP3   OH272705   6.629   4.902   0.114 -0.1745  0.2496 -0.2606
17097TIP3    H172706   6.663   4.856   0.037 -0.3744 -1.2853  0.5289
17097TIP3    H272707   6.692   4.972   0.130  1.3995 -1.1301 -0.1662
17098TIP3   OH272708   1.033   2.541   0.515  0.4511  0.8035  0.0714
17098TIP3    H172709   0.989   2.466   0.476 -1.5521  1.2176  1.3545
17098TIP3    H272710   1.073   2.508   0.595 -0.8740  1.1451  0.9097
17099TIP3   OH272711   5.437   3.575  12.081 -0.7616  0.3159 -0.4032
17099TIP3    H172712   5.351   3.544  12.053 -0.8554  0.3434 -0.1538
17099TIP3    H272713   5.419   3.623  12.162 -0.6787  1.4076 -1.0142
17100TIP3   OH272714   6.673   4.488   6.486 -0.8359  0.4246 -0.4496
17100TIP3    H172715   6.745   4.431   6.458 -1.1785  0.8746 -2.4417
17100TIP3    H272716   6.711   4.576   6.489 -0.9224  0.4464  0.1015
17101TIP3   OH272717   0.678   5.797  12.955 -0.2182  0.0888 -0.3309
17101TIP3    H172718   0.595   5.803  13.002 -0.2633 -2.5543  0.1322
17101TIP3    H272719   0.705   5.705  12.966  1.9146  0.4332 -1.9042
17102TIP3   OH272720   4.235   0.127   4.876 -0.3562  0.5692  0.3786
17102TIP3    H172721   4.245   0.059   4.942 -0.7315  0.9273  0.8157
17102TIP3    H272722   4.196   0.201   4.923  1.6307  1.7267  0.3402
17103TIP3   OH272723   4.324   6.432  14.943  0.4137  0.6211  0.3172
17103TIP3    H172724   4.305   6.443  14.850 -0.5192  3.0049  0.7370
17103TIP3    H272725   4.367   6.513  14.969  0.2626  0.1777  2.0786
17104TIP3   OH272726   3.093   3.893   3.854 -0.1103  0.2147 -0.3327
17104TIP3    H172727   3.108   3.814   3.802 -0.6649  0.1328 -0.3772
17104TIP3    H272728   3.025   3.867   3.916  0.5831  0.2923  0.4780
17105TIP3   OH272729   4.177   5.321  15.362  0.1647 -0.0636 -0.4797
17105TIP3    H172730   4.142   5.240  15.400 -0.2221  0.6485  0.7223
17105TIP3    H272731   4.241   5.291  15.297  0.6540 -1.3383  0.5374
17106TIP3   OH272732   4.653   0.802  14.936 -0.6735 -0.1358  0.1631
17106TIP3    H172733   4.654   0.850  15.019  0.7008  1.1802 -0.5623
17106TIP3    H272734   4.648   0.710  14.961 -0.7672  0.2699  1.6949
17107TIP3   OH272735   5.563   0.054  14.996  0.7999 -0.0782  0.3728
17107TIP3    H172736   5.574   0.006  14.914  0.5320  1.6857 -0.7318
17107TIP3    H272737   5.508  -0.003  15.050  1.0475 -1.2962 -0.6296
17108TIP3   OH272738   1.110   2.147  15.071  0.0710 -0.2659  0.4470
17108TIP3    H172739   1.161   2.066  15.062 -0.1049 -0.2413 -1.1587
17108TIP3    H272740   1.021   2.118  15.090  0.1412 -0.4205  0.5413
17109TIP3   OH272741   6.438   0.155  13.699 -0.4464 -0.3774 -0.2237
17109TIP3    H172742   6.482   0.070  13.694 -1.3033 -0.7910 -0.9991
17109TIP3    H272743   6.378   0.146  13.774 -1.1064 -0.7505 -0.7816
17110TIP3   OH272744   3.153   4.363   4.171 -0.0739 -0.2871 -1.1010
17110TIP3    H172745   3.096   4.352   4.247  0.0772 -2.5567 -1.2411
17110TIP3    H272746   3.209   4.286   4.172  2.7346  1.5797 -1.2366
17111TIP3   OH272747   3.888   4.707   3.849 -0.3552 -0.1239 -0.0517
17111TIP3    H172748   3.931   4.627   3.819  0.6783  0.0470  0.9207
17111TIP3    H272749   3.833   4.678   3.922  1.7357  0.3278  1.8104
17112TIP3   OH272750   5.903   2.875   0.505 -0.0360 -0.6304  0.1334
17112TIP3    H172751   5.834   2.810   0.499 -0.5711  0.0773 -2.7412
17112TIP3    H272752   5.984   2.824   0.502 -0.3673 -1.3674  2.1491
17113TIP3   OH272753   1.129   4.745  12.674  0.2164 -0.6032  0.3917
17113TIP3    H172754   1.044   4.719  12.709 -0.8681 -1.3533 -2.4744
17113TIP3    H272755   1.127   4.841  12.674  0.0828 -0.5851  1.8238
17114TIP3   OH272756   6.026   6.117  17.215  0.1970 -0.2193 -0.6802
17114TIP3    H172757   6.077   6.050  17.170  0.9328  0.5060 -0.9730
17114TIP3    H272758   5.976   6.070  17.281  2.2782 -0.8210  0.5545
17115TIP3   OH272759   3.038   4.616   1.852  0.0890 -0.4094  0.4143
17115TIP3    H172760   3.033   4.553   1.780 -1.9447 -0.6035  0.6445
17115TIP3    H272761   3.116   4.592   1.901  1.8806  0.1004 -2.0256
17116TIP3   OH272762   4.205   2.595   0.585  0.1027 -0.1012  0.1260
17116TIP3    H172763   4.125   2.613   0.634  0.2388 -0.3607  0.4446
17116TIP3    H272764   4.230   2.680   0.548 -0.9693 -0.2355 -0.9712
17117TIP3   OH272765   2.472   1.179   6.525  0.3842  0.1002  0.7334
17117TIP3    H172766   2.420   1.098   6.527  0.9917 -0.2805  1.3063
17117TIP3    H272767   2.540   1.166   6.590  1.0233  0.7281  0.2088
17118TIP3   OH272768   2.884   6.299   0.470 -0.1825 -0.0100 -0.0511
17118TIP3    H172769   2.898   6.362   0.540  1.6205 -0.9164  0.4512
17118TIP3    H272770   2.936   6.331   0.397  1.3022 -1.2182  0.4331
17119TIP3   OH272771   0.038   4.686   4.825  0.1657  0.2867  0.5926
17119TIP3    H172772   0.056   4.593   4.842  0.4534  0.0783 -0.7267
17119TIP3    H272773  -0.055   4.688   4.802  0.6323 -0.0236 -1.4659
17120TIP3   OH272774   4.273   0.693   0.353 -0.5073  0.5362  0.4757
17120TIP3    H172775   4.219   0.672   0.428  0.1517  0.6333  0.9888
17120TIP3    H272776   4.293   0.608   0.314 -0.4460  0.4467  0.6994
17121TIP3   OH272777   5.112   1.044  13.443 -0.1160 -0.1691 -0.0078
17121TIP3    H172778   5.127   1.122  13.496  1.4332 -0.7337  0.4526
17121TIP3    H272779   5.032   1.063  13.394  1.2867  2.5502 -1.4760
17122TIP3   OH272780   3.152   0.005  11.053  0.2776  0.4453  1.3133
17122TIP3    H172781   3.164   0.087  11.099 -3.6988  1.1939  1.3893
17122TIP3    H272782   3.205  -0.059  11.102  1.4032  2.4197  2.7992
17123TIP3   OH272783   6.354   0.549   1.881 -0.3735  0.3905  0.7284
17123TIP3    H172784   6.312   0.496   1.813 -0.9810 -0.4710  1.7399
17123TIP3    H272785   6.325   0.638   1.864  0.7444  0.4532 -1.0665
17124TIP3   OH272786   4.103   2.385   0.950  0.0519 -0.3731  0.3376
17124TIP3    H172787   4.160   2.336   1.009 -0.8469 -0.5081  1.1227
17124TIP3    H272788   4.066   2.319   0.892 -1.3801 -0.6991  1.5801
17125TIP3   OH272789   1.984   5.971   0.433 -1.0121  0.1455  0.4379
17125TIP3    H172790   2.023   6.045   0.480  0.3677  0.3446 -0.9204
17125TIP3    H272791   2.031   5.894   0.466  0.7784  0.4012 -1.3086
17126TIP3   OH272792   5.483   4.203   3.616  0.3845  0.1920 -0.0056
17126TIP3    H172793   5.480   4.174   3.707 -0.4779  0.7132  0.1402
17126TIP3    H272794   5.465   4.297   3.620  0.7108  0.2908 -0.6877
17127TIP3   OH272795   1.811   5.511   2.938  0.5347  0.0874 -0.3543
17127TIP3    H172796   1.722   5.508   2.973  0.0796  1.7138 -1.2657
17127TIP3    H272797   1.853   5.582   2.986  0.7106  0.6242 -1.2877
17128TIP3   OH272798   5.751   0.829   0.003 -0.7781 -0.3125  0.5491
17128TIP3    H172799   5.833   0.833  -0.045 -1.3734 -0.8845 -0.5326
17128TIP3    H272800   5.758   0.751   0.058 -1.5898 -1.8889 -1.4629
17129TIP3   OH272801   2.330   5.277   2.931  0.1886 -0.6958 -0.4248
17129TIP3    H172802   2.374   5.203   2.973 -0.4269 -1.1329 -0.5443
17129TIP3    H272803   2.392   5.306   2.864  0.8123 -0.5331  0.1989
17130TIP3   OH272804   3.243   1.015   0.212  0.5131 -0.0532 -0.1041
17130TIP3    H172805   3.203   0.941   0.258 -0.0370 -0.9126 -1.8508
17130TIP3    H272806   3.285   0.975   0.136 -0.0538  1.4482 -1.2635
17131TIP3   OH272807   3.974   0.773  16.949 -0.2874  0.6146  0.5511
17131TIP3    H172808   3.895   0.770  17.004 -0.0274 -2.4760  0.9438
17131TIP3    H272809   4.046   0.753  17.009  0.0365 -2.5349 -0.6764
17132TIP3   OH272810   2.704   4.129   5.154  0.5172  0.0026 -0.5325
17132TIP3    H172811   2.674   4.174   5.233  0.7404  1.1391 -1.0856
17132TIP3    H272812   2.796   4.152   5.146  0.2876  0.6189 -1.5970
17133TIP3   OH272813   5.910   4.365  14.278 -0.2528 -0.4931  0.1263
17133TIP3    H172814   5.961   4.445  14.292 -0.7209 -0.1526 -0.0937
17133TIP3    H272815   5.821   4.388  14.304 -0.3523 -1.0026  0.2454
17134TIP3   OH272816   2.267   4.111  14.310  0.2920  0.1586  0.6896
17134TIP3    H172817   2.199   4.044  14.316  1.6777 -1.5387 -1.0781
17134TIP3    H272818   2.293   4.128  14.400  0.1800 -2.0455  1.1771
17135TIP3   OH272819   5.399   2.159   3.947 -0.1029 -0.3655 -0.5068
17135TIP3    H172820   5.473   2.215   3.922  1.3756 -1.2773  1.5572
17135TIP3    H272821   5.431   2.109   4.022 -2.3484 -1.8910 -0.4746
17136TIP3   OH272822   4.545   5.079  14.712 -0.2773 -0.1736 -0.0747
17136TIP3    H172823   4.503   5.131  14.644 -0.4258  0.1656  0.2791
17136TIP3    H272824   4.524   4.988  14.689 -1.6010  0.0102  0.3679
17137TIP3   OH272825   4.648   0.965   3.496 -0.0967  0.3477 -0.1710
17137TIP3    H172826   4.568   1.017   3.501  0.2366  0.7794  1.3454
17137TIP3    H272827   4.627   0.885   3.545  0.2199  0.2138 -0.2538
17138TIP3   OH272828   3.388   5.949  14.939  0.5884  0.1338 -0.5212
17138TIP3    H172829   3.460   5.886  14.942  0.2293 -0.3082 -0.9714
17138TIP3    H272830   3.312   5.900  14.971  0.3490  0.4022 -0.6701
17139TIP3   OH272831   0.855   3.838  16.842 -0.5764  0.1596 -0.3326
17139TIP3    H172832   0.818   3.768  16.789 -0.5354  0.1792 -0.3880
17139TIP3    H272833   0.902   3.792  16.912  0.4978  0.0874 -1.0607
17140TIP3   OH272834   4.070   6.739   1.311  0.3908  0.9789 -0.3136
17140TIP3    H172835   4.057   6.651   1.277  2.1181  0.5157  0.1136
17140TIP3    H272836   4.043   6.734   1.402  0.9842  0.7290 -0.1446
17141TIP3   OH272837   3.766   4.934  17.030  0.0342 -0.0922  0.4384
17141TIP3    H172838   3.763   4.992  16.954  0.5098  0.8736  1.1191
17141TIP3    H272839   3.698   4.968  17.089 -0.7833 -1.2394  0.1769
17142TIP3   OH272840   2.890   5.060  12.536 -0.2257  0.2985 -0.5556
17142TIP3    H172841   2.923   5.124  12.473  0.6190 -0.0532 -0.4823
17142TIP3    H272842   2.936   4.979  12.515 -1.2467 -0.2872 -0.6073
17143TIP3   OH272843   2.569   3.642  13.347  0.0259 -0.3703  0.2521
17143TIP3    H172844   2.648   3.662  13.296  0.1844  0.6935  0.8869
17143TIP3    H272845   2.594   3.566  13.400  0.5585 -0.1616  0.3088
17144TIP3   OH272846   4.642   4.222  12.288  0.2913  1.0267 -0.5733
17144TIP3    H172847   4.564   4.262  12.250  0.0499  0.8940 -0.2198
17144TIP3    H272848   4.707   4.291  12.287  0.5584  0.7862 -2.0278
17145TIP3   OH272849   2.766   2.794  12.425 -0.1533 -0.4272 -0.5120
17145TIP3    H172850   2.699   2.789  12.356 -2.0289 -0.8071  1.2542
17145TIP3    H272851   2.732   2.738  12.495  2.9674 -2.2515 -0.2596
17146TIP3   OH272852   6.461   3.928  14.029 -0.0705 -0.0625 -0.1817
17146TIP3    H172853   6.376   3.972  14.039  0.5476  1.0975  0.0470
17146TIP3    H272854   6.450   3.873  13.951 -0.6228  1.0742 -0.9271
17147TIP3   OH272855   4.665   1.645   2.729  0.0707  0.4782  0.0272
17147TIP3    H172856   4.570   1.642   2.718 -0.1517  1.9094  1.3079
17147TIP3    H272857   4.679   1.702   2.804  2.0425  1.8116 -1.2751
17148TIP3   OH272858   4.342   4.538   0.036  0.0187 -0.5574 -0.3886
17148TIP3    H172859   4.420   4.483   0.044 -1.2349 -2.4548 -0.4675
17148TIP3    H272860   4.310   4.523  -0.053  0.0661  0.9556 -0.6905
17149TIP3   OH272861   5.513   1.446  15.407  0.3578 -0.3571  0.0183
17149TIP3    H172862   5.533   1.408  15.322  1.1822  1.4655 -0.6467
17149TIP3    H272863   5.427   1.409  15.430  0.1132 -0.8669 -1.5968
17150TIP3   OH272864   1.569   0.017  13.265 -0.3318 -0.4944  0.3069
17150TIP3    H172865   1.551  -0.068  13.225 -0.6002 -0.1622 -0.2887
17150TIP3    H272866   1.585   0.076  13.191  1.7597 -0.4324  0.7471
17151TIP3   OH272867   2.129   1.215   2.446  0.0791  0.1662  0.5778
17151TIP3    H172868   2.166   1.144   2.498  0.9253 -0.6284 -1.0206
17151TIP3    H272869   2.169   1.294   2.480  1.5492 -0.4628  0.3644
17152TIP3   OH272870   1.296   6.421  17.296 -0.1591 -0.5557  0.0622
17152TIP3    H172871   1.381   6.414  17.339 -0.5232 -1.2019  0.6869
17152TIP3    H272872   1.293   6.347  17.235 -0.3690 -0.6869  0.2274
17153TIP3   OH272873   3.209   1.781   3.305  0.7083 -0.1490  0.6862
17153TIP3    H172874   3.157   1.740   3.236 -0.1826  1.9943  0.0155
17153TIP3    H272875   3.207   1.874   3.285  0.7308  0.5260  3.4050
17154TIP3   OH272876   3.093   3.594   1.722 -0.2201 -0.1112  0.4275
17154TIP3    H172877   3.167   3.602   1.783  0.4753 -3.4378  0.1775
17154TIP3    H272878   3.131   3.605   1.635 -0.0337 -1.4064  0.3228
17155TIP3   OH272879   0.128   4.849  13.101 -0.2980 -0.1146  0.8032
17155TIP3    H172880   0.168   4.880  13.020  0.6204  1.7570  1.8894
17155TIP3    H272881   0.034   4.850  13.084 -0.2635  2.4305  0.4109
17156TIP3   OH272882   1.336   0.277  11.967  0.4986 -0.2501 -0.1948
17156TIP3    H172883   1.426   0.308  11.964  0.8921 -0.8337  2.8852
17156TIP3    H272884   1.284   0.357  11.975  0.8308  0.0188 -0.6819
17157TIP3   OH272885   2.331   3.046   1.850 -0.0267 -0.5016  0.2124
17157TIP3    H172886   2.262   2.997   1.896  0.4079 -0.9816  0.3715
17157TIP3    H272887   2.366   3.105   1.917 -0.8995  0.4196 -0.1177
17158TIP3   OH272888   5.465   3.801   1.861 -0.4447  0.2454  0.3040
17158TIP3    H172889   5.480   3.712   1.893 -0.3778 -0.2167 -0.9578
17158TIP3    H272890   5.466   3.855   1.940  1.7145 -0.5711  0.9101
17159TIP3   OH272891   6.193   1.518  16.797  0.0706 -0.2583 -0.6295
17159TIP3    H172892   6.229   1.599  16.832 -0.4669 -0.1075 -0.4107
17159TIP3    H272893   6.269   1.460  16.787  0.2831 -0.1977  0.4831
17160TIP3   OH272894   6.125   0.427  14.520  0.1454 -0.1239 -0.0440
17160TIP3    H172895   6.067   0.497  14.491 -0.6178 -1.2057 -1.2269
17160TIP3    H272896   6.109   0.419  14.614 -0.3225  0.7624 -0.0441
17161TIP3   OH272897   0.959   1.773  17.379 -0.7485  0.3624 -0.6864
17161TIP3    H172898   0.940   1.842  17.442  2.3330  0.4644  0.3243
17161TIP3    H272899   0.949   1.816  17.293  0.5724  1.9747 -0.0925
17162TIP3   OH272900   4.113   4.895  14.511 -0.0407  0.7050  0.1245
17162TIP3    H172901   4.112   4.915  14.418  0.2755  1.3657  0.2630
17162TIP3    H272902   4.024   4.916  14.541 -0.1574  0.4442 -0.0350
17163TIP3   OH272903   0.604   0.967  12.152 -0.4067 -0.0590 -0.2293
17163TIP3    H172904   0.533   1.015  12.108 -1.6589 -1.4700  0.1772
17163TIP3    H272905   0.622   0.893  12.094 -0.7489 -0.8682  0.6733
17164TIP3   OH272906   3.445   5.936   1.481 -0.3755  0.1973 -0.2328
17164TIP3    H172907   3.372   5.876   1.463 -0.3949 -0.1629  0.9453
17164TIP3    H272908   3.523   5.880   1.473 -0.3615  0.1241  0.3847
17165TIP3   OH272909   4.751   2.899  12.682 -0.7178  0.0759 -0.1651
17165TIP3    H172910   4.815   2.844  12.726 -1.0271  2.0370  3.1099
17165TIP3    H272911   4.668   2.852  12.690 -0.3182 -0.8944 -1.3659
17166TIP3   OH272912   3.676   0.830  16.466 -0.7262  1.0743  0.0450
17166TIP3    H172913   3.690   0.921  16.494 -0.1562  0.9543  0.1576
17166TIP3    H272914   3.684   0.779  16.546 -0.3787  0.8560 -0.1301
17167TIP3   OH272915   3.034   0.540   5.879 -0.4057 -0.2181 -0.6400
17167TIP3    H172916   3.029   0.598   5.803 -0.3464 -0.5928 -0.9365
17167TIP3    H272917   3.107   0.573   5.930  0.3982 -0.7536 -1.4219
17168TIP3   OH272918   5.387   0.287  12.709 -0.1443 -0.6079 -0.1882
17168TIP3    H172919   5.427   0.334  12.782 -0.4717 -0.2788 -0.2185
17168TIP3    H272920   5.321   0.231  12.750 -1.0495  0.3408 -0.3175
17169TIP3   OH272921   5.171   4.975  13.711  0.0449  0.2787  0.1052
17169TIP3    H172922   5.195   4.960  13.803 -0.0354 -0.5372  0.0050
17169TIP3    H272923   5.250   4.952  13.662  0.0213  0.5117 -0.0413
17170TIP3   OH272924   3.360   0.129   4.482 -0.2049  0.4879 -0.5385
17170TIP3    H172925   3.406   0.088   4.555 -1.2435  0.6020  0.2183
17170TIP3    H272926   3.383   0.077   4.405  1.4539  0.7797 -0.2595
17171TIP3   OH272927   4.616   6.500  15.099 -0.0583 -0.2068 -0.2310
17171TIP3    H172928   4.608   6.405  15.109  0.3658 -0.1646  0.6471
17171TIP3    H272929   4.707   6.513  15.072 -0.0390 -0.0391 -0.0865
17172TIP3   OH272930   3.394   0.297  13.867 -0.0824  0.0499  0.4194
17172TIP3    H172931   3.372   0.226  13.808  3.3080 -1.5547  0.8550
17172TIP3    H272932   3.311   0.341  13.884 -1.9894 -2.5666 -1.4293
17173TIP3   OH272933   2.577   3.003  11.642  0.3989  0.0834 -0.5192
17173TIP3    H172934   2.617   2.917  11.631 -0.9162 -0.4578 -1.2366
17173TIP3    H272935   2.635   3.049  11.703  2.3673 -0.4795 -1.8688
17174TIP3   OH272936   2.524   6.109  14.177  0.5840  0.9679 -0.2048
17174TIP3    H172937   2.481   6.179  14.226 -0.8207  1.0372 -1.4672
17174TIP3    H272938   2.508   6.130  14.085  2.5942  0.4951 -0.7146
17175TIP3   OH272939   2.696   3.542   1.438  0.0710 -0.3389 -0.2714
17175TIP3    H172940   2.736   3.612   1.386 -0.5594 -1.6713 -2.7142
17175TIP3    H272941   2.685   3.580   1.525  0.5627  2.2874 -1.2594
17176TIP3   OH272942   6.217   2.891   5.293  0.1930 -0.2113  0.1017
17176TIP3    H172943   6.132   2.913   5.330 -0.0785 -0.3138 -0.4613
17176TIP3    H272944   6.206   2.899   5.198  0.7820 -0.3122  0.0187
17177TIP3   OH272945   4.325   0.673   6.410 -0.5616 -0.0266 -0.2187
17177TIP3    H172946   4.297   0.759   6.444 -1.6045  0.2739 -1.7588
17177TIP3    H272947   4.319   0.615   6.486 -1.5567  0.8974  0.4426
17178TIP3   OH272948   1.340   0.580   4.942 -0.4716  0.8151  0.6761
17178TIP3    H172949   1.384   0.582   5.027 -0.5826  3.7194  0.7751
17178TIP3    H272950   1.311   0.490   4.931  2.6618 -0.4732  2.0621
17179TIP3   OH272951   4.446   2.541   0.728 -0.1547  0.6456 -0.0139
17179TIP3    H172952   4.351   2.542   0.715 -0.2871 -2.2644  0.0685
17179TIP3    H272953   4.480   2.491   0.654  1.1276  0.3216  0.7558
17180TIP3   OH272954   3.170   6.498   0.853 -0.1468 -0.3311 -0.8119
17180TIP3    H172955   3.232   6.460   0.915 -1.0714  0.3088  0.5549
17180TIP3    H272956   3.094   6.439   0.857  0.3015 -1.0604 -2.3992
17181TIP3   OH272957   0.498   6.581   2.590 -0.5086  0.8702  0.2580
17181TIP3    H172958   0.571   6.527   2.560  0.1130  1.6548  0.3136
17181TIP3    H272959   0.523   6.609   2.678 -1.8833 -0.6271  1.1748
17182TIP3   OH272960   3.335   4.845  16.268  0.2661  0.1923  0.2622
17182TIP3    H172961   3.358   4.757  16.237  2.1464  0.3711  1.0154
17182TIP3    H272962   3.384   4.904  16.210 -2.2905  0.8771 -1.3366
17183TIP3   OH272963   1.260   2.992  14.252  0.3165 -0.5448  0.1676
17183TIP3    H172964   1.204   2.918  14.230  0.5997  0.0438 -2.8917
17183TIP3    H272965   1.199   3.062  14.275 -0.1843 -0.3629 -1.6299
17184TIP3   OH272966   1.424   6.085  16.580 -0.1223  0.3186  0.0451
17184TIP3    H172967   1.353   6.088  16.645 -0.8847 -2.8846 -0.4986
17184TIP3    H272968   1.502   6.069  16.632 -0.2583  0.6930  0.3787
17185TIP3   OH272969   1.256   3.293   1.685 -0.0089  0.0893  0.0659
17185TIP3    H172970   1.166   3.282   1.713 -0.8720  4.9671  0.0602
17185TIP3    H272971   1.257   3.264   1.594 -2.2043  1.7082 -0.5562
17186TIP3   OH272972   6.356   2.372  16.248 -0.1710 -0.2794  0.2004
17186TIP3    H172973   6.358   2.284  16.209  0.0520 -0.2191  0.0744
17186TIP3    H272974   6.363   2.356  16.343 -0.1988 -0.4000  0.1819
17187TIP3   OH272975   2.920   5.338   5.516 -0.3706 -0.1578 -0.1462
17187TIP3    H172976   2.853   5.349   5.583  0.5480  1.4302  0.5772
17187TIP3    H272977   2.885   5.382   5.439 -0.8799 -0.8581 -0.3241
17188TIP3   OH272978   3.474   3.626   3.870  0.0182 -0.3719  0.0269
17188TIP3    H172979   3.425   3.698   3.910 -1.9109 -1.4675 -0.2777
17188TIP3    H272980   3.558   3.666   3.845 -0.9617  1.7568 -0.0959
17189TIP3   OH272981   4.940   0.724  12.552 -0.1242  0.0873  0.3712
17189TIP3    H172982   4.968   0.725  12.644  0.8929 -0.0532  0.0764
17189TIP3    H272983   5.013   0.764  12.505 -0.0473 -1.0607 -0.5234
17190TIP3   OH272984   2.895   6.496  15.441 -0.2115 -0.1431 -0.2616
17190TIP3    H172985   2.816   6.449  15.465  0.0103 -0.7316 -0.6610
17190TIP3    H272986   2.878   6.587  15.467 -1.3034 -0.1220 -0.9993
17191TIP3   OH272987   4.501   2.306  14.145  0.2927 -0.0204  0.0187
17191TIP3    H172988   4.585   2.277  14.179 -0.1637 -0.0668  1.1577
17191TIP3    H272989   4.518   2.391  14.105  0.9060 -0.1077  0.0957
17192TIP3   OH272990   1.303   3.890  16.133 -1.0601 -0.4831 -0.2077
17192TIP3    H172991   1.318   3.967  16.187 -2.0283 -0.2922 -0.1826
17192TIP3    H272992   1.389   3.867  16.099 -0.7595  0.6471 -0.2619
17193TIP3   OH272993   3.838   4.415  14.879 -0.9640 -0.2452 -0.0211
17193TIP3    H172994   3.880   4.390  14.962  4.5722  1.6932 -1.7593
17193TIP3    H272995   3.789   4.495  14.901 -0.1281 -0.1052  1.5225
17194TIP3   OH272996   4.085   0.072  12.374  0.4550 -0.0915  1.0168
17194TIP3    H172997   4.110   0.056  12.283  1.0710 -1.5337  1.4052
17194TIP3    H272998   4.112   0.162  12.391  1.7879 -0.3122  0.2247
17195TIP3   OH272999   1.930   1.100  14.648 -0.5447  0.0724  0.4775
17195TIP3    H173000   1.884   1.112  14.731 -1.3804 -0.3562  0.0911
17195TIP3    H273001   1.861   1.108  14.582 -0.0924 -0.7355 -0.1054
17196TIP3   OH273002   5.747   4.685   4.675  0.0386  0.7027 -0.2476
17196TIP3    H173003   5.829   4.697   4.627  0.1476  0.9105 -0.0087
17196TIP3    H273004   5.756   4.739   4.753  0.8443 -1.4449  1.2368
17197TIP3   OH273005   5.822   5.846  13.203  0.3840  0.0742  0.0638
17197TIP3    H173006   5.779   5.768  13.238 -0.9960 -1.0067 -3.5656
17197TIP3    H273007   5.862   5.887  13.279  0.9156 -3.9624  2.2543
17198TIP3   OH273008   5.414   4.451  13.234  0.0371 -0.0718  0.1869
17198TIP3    H173009   5.468   4.383  13.275  3.1102 -0.0569 -3.3660
17198TIP3    H273010   5.452   4.533  13.265 -0.7175  0.0387  0.8744
17199TIP3   OH273011   4.839   0.365   5.275  0.0369  0.0670 -0.0049
17199TIP3    H173012   4.803   0.404   5.195  0.9467 -0.3552 -0.6401
17199TIP3    H273013   4.763   0.329   5.320 -0.3848 -0.5628 -1.1770
17200TIP3   OH273014   3.997   6.044  16.069  0.4185  0.1456 -0.1942
17200TIP3    H173015   4.025   6.006  15.986  1.4537  0.8272 -0.1662
17200TIP3    H273016   3.901   6.036  16.068  0.5605 -3.2054  0.1529
17201TIP3   OH273017   1.679   1.302   3.751 -0.1252 -0.2913  0.0973
17201TIP3    H173018   1.635   1.376   3.794 -0.9677 -1.2154  0.8598
17201TIP3    H273019   1.772   1.319   3.764 -0.3368  0.1274  1.1647
17202TIP3   OH273020   1.476   1.340   1.263  0.3422  0.0225  0.1853
17202TIP3    H173021   1.428   1.421   1.282 -0.0785 -0.4727  1.3098
17202TIP3    H273022   1.426   1.298   1.193  1.2779  1.3243 -1.3492
17203TIP3   OH273023   6.303   3.671  11.023  0.6534  0.3234 -0.0329
17203TIP3    H173024   6.382   3.618  11.031  1.6620  1.6533 -0.7342
17203TIP3    H273025   6.319   3.747  11.079  0.0607  0.8111 -0.5128
17204TIP3   OH273026   0.366   3.067  13.691 -0.2039  0.0227  1.0888
17204TIP3    H173027   0.313   3.048  13.769  0.9266 -1.5648  1.5419
17204TIP3    H273028   0.313   3.038  13.617 -1.4816  1.9682  1.1810
17205TIP3   OH273029   2.186   1.130  16.172 -0.5978  0.6470  0.1576
17205TIP3    H173030   2.227   1.194  16.114 -1.3624  0.3254 -0.7711
17205TIP3    H273031   2.253   1.062  16.183  0.3331  1.7240  1.4066
17206TIP3   OH273032   1.288   2.650   1.304  0.0845  0.2951 -0.0238
17206TIP3    H173033   1.358   2.620   1.362 -0.9938 -0.5998  0.8567
17206TIP3    H273034   1.215   2.671   1.362 -0.3474  1.3957 -0.9079
17207TIP3   OH273035   3.185   4.609   3.479  0.2675  0.0084  0.0943
17207TIP3    H173036   3.179   4.513   3.488 -0.7541  0.1540  1.3613
17207TIP3    H273037   3.182   4.625   3.385 -1.0589 -1.1324 -0.0842
17208TIP3   OH273038   6.109   0.173   2.007 -0.5611 -0.2456 -0.4488
17208TIP3    H173039   6.058   0.117   1.949  0.4112  0.7255 -2.3467
17208TIP3    H273040   6.125   0.253   1.955  0.2206  0.7368  1.2264
17209TIP3   OH273041   0.006   4.456   3.763  0.5841 -0.3856 -0.0185
17209TIP3    H173042   0.010   4.469   3.668  0.0290 -2.0604 -0.2975
17209TIP3    H273043   0.091   4.487   3.795 -0.5256  3.8198 -0.5266
17210TIP3   OH273044   1.173   0.869  11.182  0.1638  0.2261  0.0746
17210TIP3    H173045   1.212   0.956  11.176  0.3367  0.1917  0.6740
17210TIP3    H273046   1.172   0.837  11.091 -1.3850  1.4815 -0.3908
17211TIP3   OH273047   2.073   2.823  13.924 -0.4482  0.0413  0.1302
17211TIP3    H173048   2.078   2.912  13.891  0.2769  0.0046  0.1232
17211TIP3    H273049   2.022   2.829  14.004 -2.4483  0.1033 -1.0768
17212TIP3   OH273050   5.589   1.113   0.541 -0.6961  0.0746 -0.4459
17212TIP3    H173051   5.543   1.138   0.622 -1.5893 -0.8021 -0.6636
17212TIP3    H273052   5.680   1.102   0.568 -0.7745  0.9203  0.1993
17213TIP3   OH273053   2.287   5.323  15.531  0.2767  0.7632 -0.0216
17213TIP3    H173054   2.359   5.343  15.592  1.2423 -0.5505 -0.6956
17213TIP3    H273055   2.250   5.241  15.563  0.8479  0.0127 -1.2224
17214TIP3   OH273056   2.530   6.061  12.391  0.0785 -0.5513 -0.2428
17214TIP3    H173057   2.465   6.021  12.448 -0.5188  0.0076 -0.5240
17214TIP3    H273058   2.481   6.090  12.314  0.4706  0.8169 -0.0120
17215TIP3   OH273059   0.161   6.624   0.378  0.0475 -0.2083  0.1027
17215TIP3    H173060   0.114   6.572   0.443 -2.0007  1.2959 -0.0906
17215TIP3    H273061   0.175   6.709   0.420  1.4078 -0.1654 -0.3715
17216TIP3   OH273062   4.764   0.023   4.011 -0.1673  0.4915 -0.4234
17216TIP3    H173063   4.733   0.102   3.967  1.9718  1.0151 -1.1120
17216TIP3    H273064   4.785  -0.037   3.939  0.4748  0.2077 -0.0064
17217TIP3   OH273065   0.820   1.187   4.490  0.3134 -0.2764  0.2142
17217TIP3    H173066   0.893   1.136   4.526  0.3860 -0.1850  0.1970
17217TIP3    H273067   0.783   1.130   4.423 -0.1727 -0.6788  0.8126
17218TIP3   OH273068   0.505   3.214  12.915  0.3884  0.5201 -0.1401
17218TIP3    H173069   0.544   3.230  12.829  0.1767  2.3952  0.0507
17218TIP3    H273070   0.412   3.234  12.904  0.1543 -0.2927  0.2776
17219TIP3   OH273071   1.786   3.623   4.944 -0.1932 -0.0666 -0.1870
17219TIP3    H173072   1.716   3.680   4.975 -1.1875 -0.5276 -1.4852
17219TIP3    H273073   1.790   3.639   4.849  1.7766  0.2801 -0.0955
17220TIP3   OH273074   0.318   1.148   4.386  0.0845 -0.2899 -0.5603
17220TIP3    H173075   0.223   1.159   4.378  0.0011 -0.7974 -0.2936
17220TIP3    H273076   0.329   1.072   4.443  0.6488 -1.0373 -1.6275
17221TIP3   OH273077   5.970   4.995  14.473 -0.1846  0.0090  0.4698
17221TIP3    H173078   5.928   4.998  14.559  0.5064 -0.3563  0.8277
17221TIP3    H273079   5.910   4.944  14.419 -0.2430 -0.4453  0.9518
17222TIP3   OH273080   6.360   6.731  13.377 -0.4947 -0.3007 -0.5956
17222TIP3    H173081   6.332   6.655  13.428 -0.6481 -0.4155 -0.8465
17222TIP3    H273082   6.443   6.704  13.337 -0.5131 -0.3109 -0.6271
17223TIP3   OH273083   0.569   3.153  11.960  0.4880 -0.4044  0.4764
17223TIP3    H173084   0.582   3.075  11.907  1.7543 -0.6093  1.0568
17223TIP3    H273085   0.536   3.120  12.044  0.2139 -0.2359  0.4373
17224TIP3   OH273086   3.907   3.581   5.736  0.3703  0.2622 -0.0207
17224TIP3    H173087   3.957   3.639   5.678 -1.6630  1.4718 -0.6676
17224TIP3    H273088   3.850   3.532   5.676  0.3658 -0.6776  0.7368
17225TIP3   OH273089   4.885   4.658  15.343 -0.6176 -0.6942 -0.3655
17225TIP3    H173090   4.954   4.722  15.325 -1.3526  0.1233 -0.3962
17225TIP3    H273091   4.931   4.581  15.375  0.1610  1.3601  4.3303
17226TIP3   OH273092   0.659   0.278  14.778  0.2718 -0.2777 -0.1865
17226TIP3    H173093   0.616   0.362  14.794 -0.9696 -0.9022 -0.0968
17226TIP3    H273094   0.644   0.262  14.685  0.8948 -0.1947 -0.3020
17227TIP3   OH273095   5.630   4.677  12.756 -0.4364  0.5279  0.4156
17227TIP3    H173096   5.548   4.723  12.771 -0.6027  0.3380  0.0988
17227TIP3    H273097   5.697   4.737  12.787 -0.6257  1.1735 -0.3939
17228TIP3   OH273098   2.256   5.735   5.573 -0.1105 -0.4962 -0.0380
17228TIP3    H173099   2.333   5.688   5.607 -0.2993 -0.2268  0.7944
17228TIP3    H273100   2.280   5.827   5.579 -0.6485 -0.3930  0.6104
17229TIP3   OH273101   1.772   2.754   4.461 -0.8379  0.0964 -0.0984
17229TIP3    H173102   1.717   2.737   4.385 -0.1765 -0.6197 -0.4387
17229TIP3    H273103   1.857   2.716   4.437 -0.6917 -0.3779  1.0974
17230TIP3   OH273104   0.450   1.599   6.101  0.1332 -0.2823 -0.1422
17230TIP3    H173105   0.388   1.582   6.172 -0.6687 -1.5552 -1.1078
17230TIP3    H273106   0.525   1.543   6.121  1.0966  1.3569  1.0979
17231TIP3   OH273107   2.452   5.450  16.021  0.7332 -0.1343  0.3950
17231TIP3    H173108   2.509   5.412  16.088  0.3383  0.6620  1.1986
17231TIP3    H273109   2.512   5.475  15.950  0.9363 -2.8012 -0.4707
17232TIP3   OH273110   5.530   6.103  15.513  0.5908 -0.0392 -0.1558
17232TIP3    H173111   5.574   6.063  15.588  0.3909  0.3856  0.1955
17232TIP3    H273112   5.475   6.033  15.477 -0.2594  0.0888  0.8523
17233TIP3   OH273113   0.772   1.899   1.094  0.1922 -0.0975 -0.0084
17233TIP3    H173114   0.773   1.814   1.136 -2.1143 -0.5372 -0.7323
17233TIP3    H273115   0.740   1.959   1.161  0.1039 -0.1191 -0.0315
17234TIP3   OH273116   6.455   3.999   4.713  0.2686 -0.3176 -0.3319
17234TIP3    H173117   6.389   3.985   4.782  0.2980 -1.3646 -0.4982
17234TIP3    H273118   6.439   4.088   4.682  0.1377  0.1077  0.9051
17235TIP3   OH273119   4.410   1.505  14.717  0.4646  0.4153 -0.6567
17235TIP3    H173120   4.358   1.428  14.691 -0.6304  1.6501 -2.3201
17235TIP3    H273121   4.496   1.469  14.740 -0.3351 -1.4149 -0.3110
17236TIP3   OH273122   3.424   3.803   2.660 -0.2813  0.0331 -0.0016
17236TIP3    H173123   3.357   3.822   2.725  0.7400 -2.3791  1.9072
17236TIP3    H273124   3.505   3.836   2.700  0.0661  0.5611 -1.1087
17237TIP3   OH273125   4.207   2.221  11.721  0.3483  0.2240 -0.2521
17237TIP3    H173126   4.263   2.156  11.679  0.3432  0.3539 -0.4617
17237TIP3    H273127   4.136   2.171  11.760 -0.1157  0.1754 -1.1413
17238TIP3   OH273128   1.428   0.788  15.602  0.5273 -0.1360  0.0874
17238TIP3    H173129   1.413   0.775  15.696 -0.0107 -0.4736 -0.0383
17238TIP3    H273130   1.396   0.707  15.562 -0.0385  0.3505 -0.4608
17239TIP3   OH273131   6.346   5.233   4.231  0.1033  0.1104 -0.0045
17239TIP3    H173132   6.361   5.259   4.322 -1.4248  0.4904  0.1598
17239TIP3    H273133   6.429   5.252   4.186  0.7991  0.1087  1.2515
17240TIP3   OH273134   0.672   0.893  13.832  0.1601 -0.3522 -0.3564
17240TIP3    H173135   0.703   0.805  13.812  1.2700  0.0666 -0.5778
17240TIP3    H273136   0.696   0.907  13.923  0.5495 -0.0547 -0.5024
17241TIP3   OH273137   5.407   5.459  15.251  0.6820 -0.3019 -0.1415
17241TIP3    H173138   5.449   5.506  15.323 -1.2015  0.7684  0.3272
17241TIP3    H273139   5.466   5.472  15.176  2.4499 -1.0537  1.0424
17242TIP3   OH273140   4.882   5.776  11.128 -0.1368  0.2842  0.1035
17242TIP3    H173141   4.957   5.736  11.174 -0.4114 -0.2987  0.0487
17242TIP3    H273142   4.917   5.799  11.042  0.3435  1.2553  0.5348
17243TIP3   OH273143   2.308   1.060  13.531 -0.2682 -0.3074  0.1561
17243TIP3    H173144   2.394   1.080  13.494 -0.1074 -2.0004 -0.4753
17243TIP3    H273145   2.324   1.047  13.624 -0.2749  1.6986  0.4721
17244TIP3   OH273146   1.798   1.169  11.250 -0.0897 -0.2000  0.0968
17244TIP3    H173147   1.734   1.148  11.318 -0.4553 -0.2158 -0.2543
17244TIP3    H273148   1.849   1.241  11.288 -0.5402  0.0491  0.2364
17245TIP3   OH273149   4.781   3.892  16.169 -0.1084 -0.8599 -0.4961
17245TIP3    H173150   4.836   3.949  16.115 -0.9659  1.7205  1.1772
17245TIP3    H273151   4.840   3.857  16.236 -0.2909  1.8013  1.2167
17246TIP3   OH273152   4.381   3.208   4.972 -0.1048  0.9104  0.3512
17246TIP3    H173153   4.303   3.153   4.984  0.7506 -0.2591  0.7983
17246TIP3    H273154   4.396   3.247   5.059 -0.2744  1.2661  0.2238
17247TIP3   OH273155   5.096   6.309  17.301 -0.2136  0.2226  0.0194
17247TIP3    H173156   5.008   6.298  17.266  0.2697 -1.4662 -0.8034
17247TIP3    H273157   5.124   6.220  17.324  0.5285  0.9462  2.1995
17248TIP3   OH273158   1.710   2.566  13.556 -0.6664  0.1369 -0.3433
17248TIP3    H173159   1.653   2.521  13.494  0.1648 -2.1745  0.4432
17248TIP3    H273160   1.689   2.659  13.546  0.0783  0.0205 -4.6981
17249TIP3   OH273161   0.892   3.799  13.423  0.0205  0.2618  0.4826
17249TIP3    H173162   0.891   3.753  13.339 -0.2049  0.4294  0.3921
17249TIP3    H273163   0.804   3.785  13.459  0.0725  0.3062  0.6260
17250TIP3   OH273164   5.155   3.699  12.079  0.3143 -0.3420  0.0100
17250TIP3    H173165   5.102   3.730  12.153  2.1792 -1.8276  2.0847
17250TIP3    H273166   5.127   3.609  12.066 -0.3302  0.0424 -1.4949
17251TIP3   OH273167   5.813   1.856  15.856 -0.1819  0.3236 -0.1719
17251TIP3    H173168   5.894   1.806  15.850 -0.5925 -0.2905 -0.8182
17251TIP3    H273169   5.797   1.865  15.950  0.5379  0.3049 -0.0419
17252TIP3   OH273170   2.871   4.846   2.071  0.9276  0.0479  0.4454
17252TIP3    H173171   2.921   4.770   2.043  1.7117  0.9357 -0.6989
17252TIP3    H273172   2.928   4.921   2.050 -0.1938  0.9919  0.6628
17253TIP3   OH273173   4.308   1.956  12.104 -0.1340  0.0264 -0.4065
17253TIP3    H173174   4.285   1.912  12.185  1.2513  1.3309  0.7664
17253TIP3    H273175   4.232   2.010  12.083  0.7607  2.4916  2.1109
17254TIP3   OH273176   0.635   5.830  15.386 -0.4990  0.0600  0.5241
17254TIP3    H173177   0.574   5.776  15.336  1.7320 -1.7572 -0.3802
17254TIP3    H273178   0.606   5.920  15.369 -2.4016 -0.6736 -0.4956
17255TIP3   OH273179   3.527   1.625   0.459 -0.0911 -0.0366  0.5401
17255TIP3    H173180   3.523   1.720   0.447  0.1898  0.1894  2.0092
17255TIP3    H273181   3.594   1.612   0.526  2.2703 -1.5360 -1.9017
17256TIP3   OH273182   5.772   0.636  10.782 -0.3248 -0.7389  0.5968
17256TIP3    H173183   5.760   0.617  10.689 -2.0295  2.1402  0.0984
17256TIP3    H273184   5.761   0.551  10.825  0.0470 -2.0809 -1.7541
17257TIP3   OH273185   5.450   6.576   5.345  0.0019  0.7986 -0.2432
17257TIP3    H173186   5.546   6.576   5.350 -0.0492 -0.3277  1.2725
17257TIP3    H273187   5.430   6.526   5.266  0.6447  0.6871 -0.3406
17258TIP3   OH273188   0.510   4.788   0.431 -0.2572  0.1518  0.0199
17258TIP3    H173189   0.544   4.859   0.486 -0.2579 -0.3348  0.6645
17258TIP3    H273190   0.509   4.825   0.343  0.1876  0.7980  0.2706
17259TIP3   OH273191   2.796   6.224  15.589  0.0778 -0.0801 -0.0298
17259TIP3    H173192   2.801   6.280  15.666 -1.0485 -0.0515  0.0329
17259TIP3    H273193   2.792   6.135  15.624  1.1401 -0.1772 -0.1122
17260TIP3   OH273194   6.521   4.959  16.673 -0.2177 -0.4434 -0.1723
17260TIP3    H173195   6.453   4.895  16.695 -1.2652  0.6622 -0.0938
17260TIP3    H273196   6.476   5.025  16.621  0.5058  0.9473  0.8896
17261TIP3   OH273197   0.825   6.067   1.557  0.4338  0.4284  0.5459
17261TIP3    H173198   0.906   6.026   1.589  1.2196  0.6687 -1.0192
17261TIP3    H273199   0.762   5.995   1.552  0.7964  0.0712  0.9853
17262TIP3   OH273200   5.902   3.266   2.613  0.0075  0.3770 -0.3257
17262TIP3    H173201   5.900   3.293   2.521 -0.4006  1.6991  0.0619
17262TIP3    H273202   5.956   3.331   2.656  0.9020 -0.7101  0.2453
17263TIP3   OH273203   6.530   5.283  11.626  0.5666  0.4754 -0.2022
17263TIP3    H173204   6.569   5.277  11.539 -1.4571  0.4694 -1.1591
17263TIP3    H273205   6.505   5.193  11.646  2.5457  0.1568  1.1998
17264TIP3   OH273206   5.929   1.780   4.307 -0.5773  0.3512  0.6860
17264TIP3    H173207   5.865   1.709   4.318  1.0931 -1.3346 -0.0972
17264TIP3    H273208   5.938   1.791   4.213 -0.5935  1.4627  0.7906
17265TIP3   OH273209   1.963   1.405  12.301 -0.2518 -0.1057  0.1395
17265TIP3    H173210   1.993   1.415  12.211 -1.1263  1.8252 -0.0062
17265TIP3    H273211   1.968   1.312  12.319  2.9979 -0.2124 -0.8083
17266TIP3   OH273212   3.758   5.646   3.842 -0.0528  0.2623 -0.1044
17266TIP3    H173213   3.760   5.742   3.839  0.3779  0.2507 -0.3285
17266TIP3    H273214   3.812   5.619   3.768  0.7121 -0.1419  0.5794
17267TIP3   OH273215   5.621   3.462  16.040 -0.2078  0.6035  0.2977
17267TIP3    H173216   5.593   3.417  15.960  0.7651  0.5158 -0.0059
17267TIP3    H273217   5.658   3.545  16.009 -0.8143  1.0538  0.7513
17268TIP3   OH273218   1.624   0.868   1.634 -0.4055  0.2028  0.1250
17268TIP3    H173219   1.655   0.851   1.723  0.5680 -0.3378 -0.3049
17268TIP3    H273220   1.659   0.796   1.582 -2.6468 -0.6220 -0.3593
17269TIP3   OH273221   3.240   3.758   2.144  0.1290  0.6128 -0.8018
17269TIP3    H173222   3.273   3.847   2.155 -2.4567  1.5456  0.3175
17269TIP3    H273223   3.308   3.702   2.182  1.0623  2.2484  0.0481
17270TIP3   OH273224   2.237   6.116   4.565  0.6247 -0.3619  0.0405
17270TIP3    H173225   2.170   6.131   4.632 -1.1454 -1.2109 -1.4513
17270TIP3    H273226   2.275   6.031   4.588  0.1528 -0.5630  0.0796
17271TIP3   OH273227   4.202   0.766   4.629  0.5848 -0.1149 -0.2545
17271TIP3    H173228   4.248   0.714   4.695 -3.0761 -0.9838  1.9020
17271TIP3    H273229   4.204   0.712   4.551  1.2617 -1.1234  0.4326
17272TIP3   OH273230   6.594   0.669   1.570  0.3900 -0.1966 -0.3211
17272TIP3    H173231   6.514   0.697   1.526 -0.1390 -0.7404  0.2761
17272TIP3    H273232   6.581   0.576   1.587  0.6419 -0.0476  0.8108
17273TIP3   OH273233   4.234   5.901  11.217  0.1121 -0.1578 -0.2356
17273TIP3    H173234   4.253   5.990  11.190 -0.2256  0.2666  0.8546
17273TIP3    H273235   4.139   5.892  11.206  0.2511 -0.6618 -1.1090
17274TIP3   OH273236   6.509   4.153   2.596 -0.3286  0.3909  0.3878
17274TIP3    H173237   6.504   4.119   2.685  3.5965 -1.4707  0.0859
17274TIP3    H273238   6.554   4.237   2.604 -0.2180  0.3531  0.1855
17275TIP3   OH273239   0.271   5.956  16.842  0.1829 -0.2769 -0.0054
17275TIP3    H173240   0.359   5.954  16.879 -0.5250  1.1292  1.8999
17275TIP3    H273241   0.227   6.028  16.888 -2.9088 -2.7812  1.3635
17276TIP3   OH273242   5.364   4.795  12.230 -0.2945 -0.3368  0.4660
17276TIP3    H173243   5.410   4.781  12.147 -0.3258  0.9121  0.2204
17276TIP3    H273244   5.288   4.848  12.208 -1.0916 -1.1665  1.1012
17277TIP3   OH273245   3.617   0.494   5.690  0.2339  0.7098 -0.7135
17277TIP3    H173246   3.539   0.516   5.741 -1.1557  0.7411 -2.7086
17277TIP3    H273247   3.630   0.401   5.705 -0.3983  0.6311 -0.6076
17278TIP3   OH273248   0.674   4.611   4.362  0.3794  0.2077  0.3028
17278TIP3    H173249   0.743   4.636   4.301  1.0088  1.5471  1.5097
17278TIP3    H273250   0.595   4.655   4.329  0.4946  0.1358 -0.0725
17279TIP3   OH273251   2.267   1.452  14.216 -0.1393 -0.0371 -0.1834
17279TIP3    H173252   2.224   1.374  14.181  0.3540  0.2161 -1.4243
17279TIP3    H273253   2.199   1.519  14.217  0.1069  0.2902 -1.8918
17280TIP3   OH273254   0.458   1.233   1.062  0.1756  0.3344 -0.0218
17280TIP3    H173255   0.432   1.323   1.043 -0.2284  0.4672  1.1397
17280TIP3    H273256   0.405   1.207   1.137  0.9303 -0.5697  0.2222
17281TIP3   OH273257   2.725   0.120   5.442 -0.4505  0.5405  0.2882
17281TIP3    H173258   2.731   0.038   5.393  1.9784  1.2571 -0.7773
17281TIP3    H273259   2.726   0.189   5.376  0.3527  1.4805  1.2385
17282TIP3   OH273260   0.514   5.300  15.766 -0.4561 -0.3228 -0.1035
17282TIP3    H173261   0.549   5.283  15.853 -1.4134  1.1609  0.6180
17282TIP3    H273262   0.560   5.379  15.737 -1.3788  0.1908 -0.2006
17283TIP3   OH273263   4.554   5.056  15.830 -0.0246  0.1180  0.1649
17283TIP3    H173264   4.612   5.110  15.884  0.6953 -0.2746 -0.1928
17283TIP3    H273265   4.547   5.104  15.747  1.3756 -0.7538 -0.4968
17284TIP3   OH273266   4.584   2.875   1.492 -0.0421 -0.3755 -0.3985
17284TIP3    H173267   4.624   2.935   1.429 -0.0701  2.2393  1.8838
17284TIP3    H273268   4.539   2.932   1.554 -1.9992 -2.9237  0.7019
17285TIP3   OH273269   1.607   5.061  15.463  0.2508 -0.7008  0.3264
17285TIP3    H173270   1.558   4.979  15.468  1.8458 -1.7967 -0.6988
17285TIP3    H273271   1.660   5.052  15.383  0.7041  1.2145  0.3535
17286TIP3   OH273272   5.995   0.597   0.977 -0.1409 -0.1262  0.2283
17286TIP3    H173273   6.087   0.569   0.976 -0.4250 -1.0930  0.9441
17286TIP3    H273274   6.000   0.693   0.984  0.8048 -0.1687  0.3025
17287TIP3   OH273275   1.984   0.660   1.983  0.0873 -0.2145  0.2015
17287TIP3    H173276   1.925   0.603   1.933  0.2680 -1.3903  1.2745
17287TIP3    H273277   1.995   0.737   1.928 -1.2373 -0.6341 -0.7017
17288TIP3   OH273278   3.566   3.877   5.780  0.2725  0.4782  0.2220
17288TIP3    H173279   3.527   3.827   5.709  0.6267 -0.2234  0.5074
17288TIP3    H273280   3.557   3.968   5.754 -1.0315  0.3100  0.0198
17289TIP3   OH273281   1.983   1.328   0.937 -0.1032 -0.0499  0.5850
17289TIP3    H173282   2.043   1.264   0.898 -0.0621  0.9222 -1.0395
17289TIP3    H273283   1.896   1.290   0.924 -0.2217  0.8801 -1.8778
17290TIP3   OH273284   1.610   5.750  15.711  0.0756  0.0013  0.2634
17290TIP3    H173285   1.549   5.736  15.784  0.1929 -1.9736  0.0428
17290TIP3    H273286   1.694   5.718  15.745  0.1139 -1.0015 -0.7293
17291TIP3   OH273287   6.567   5.664  14.781 -0.1374 -0.4270  0.0903
17291TIP3    H173288   6.647   5.710  14.756 -0.6657 -0.0796 -1.0627
17291TIP3    H273289   6.572   5.655  14.876  0.2803  1.4388  0.2709
17292TIP3   OH273290   4.279   0.015  14.806 -0.1649 -0.2197 -0.6519
17292TIP3    H173291   4.256  -0.072  14.774 -0.0319 -0.0408 -1.2672
17292TIP3    H273292   4.350   0.043  14.748  0.1288  0.0943 -0.1433
17293TIP3   OH273293   1.290   2.896  15.715 -0.0478 -0.2330  0.4912
17293TIP3    H173294   1.380   2.866  15.730  0.3279  1.0562  0.9608
17293TIP3    H273295   1.281   2.898  15.620  1.3101  1.9607  0.3129
17294TIP3   OH273296   1.114   2.197  12.135 -0.0520  0.9384 -0.4481
17294TIP3    H173297   1.093   2.107  12.162 -1.5026  1.1236 -0.8408
17294TIP3    H273298   1.209   2.204  12.145  0.1347 -0.7375 -0.6903
17295TIP3   OH273299   4.637   0.916   3.909  0.3584  0.0292  0.7421
17295TIP3    H173300   4.549   0.886   3.888  0.8490 -0.4608 -0.8250
17295TIP3    H273301   4.629   1.010   3.922 -0.2851  0.1029 -0.1239
17296TIP3   OH273302   0.093   1.020  13.684 -0.3195  0.2526 -0.4330
17296TIP3    H173303   0.111   1.109  13.714 -1.9906  0.6914 -0.6062
17296TIP3    H273304   0.154   0.965  13.733  1.4689  1.5677 -1.0784
17297TIP3   OH273305   5.347   1.238  15.064  0.0641  0.2137 -0.6441
17297TIP3    H173306   5.417   1.257  15.001 -0.1072 -0.1292 -0.9439
17297TIP3    H273307   5.307   1.324  15.081  0.6924  0.4404 -0.3008
17298TIP3   OH273308   3.194   6.326  15.766 -0.0158 -0.0461  0.0762
17298TIP3    H173309   3.190   6.311  15.672 -0.8852 -0.0563  0.1076
17298TIP3    H273310   3.131   6.396  15.782  0.4635  0.2784  0.5897
17299TIP3   OH273311   1.509   6.576   2.258  0.0879  0.0056  0.3690
17299TIP3    H173312   1.444   6.632   2.300  0.0687 -1.0050  1.7838
17299TIP3    H273313   1.544   6.628   2.186  0.7475  2.1937  2.1887
17300TIP3   OH273314   1.353   4.825   0.378 -0.2889 -0.0898  0.0055
17300TIP3    H173315   1.315   4.771   0.309  0.3301 -0.9657  0.3357
17300TIP3    H273316   1.436   4.856   0.342  1.7564 -3.3424  1.4886
17301TIP3   OH273317   5.313   5.791   4.473 -0.3704  1.1640 -0.3793
17301TIP3    H173318   5.355   5.705   4.472  0.0983  1.3871 -0.2715
17301TIP3    H273319   5.242   5.784   4.409 -2.1434 -0.1643  1.6311
17302TIP3   OH273320   6.638   0.329  13.563 -0.0395  0.2025  0.0397
17302TIP3    H173321   6.549   0.305  13.538 -1.1900  1.9831  2.0141
17302TIP3    H273322   6.693   0.295  13.493 -2.1810 -1.5793 -0.9004
17303TIP3   OH273323   3.223   4.734  15.938 -0.1172 -0.0593  0.1937
17303TIP3    H173324   3.266   4.654  15.969  0.2094  0.4417  1.0794
17303TIP3    H273325   3.286   4.804  15.956 -1.1543  0.6552  1.2522
17304TIP3   OH273326   4.120   0.679   4.101 -0.1343 -0.2925  0.9647
17304TIP3    H173327   4.124   0.707   4.009 -0.6756  0.5067  1.1774
17304TIP3    H273328   4.210   0.682   4.131  0.5077 -3.3227 -0.3213
17305TIP3   OH273329   5.706   5.322  16.708 -0.1579 -0.1952  0.0776
17305TIP3    H173330   5.747   5.363  16.785  0.5883 -0.3419 -0.2339
17305TIP3    H273331   5.630   5.276  16.744  0.1880 -0.2759  0.7376
17306TIP3   OH273332   5.237   1.241   5.858 -0.1554 -0.0062 -0.3532
17306TIP3    H173333   5.241   1.238   5.763  0.2682 -1.5388 -0.3178
17306TIP3    H273334   5.325   1.214   5.887 -0.4473 -0.1341  0.4579
17307TIP3   OH273335   6.713   1.403   3.161  0.0408 -0.5013 -0.5947
17307TIP3    H173336   6.644   1.468   3.149  1.4927  1.2337  0.0391
17307TIP3    H273337   6.748   1.389   3.073 -1.7163 -2.1801 -1.0968
17308TIP3   OH273338   5.190   3.984  12.113  0.5950 -0.0591 -0.3060
17308TIP3    H173339   5.211   3.975  12.206  0.3450 -2.0739 -0.3988
17308TIP3    H273340   5.217   4.073  12.090 -2.5324  1.8380  2.4929
17309TIP3   OH273341   0.079   3.739   5.248  0.3346  0.4110 -0.2719
17309TIP3    H173342   0.160   3.725   5.198 -0.1351 -1.5390 -0.5690
17309TIP3    H273343   0.009   3.732   5.183 -0.1950 -0.4224  0.3687
17310TIP3   OH273344   3.804   2.851   5.573 -0.8049 -0.2412  0.3641
17310TIP3    H173345   3.874   2.892   5.522 -0.6568 -2.4682 -1.3799
17310TIP3    H273346   3.829   2.866   5.664  0.7366  0.9563 -0.2123
17311TIP3   OH273347   3.518   3.058  17.226  0.6518 -0.1409  0.5283
17311TIP3    H173348   3.451   3.106  17.178  0.8171 -2.2393 -2.0592
17311TIP3    H273349   3.485   3.053  17.315 -3.0732 -1.5670 -0.7191
17312TIP3   OH273350   1.575   1.133  13.268  0.1316 -0.1551 -0.3044
17312TIP3    H173351   1.531   1.218  13.265  0.2188 -0.1515 -1.8374
17312TIP3    H273352   1.658   1.151  13.313 -0.4519  0.2668  0.6483
17313TIP3   OH273353   1.957   4.675  12.249  0.6113 -0.0760 -0.1711
17313TIP3    H173354   1.927   4.766  12.250  2.7046  0.7072 -1.5200
17313TIP3    H273355   1.880   4.625  12.223 -1.1739  0.9696  2.6018
17314TIP3   OH273356   0.354   4.136  15.470  0.1999 -0.1622  0.4755
17314TIP3    H173357   0.271   4.128  15.517 -0.1477 -3.6950 -0.4446
17314TIP3    H273358   0.336   4.200  15.401 -1.6465 -0.4718  0.6041
17315TIP3   OH273359   4.340   2.385  11.899 -0.2236  0.1873  0.2441
17315TIP3    H173360   4.309   2.347  11.816 -1.0041  1.2398  0.0257
17315TIP3    H273361   4.374   2.311  11.948 -0.8089 -0.6410 -0.5551
17316TIP3   OH273362   2.500   6.413   4.244 -0.5524 -0.6031  0.2882
17316TIP3    H173363   2.506   6.497   4.289  0.1906  0.0249 -0.9243
17316TIP3    H273364   2.448   6.358   4.302 -1.6818  0.9142  0.7714
17317TIP3   OH273365   3.646   6.099   4.526 -0.1013 -0.0092  0.4695
17317TIP3    H173366   3.624   6.023   4.473 -1.6934 -1.1231  2.5570
17317TIP3    H273367   3.579   6.164   4.504  1.5376  1.0529 -1.6650
17318TIP3   OH273368   4.996   1.358   2.754 -0.0932  0.6487 -0.0743
17318TIP3    H173369   5.075   1.413   2.753  2.1120 -2.2768  0.0603
17318TIP3    H273370   4.939   1.400   2.818  1.1542  3.0826 -0.4128
17319TIP3   OH273371   4.598   6.481  11.998  0.3669 -0.0090  0.1428
17319TIP3    H173372   4.634   6.555  12.047 -0.3801 -0.5552  1.5676
17319TIP3    H273373   4.674   6.441  11.955  0.8948  1.0457  0.0679
17320TIP3   OH273374   2.441   1.381  13.736  0.3220  0.3059 -0.5219
17320TIP3    H173375   2.421   1.463  13.780 -0.7197 -0.7064  0.9638
17320TIP3    H273376   2.357   1.351  13.702  0.5632 -0.5393 -0.3816
17321TIP3   OH273377   0.113   3.897  16.846 -0.3728 -0.1551 -0.1700
17321TIP3    H173378   0.111   3.882  16.752 -0.3606  0.2992 -0.2422
17321TIP3    H273379   0.111   3.809  16.884 -2.8508 -0.3162 -0.5283
17322TIP3   OH273380   6.443   5.361   2.118 -0.6352  0.6102 -0.3401
17322TIP3    H173381   6.458   5.454   2.136 -0.7022  0.3510  1.2080
17322TIP3    H273382   6.527   5.329   2.087 -0.2024  0.8982  0.4927
17323TIP3   OH273383   3.229   5.437   1.955 -0.0440 -0.5511  0.8267
17323TIP3    H173384   3.198   5.432   1.864  1.2236 -1.1657  0.3989
17323TIP3    H273385   3.176   5.506   1.994 -1.9597 -1.5710  0.1812
17324TIP3   OH273386   3.999   5.662  10.928 -0.0937 -0.1874  0.3501
17324TIP3    H173387   3.908   5.650  10.953  0.1753  0.0073  1.5283
17324TIP3    H273388   4.013   5.757  10.932  0.2875 -0.2514  0.7370
17325TIP3   OH273389   3.618   6.401   2.874  0.0892 -0.0399 -0.1050
17325TIP3    H173390   3.712   6.417   2.876 -0.2549  2.3223 -0.4228
17325TIP3    H273391   3.599   6.379   2.783  0.2921 -0.3028 -0.0846
17326TIP3   OH273392   6.760   3.472  17.196 -0.5972 -0.2495  0.3970
17326TIP3    H173393   6.693   3.486  17.262  0.2312 -0.3117  1.2787
17326TIP3    H273394   6.788   3.560  17.170 -0.6987 -0.2242  0.3762
17327TIP3   OH273395   6.128   1.837   5.217  0.2356  0.0962  0.6419
17327TIP3    H173396   6.171   1.807   5.137 -2.9378 -1.8741 -0.5206
17327TIP3    H273397   6.126   1.933   5.208  1.1636  0.0027 -0.9621
17328TIP3   OH273398   0.468   3.468   3.633 -0.0515 -0.4663 -0.1347
17328TIP3    H173399   0.394   3.509   3.677 -0.7514  0.0327 -1.7138
17328TIP3    H273400   0.518   3.540   3.595  1.4506 -0.7692  1.1393
17329TIP3   OH273401   0.847   0.372  16.685  0.0808  0.1215 -0.6587
17329TIP3    H173402   0.825   0.384  16.777 -1.8670 -0.4179 -0.9990
17329TIP3    H273403   0.938   0.342  16.685  0.3451  0.8214  1.0200
17330TIP3   OH273404   1.908   6.154  13.829  0.5648 -0.3553  0.1940
17330TIP3    H173405   1.970   6.082  13.824  0.4193 -0.4634 -0.0869
17330TIP3    H273406   1.940   6.219  13.766 -1.5058 -1.9020 -2.6643
17331TIP3   OH273407   6.157   2.881   1.330 -0.1508  0.1631  0.7593
17331TIP3    H173408   6.195   2.809   1.381  0.3691 -0.0264  0.1265
17331TIP3    H273409   6.176   2.858   1.239 -0.2338  0.9594  0.5341
17332TIP3   OH273410   3.189   5.599   5.879 -0.1299 -0.2334  0.0008
17332TIP3    H173411   3.116   5.538   5.874  0.2313 -0.5788 -2.1036
17332TIP3    H273412   3.255   5.553   5.930 -0.5705 -0.8345  0.0407
17333TIP3   OH273413   3.251   1.470  17.257  0.5711 -0.1481 -0.0481
17333TIP3    H173414   3.228   1.377  17.250  0.7018 -0.1369 -0.6855
17333TIP3    H273415   3.202   1.512  17.186  2.1800 -0.0612 -1.1522
17334TIP3   OH273416   2.118   3.292  14.293 -0.0766 -0.0697  0.2380
17334TIP3    H173417   2.214   3.287  14.300 -0.1253 -0.8618  0.3920
17334TIP3    H273418   2.102   3.331  14.208  0.3789 -0.4282 -0.0157
17335TIP3   OH273419   6.210   2.160   0.043  0.2745 -0.2437 -0.9974
17335TIP3    H173420   6.122   2.175   0.075  1.1521  0.2496  1.4092
17335TIP3    H273421   6.215   2.209  -0.039 -0.8560  2.0758  0.2249
17336TIP3   OH273422   0.506   0.035   3.633  0.2761 -0.5456 -0.1512
17336TIP3    H173423   0.574  -0.013   3.679  0.7270 -0.0317 -0.2664
17336TIP3    H273424   0.528   0.127   3.647  1.4156 -0.3295 -2.7435
17337TIP3   OH273425   4.269   3.668   4.243  0.5361  0.3710  0.0331
17337TIP3    H173426   4.309   3.653   4.328 -0.9047  1.9760  1.0764
17337TIP3    H273427   4.339   3.650   4.180  1.7836 -0.3936  1.5585
17338TIP3   OH273428   1.642   2.581  10.619  0.3191  0.2099 -0.3278
17338TIP3    H173429   1.556   2.617  10.595  0.0999 -0.6827 -0.9463
17338TIP3    H273430   1.647   2.594  10.714 -0.2489  0.7883 -0.3665
17339TIP3   OH273431   1.298   3.983   2.667  0.2997 -0.0286  0.2863
17339TIP3    H173432   1.372   4.002   2.610 -0.2165  2.3302  0.2881
17339TIP3    H273433   1.336   3.963   2.752  0.9790 -0.3272 -0.0883
17340TIP3   OH273434   6.464   4.717   5.236  0.2187  0.4820 -0.4027
17340TIP3    H173435   6.523   4.761   5.297 -0.1045  0.7031 -0.2476
17340TIP3    H273436   6.438   4.637   5.281  1.8108 -0.5370 -1.1963
17341TIP3   OH273437   4.344   6.268   3.506 -0.0939 -0.0419 -0.1134
17341TIP3    H173438   4.322   6.357   3.480  1.3766  0.7566  1.2492
17341TIP3    H273439   4.274   6.242   3.566  0.0396  0.5864  0.3150
17342TIP3   OH273440   4.526   2.372   0.088  0.2332  0.7459  0.7364
17342TIP3    H173441   4.433   2.387   0.075  0.1714 -0.4157 -0.4000
17342TIP3    H273442   4.546   2.415   0.171 -1.7059 -0.5879  1.9780
17343TIP3   OH273443   1.470   4.202  15.596  0.4716  0.0187 -0.5097
17343TIP3    H173444   1.423   4.159  15.525  1.3002  0.9973 -1.7201
17343TIP3    H273445   1.493   4.132  15.657  0.1045 -0.9214 -1.4324
17344TIP3   OH273446   0.828   2.838  15.519 -0.7417  0.0269 -0.2511
17344TIP3    H173447   0.885   2.891  15.575 -3.6991  1.4629  1.6130
17344TIP3    H273448   0.801   2.765  15.574 -0.3841 -0.8969 -1.2681
17345TIP3   OH273449   3.243   4.532   3.809  0.3476  0.0270 -0.2463
17345TIP3    H173450   3.168   4.528   3.750 -0.3639 -1.4084  0.6934
17345TIP3    H273451   3.261   4.626   3.819 -1.5979  0.4281 -0.1639
17346TIP3   OH273452   3.479   3.658   2.266  0.7072 -0.0152  0.0134
17346TIP3    H173453   3.510   3.624   2.349  0.2182 -0.0671  0.1783
17346TIP3    H273454   3.465   3.581   2.212  1.3506  0.0391 -0.2346
17347TIP3   OH273455   4.384   6.397  14.237  0.6216  0.6003  0.6016
17347TIP3    H173456   4.431   6.449  14.172 -0.9750 -0.0720 -1.1809
17347TIP3    H273457   4.447   6.330  14.265  1.3891  1.0001 -0.1425
17348TIP3   OH273458   1.156   2.944  11.504 -0.1206  0.1929  0.6245
17348TIP3    H173459   1.090   2.901  11.558 -0.4336  0.1920  0.2370
17348TIP3    H273460   1.231   2.954  11.563 -1.6084  3.4458  2.2235
17349TIP3   OH273461   1.139   6.458   2.370 -0.0065 -0.4661  0.3276
17349TIP3    H173462   1.182   6.450   2.285  1.2114 -3.3510  1.0999
17349TIP3    H273463   1.062   6.401   2.364 -1.5630  1.5239  0.2958
17350TIP3   OH273464   5.460   2.562   4.210  0.4566  0.7870 -0.1270
17350TIP3    H173465   5.533   2.623   4.205  0.6512  0.5390 -0.2699
17350TIP3    H273466   5.407   2.581   4.132  1.8782 -0.9867 -1.6117
17351TIP3   OH273467   1.390   5.344  13.827 -0.0114  0.4128  0.0782
17351TIP3    H173468   1.432   5.275  13.878 -0.5972  0.4488  0.6137
17351TIP3    H273469   1.460   5.377  13.771  0.4201 -0.2183  0.2307
17352TIP3   OH273470   0.072   3.777   6.293  0.0982  0.7374  0.0121
17352TIP3    H173471   0.085   3.834   6.369 -2.0839  1.6128 -0.1966
17352TIP3    H273472  -0.012   3.734   6.310  0.7014 -0.8684 -0.8318
17353TIP3   OH273473   3.010   6.437   4.210  0.1721  0.2284 -0.3660
17353TIP3    H173474   2.952   6.364   4.187  0.1303 -0.4374  1.6859
17353TIP3    H273475   2.958   6.492   4.268  1.0002  0.6249  0.0113
17354TIP3   OH273476   0.180   1.160   4.736 -0.2238 -0.3358  0.3565
17354TIP3    H173477   0.158   1.119   4.820  2.1153 -1.2863  0.5817
17354TIP3    H273478   0.266   1.200   4.751 -0.0597  0.0442 -1.4007
17355TIP3   OH273479   5.344   4.074   1.456 -0.0683  0.2143  0.2069
17355TIP3    H173480   5.289   4.149   1.479 -0.5659 -0.5557  1.6375
17355TIP3    H273481   5.428   4.113   1.429 -0.7899  1.3259 -0.5016
17356TIP3   OH273482   3.799   3.259  13.608  0.3711  0.7517  0.3329
17356TIP3    H173483   3.835   3.270  13.696 -0.0308 -0.1316  0.6233
17356TIP3    H273484   3.706   3.241  13.622  0.4798 -0.3050 -0.2207
17357TIP3   OH273485   5.459   3.193   2.598 -0.6496  0.6905  0.4899
17357TIP3    H173486   5.522   3.139   2.552 -1.8838 -1.2965  1.0115
17357TIP3    H273487   5.500   3.279   2.603  0.5871  0.3532 -2.0743
17358TIP3   OH273488   2.566   2.005   6.362  0.5113  0.8045 -0.1776
17358TIP3    H173489   2.512   2.012   6.283 -0.0013 -0.1613  0.0740
17358TIP3    H273490   2.655   1.994   6.329  0.1864 -0.5706 -0.6597
17359TIP3   OH273491   4.878   1.186  15.915 -0.0466  0.4600 -0.0522
17359TIP3    H173492   4.820   1.259  15.892  0.6946  0.6320 -1.4396
17359TIP3    H273493   4.823   1.108  15.904 -0.2395  0.6699 -0.6188
17360TIP3   OH273494   4.007   6.686  16.668 -0.1509 -0.0719 -0.2288
17360TIP3    H173495   3.975   6.733  16.745  1.1772 -0.6841  0.7285
17360TIP3    H273496   3.967   6.732  16.594 -1.1248  0.7879  0.7925
17361TIP3   OH273497   2.183   4.883   0.131  0.0227  0.1204  0.2045
17361TIP3    H173498   2.094   4.897   0.098  0.4838 -0.4171 -1.3391
17361TIP3    H273499   2.232   4.848   0.056  2.3974  3.4594 -0.0656
17362TIP3   OH273500   2.660   0.797  13.400 -0.0294  0.1333  0.3914
17362TIP3    H173501   2.677   0.790  13.306 -1.7790  2.8585 -0.2353
17362TIP3    H273502   2.580   0.747  13.414 -0.9621  1.4862 -0.0152
17363TIP3   OH273503   1.774   5.684   5.146 -1.2169 -0.5038  0.0841
17363TIP3    H173504   1.707   5.721   5.089 -3.0419 -1.9645  1.1591
17363TIP3    H273505   1.781   5.746   5.219 -0.0997  0.5052 -0.8297
17364TIP3   OH273506   5.486   4.914   1.715 -0.2115  0.3670 -0.3299
17364TIP3    H173507   5.551   4.866   1.767  0.2162 -0.1609 -1.3356
17364TIP3    H273508   5.428   4.954   1.781  0.7902  0.3914  0.5688
17365TIP3   OH273509   4.773   4.371  10.943 -0.0806  0.1574  0.4810
17365TIP3    H173510   4.826   4.291  10.936 -0.2847  0.1067 -0.5849
17365TIP3    H273511   4.705   4.361  10.877 -0.6287  0.8282  0.9320
17366TIP3   OH273512   2.277   0.826   3.783  0.1195  0.3758  0.0589
17366TIP3    H173513   2.371   0.816   3.795 -0.0334 -0.7041  0.5512
17366TIP3    H273514   2.263   0.814   3.689  0.1103 -3.6400  0.3875
17367TIP3   OH273515   4.102   1.131   4.045  0.1438  0.6902 -0.1329
17367TIP3    H173516   4.117   1.215   4.089  0.7736  0.7227 -0.3987
17367TIP3    H273517   4.131   1.066   4.109 -0.6564  0.6546  0.2031
17368TIP3   OH273518   3.175   0.455  17.055  0.0938  0.0426  0.0240
17368TIP3    H173519   3.136   0.503  17.129 -1.7020  1.1180 -1.5252
17368TIP3    H273520   3.100   0.428  17.002  1.2679 -1.7532 -0.8384
17369TIP3   OH273521   1.157   3.390   0.112  0.2075  0.0843  0.0994
17369TIP3    H173522   1.087   3.365   0.052 -0.0813  1.8240 -0.3261
17369TIP3    H273523   1.125   3.468   0.156  0.8357 -0.5716  1.8197
17370TIP3   OH273524   4.058   3.739   0.419 -0.2073  0.3094  0.6480
17370TIP3    H173525   4.114   3.803   0.462  1.4967 -1.6813  1.5629
17370TIP3    H273526   4.004   3.703   0.490  1.4311 -1.8025  0.9019
17371TIP3   OH273527   2.782   5.745   0.975 -0.5969  0.4544 -0.4121
17371TIP3    H173528   2.813   5.741   0.884 -0.2086  0.1358 -0.2721
17371TIP3    H273529   2.763   5.654   0.997 -0.4824  0.5030 -0.1087
17372TIP3   OH273530   0.343   2.289  12.010  0.9153  0.1018 -0.3065
17372TIP3    H173531   0.423   2.310  12.057  0.8010 -0.1428 -0.0002
17372TIP3    H273532   0.333   2.194  12.020  0.1761  0.2323  0.3179
17373TIP3   OH273533   3.897   2.919   1.131  0.9995 -0.2536  0.6346
17373TIP3    H173534   3.971   2.970   1.097  2.0265 -1.3765  1.0838
17373TIP3    H273535   3.923   2.897   1.221  0.3744 -1.1536  0.6072
17374TIP3   OH273536   4.953   3.924  13.700  0.2622  0.3674  0.0535
17374TIP3    H173537   4.974   3.972  13.620 -0.0073  1.8305  0.8379
17374TIP3    H273538   4.883   3.864  13.674 -0.8176  1.8277 -0.5072
17375TIP3   OH273539   3.053   2.997  13.061  0.5734  0.6284 -0.0550
17375TIP3    H173540   3.074   2.969  12.973 -1.5636  0.8365 -0.6788
17375TIP3    H273541   2.959   2.983  13.070  0.5841  1.3984  1.8997
17376TIP3   OH273542   2.408   4.149   6.224 -0.5813  0.0184  0.4959
17376TIP3    H173543   2.316   4.132   6.205 -0.4851  0.3792 -0.3408
17376TIP3    H273544   2.450   4.063   6.220 -0.9357 -0.1951  1.2287
17377TIP3   OH273545   5.044   5.025  12.696  0.1424 -0.1671  0.4528
17377TIP3    H173546   4.958   5.061  12.714 -0.4715 -0.7461 -1.1239
17377TIP3    H273547   5.095   5.099  12.663 -0.1721 -0.0959  0.1220
17378TIP3   OH273548   0.803   4.536   0.756  0.1064 -0.5236  0.7743
17378TIP3    H173549   0.742   4.604   0.728  1.3729 -0.4759 -2.2636
17378TIP3    H273550   0.879   4.547   0.698  2.3997 -1.5135  3.3902
17379TIP3   OH273551   0.278   0.677   5.765 -0.2594 -0.3129 -0.5283
17379TIP3    H173552   0.275   0.727   5.846  0.1596 -2.5693  0.9714
17379TIP3    H273553   0.359   0.626   5.771  0.9642  1.0326 -3.4274
17380TIP3   OH273554   3.931   5.005   2.956  0.0084 -0.8289 -0.2039
17380TIP3    H173555   3.997   5.074   2.944 -1.8252  0.9379 -0.5191
17380TIP3    H273556   3.969   4.948   3.023  2.0570 -0.1631 -0.7008
17381TIP3   OH273557   2.540   1.183  14.351  0.1609 -0.3374  0.4449
17381TIP3    H173558   2.512   1.254  14.410 -0.9725 -0.1182 -0.3245
17381TIP3    H273559   2.628   1.208  14.323  0.1985  0.2100  1.0293
17382TIP3   OH273560   1.519   6.173   0.113 -0.1944  0.0665 -0.1091
17382TIP3    H173561   1.598   6.207   0.154 -0.2812 -0.4317  0.4855
17382TIP3    H273562   1.526   6.199   0.021  0.2400  0.7736  0.1168
17383TIP3   OH273563   5.336   0.625   6.079  0.1048 -0.1557 -0.0618
17383TIP3    H173564   5.301   0.539   6.052 -2.9156  1.1228 -0.6451
17383TIP3    H273565   5.392   0.651   6.006  0.1240 -1.1391 -0.4156
17384TIP3   OH273566   2.180   2.276  14.672  0.0755  0.0986 -0.4309
17384TIP3    H173567   2.228   2.332  14.611 -1.5673  1.2460 -0.7367
17384TIP3    H273568   2.128   2.219  14.615 -2.9233  2.4282 -0.2920
17385TIP3   OH273569   5.112   3.389  16.818  0.3884 -0.3305 -0.1685
17385TIP3    H173570   5.078   3.301  16.802 -1.6453  0.1959  0.7965
17385TIP3    H273571   5.036   3.447  16.802  0.7077  0.9236  2.3895
17386TIP3   OH273572   3.465   2.718  12.191 -0.3954 -0.0154 -0.5008
17386TIP3    H173573   3.502   2.708  12.104 -0.5327 -2.4496 -0.3542
17386TIP3    H273574   3.526   2.776  12.237  0.7180 -0.2539 -1.6252
17387TIP3   OH273575   3.677   3.162  15.905  0.0253  0.2773 -0.5345
17387TIP3    H173576   3.693   3.075  15.941  1.1708  0.6736 -0.0735
17387TIP3    H273577   3.588   3.157  15.870  0.1664 -1.1526 -0.7330
17388TIP3   OH273578   6.624   0.169   1.728 -0.0328  0.3644  0.2111
17388TIP3    H173579   6.645   0.080   1.699 -0.4985  0.3819 -0.1943
17388TIP3    H273580   6.545   0.159   1.780 -0.6163  0.6542 -0.6051
17389TIP3   OH273581   2.900   1.628   6.086 -0.3865 -0.1603  0.0054
17389TIP3    H173582   2.849   1.639   6.006 -0.3421 -2.3628 -0.3881
17389TIP3    H273583   2.990   1.623   6.056 -0.3700 -0.9885  0.1745
17390TIP3   OH273584   2.073   6.178  17.322 -0.1753 -0.4161  0.4225
17390TIP3    H173585   2.076   6.102  17.265  0.0865 -0.3603  0.3604
17390TIP3    H273586   2.159   6.180  17.365  1.3551  1.9886 -2.3772
17391TIP3   OH273587   6.346   4.247  12.602 -0.1834 -0.3350 -0.4160
17391TIP3    H173588   6.333   4.159  12.638  2.6969 -0.4670  0.5044
17391TIP3    H273589   6.272   4.297  12.638 -1.2915 -2.0970 -0.0860
17392TIP3   OH273590   4.609   3.125  14.433 -0.3493 -0.0174 -0.5610
17392TIP3    H173591   4.576   3.207  14.469 -0.6884 -0.6640  0.6373
17392TIP3    H273592   4.702   3.124  14.456 -0.4116 -0.1059 -0.3123
17393TIP3   OH273593   0.317   3.011   4.739 -0.1102 -0.0693  0.5331
17393TIP3    H173594   0.393   3.062   4.768 -0.7313  0.6736  0.9154
17393TIP3    H273595   0.334   2.923   4.771  0.8708 -0.0598  0.0863
17394TIP3   OH273596   1.998   0.652  11.183 -0.0389  0.1749  0.1288
17394TIP3    H173597   1.985   0.579  11.122 -2.4546  0.7735 -0.1885
17394TIP3    H273598   1.912   0.666  11.222  1.2439  0.3555  3.1368
17395TIP3   OH273599   2.409   3.517   5.166 -0.1410 -0.2186 -0.3625
17395TIP3    H173600   2.324   3.559   5.169 -0.0590 -0.0971  0.3936
17395TIP3    H273601   2.409   3.455   5.239  0.9012  0.7391  0.4908
17396TIP3   OH273602   6.197   1.845   1.148  0.2850  0.3424  0.4682
17396TIP3    H173603   6.276   1.843   1.093 -0.0882  1.0918 -0.1145
17396TIP3    H273604   6.180   1.753   1.169  1.5890  0.2087  1.0116
17397TIP3   OH273605   4.986   1.917  15.050  0.6554  0.0025  0.6177
17397TIP3    H173606   4.910   1.863  15.028  1.9137 -1.8909  0.6439
17397TIP3    H273607   4.953   2.006  15.052 -0.9946 -0.4044 -2.2275
17398TIP3   OH273608   0.886   2.940  16.731  0.0926  0.1839 -0.9222
17398TIP3    H173609   0.841   3.019  16.702 -1.2935  0.2867  1.2593
17398TIP3    H273610   0.947   2.970  16.797 -0.5071 -0.5398 -0.0103
17399TIP3   OH273611   6.614   3.970   0.686  0.0666  0.0932 -0.5046
17399TIP3    H173612   6.690   3.960   0.628  1.4970  0.7053  1.1643
17399TIP3    H273613   6.587   3.880   0.705  1.6607 -0.2380  0.4192
17400TIP3   OH273614   3.446   5.631   4.900  0.3668 -0.4037  0.5589
17400TIP3    H173615   3.420   5.701   4.840 -1.6268 -1.3805  0.1981
17400TIP3    H273616   3.499   5.571   4.847 -0.4690 -0.7035  0.0470
17401TIP3   OH273617   3.403   0.693   1.585 -0.0156 -0.1035 -0.9276
17401TIP3    H173618   3.382   0.659   1.498  0.2174 -0.2312 -0.9348
17401TIP3    H273619   3.444   0.778   1.568 -2.8061  1.3870 -0.8294
17402TIP3   OH273620   6.503   0.680  12.401 -0.2748  0.7070  0.6659
17402TIP3    H173621   6.479   0.626  12.477  1.8298  1.9174  2.3202
17402TIP3    H273622   6.597   0.696  12.413 -0.3362  2.6843 -1.0912
17403TIP3   OH273623   2.485   2.040  15.597  0.8140  0.1397  0.0369
17403TIP3    H173624   2.579   2.028  15.609  1.0820  1.2742 -0.7006
17403TIP3    H273625   2.477   2.127  15.557 -0.3462 -0.9272 -2.2870
17404TIP3   OH273626   6.626   2.844  10.392  0.1767  0.0632 -0.2149
17404TIP3    H173627   6.697   2.856  10.456  0.0925 -1.2619  0.1434
17404TIP3    H273628   6.625   2.926  10.343  1.8269  0.1933 -0.0909
17405TIP3   OH273629   3.804   1.269  10.596 -0.4521  0.1385 -0.2540
17405TIP3    H173630   3.784   1.355  10.634 -0.2699  1.0151 -2.0514
17405TIP3    H273631   3.731   1.213  10.624  0.2406  0.3892  2.2943
17406TIP3   OH273632   1.970   4.052  12.134 -0.3291  0.1863 -0.4261
17406TIP3    H173633   2.040   4.020  12.077 -0.4618  2.1425 -1.8137
17406TIP3    H273634   1.992   4.017  12.220  0.9896 -1.2546 -1.2848
17407TIP3   OH273635   4.580   4.845  11.433 -0.4099 -0.2797 -0.2215
17407TIP3    H173636   4.633   4.852  11.511 -0.0842 -0.2960 -0.4409
17407TIP3    H273637   4.577   4.934  11.397 -1.9696  0.0872  0.7242
17408TIP3   OH273638   5.656   1.912   1.949  0.3555  0.2224  0.4019
17408TIP3    H173639   5.714   1.960   2.009  2.3820 -1.5874 -0.0003
17408TIP3    H273640   5.588   1.875   2.006  0.7802  0.6483  1.2057
17409TIP3   OH273641   1.788   3.907  13.379 -0.0113 -0.2501 -0.0881
17409TIP3    H173642   1.842   3.985  13.363  0.4954 -0.3044  1.2253
17409TIP3    H273643   1.698   3.937  13.364  0.2542  0.3212 -0.5721
17410TIP3   OH273644   6.576   2.759  12.893  0.1888 -0.0880  0.2682
17410TIP3    H173645   6.497   2.706  12.880 -0.5896  1.2048 -0.6538
17410TIP3    H273646   6.640   2.722  12.832 -0.3682  0.0640 -0.4281
17411TIP3   OH273647   2.715   2.574   5.689  0.2397 -0.0183  0.0055
17411TIP3    H173648   2.709   2.650   5.631  0.7036 -0.4820 -0.6613
17411TIP3    H273649   2.686   2.500   5.636  1.0804 -0.5189  0.2186
17412TIP3   OH273650   2.485   0.820   0.454  0.4837  0.2958  0.1004
17412TIP3    H173651   2.449   0.908   0.461  0.2381  0.1533  0.7476
17412TIP3    H273652   2.540   0.822   0.375 -1.1407  0.4477 -1.0680
17413TIP3   OH273653   2.612   3.405   2.603  0.0552 -0.4559  0.3864
17413TIP3    H173654   2.627   3.363   2.688  0.4073  0.4805  0.7988
17413TIP3    H273655   2.664   3.353   2.542 -1.9102 -2.4785  0.3241
17414TIP3   OH273656   3.245   0.566   2.306  0.2374  0.3582 -0.5597
17414TIP3    H173657   3.166   0.619   2.302  0.4273  0.6219 -0.9288
17414TIP3    H273658   3.284   0.586   2.391  0.7093  1.4031 -1.0042
17415TIP3   OH273659   6.114   1.221   0.889  0.4324  0.1705  0.4522
17415TIP3    H173660   6.051   1.288   0.861 -0.3694 -0.4893  0.6304
17415TIP3    H273661   6.139   1.176   0.809 -0.2073 -0.3088  0.5144
17416TIP3   OH273662   0.131   5.707  16.757  0.0939 -0.7589  0.0652
17416TIP3    H173663   0.160   5.795  16.784 -0.9349 -0.8495  1.5584
17416TIP3    H273664   0.100   5.719  16.667  1.9700 -0.0688 -0.5554
17417TIP3   OH273665   2.016   4.248  16.575  0.4291 -0.1159  0.2747
17417TIP3    H173666   1.989   4.323  16.523 -2.7498 -0.9053  0.5661
17417TIP3    H273667   2.022   4.176  16.513  3.8077  0.3318 -0.0622
17418TIP3   OH273668   0.072   4.047   2.035 -0.1730 -0.1701 -0.2159
17418TIP3    H173669   0.012   4.105   2.082 -0.4759 -1.0455  0.5128
17418TIP3    H273670   0.128   4.011   2.103  0.1133 -0.6072 -0.6782
17419TIP3   OH273671   6.314   5.139  14.969 -0.3900 -0.3056 -0.0921
17419TIP3    H173672   6.363   5.060  14.947  0.1556  0.2027 -0.7559
17419TIP3    H273673   6.275   5.167  14.886 -1.8171 -0.6955  0.4207
17420TIP3   OH273674   3.679   2.294  16.960 -0.2671 -0.4204 -0.0145
17420TIP3    H173675   3.742   2.356  16.996 -1.2762 -0.1215  1.3206
17420TIP3    H273676   3.732   2.229  16.914  0.7548  2.2666 -2.9267
17421TIP3   OH273677   2.622   2.961   1.843  0.7418 -0.4219  0.0700
17421TIP3    H173678   2.636   2.942   1.750 -1.3144 -1.1566 -0.1374
17421TIP3    H273679   2.528   2.954   1.855  0.7580  1.4707  1.8522
17422TIP3   OH273680   4.505   3.045  12.697  0.7946  0.8021 -0.7158
17422TIP3    H173681   4.500   2.992  12.617 -0.3001 -0.6778  0.2909
17422TIP3    H273682   4.416   3.077  12.711 -0.2805 -2.9315  2.4280
17423TIP3   OH273683   3.014   4.893  17.203 -0.2476 -0.1939 -0.2846
17423TIP3    H173684   2.947   4.833  17.234 -1.7490  1.3874 -0.2758
17423TIP3    H273685   3.079   4.838  17.159 -1.1736 -1.8497  0.3592
17424TIP3   OH273686   6.379   0.150   0.589 -0.3474  0.0221 -0.1433
17424TIP3    H173687   6.294   0.144   0.634 -0.6849 -1.9843 -0.9636
17424TIP3    H273688   6.372   0.229   0.536 -0.8288  1.1295  1.4975
17425TIP3   OH273689   0.040   2.011   5.018 -0.0355  0.2019 -0.2722
17425TIP3    H173690   0.047   1.962   5.100 -3.2171 -1.1933 -0.6709
17425TIP3    H273691   0.010   2.098   5.046 -1.2313 -0.3042  0.1003
17426TIP3   OH273692   2.824   5.189  15.824 -0.2501  0.2681 -0.1855
17426TIP3    H173693   2.861   5.220  15.907 -1.0639 -1.1753  0.7637
17426TIP3    H273694   2.886   5.218  15.757  0.8367  0.7651  1.0045
17427TIP3   OH273695   4.337   1.330  11.280 -0.3446 -0.3984 -0.1937
17427TIP3    H173696   4.311   1.258  11.223  1.2277 -2.1553  1.1855
17427TIP3    H273697   4.433   1.331  11.274 -0.2767  0.7893  0.7618
17428TIP3   OH273698   2.443   2.241  15.440  0.2681  0.1032 -0.0697
17428TIP3    H173699   2.477   2.300  15.373  0.6169 -0.7270 -0.6433
17428TIP3    H273700   2.367   2.199  15.399  1.3417 -1.4869 -0.4993
17429TIP3   OH273701   5.041   2.513   2.468 -0.5189  0.4218 -0.4185
17429TIP3    H173702   5.125   2.538   2.428  0.5306 -0.7047  0.9748
17429TIP3    H273703   5.033   2.570   2.544  0.5439 -1.4387  1.1975
17430TIP3   OH273704   3.900   5.328  16.609  0.1978 -0.0819  0.1483
17430TIP3    H173705   3.939   5.257  16.559 -1.6700 -2.2668  1.6412
17430TIP3    H273706   3.924   5.310  16.700 -1.3554  0.4603  0.6968
17431TIP3   OH273707   6.537   5.092   5.168  0.1695  0.1871  0.6188
17431TIP3    H173708   6.544   5.113   5.261  1.2316 -0.4371  0.6903
17431TIP3    H273709   6.612   5.035   5.150 -0.1772  0.0746 -0.5584
17432TIP3   OH273710   4.274   0.688   5.662  0.9546  0.5972  0.1176
17432TIP3    H173711   4.315   0.608   5.627 -0.7780  0.4662 -1.8605
17432TIP3    H273712   4.231   0.659   5.742  0.7169 -0.3936 -0.3399
17433TIP3   OH273713   1.475   4.245   0.480  0.9794 -0.4659 -0.2213
17433TIP3    H173714   1.461   4.217   0.389  0.5280 -1.3399  0.1022
17433TIP3    H273715   1.456   4.166   0.532  1.2298  0.0267  0.6296
17434TIP3   OH273716   2.248   6.704  13.251 -0.9364 -0.6037  0.1720
17434TIP3    H173717   2.154   6.714  13.242 -0.7553 -0.3110 -1.8812
17434TIP3    H273718   2.259   6.642  13.324 -2.7055 -0.9642  0.1716
17435TIP3   OH273719   5.490   2.892  15.386 -0.2906 -0.0314  0.0279
17435TIP3    H173720   5.485   2.814  15.442 -1.5093 -0.4320 -0.5834
17435TIP3    H273721   5.574   2.885  15.341  0.5480  0.1151  1.5239
17436TIP3   OH273722   2.093   0.081  11.675 -0.2619 -0.4404 -0.4652
17436TIP3    H173723   2.141   0.147  11.625 -0.2156 -0.5784 -0.6064
17436TIP3    H273724   2.161   0.022  11.708 -0.1955  0.2718  0.6938
17437TIP3   OH273725   4.150   1.766  14.510  0.4792  0.6455  0.3874
17437TIP3    H173726   4.113   1.767  14.599  0.2520  0.6151  0.2949
17437TIP3    H273727   4.078   1.735  14.455  1.0147 -0.6400  0.3679
17438TIP3   OH273728   1.591   2.917  15.637  0.0063  0.3230  0.2855
17438TIP3    H173729   1.581   3.000  15.591  1.1075 -0.1256 -0.8305
17438TIP3    H273730   1.649   2.866  15.581  1.6256 -0.1744  2.2905
17439TIP3   OH273731   4.891   2.193  12.568 -0.4759  0.5836  0.1047
17439TIP3    H173732   4.986   2.190  12.580 -0.3864  1.2115 -0.3694
17439TIP3    H273733   4.878   2.257  12.498 -1.2535  0.5323  0.1923
17440TIP3   OH273734   2.204   4.742   6.106 -0.3547 -0.5949  0.0226
17440TIP3    H173735   2.286   4.741   6.057 -1.1802  0.1067 -1.4544
17440TIP3    H273736   2.220   4.687   6.182  0.5596 -2.9384 -1.7514
17441TIP3   OH273737   0.972   6.080  13.280  0.2767  0.3429 -0.0568
17441TIP3    H173738   0.942   5.990  13.295 -0.8511  0.9388  1.3880
17441TIP3    H273739   0.892   6.129  13.261  0.9447  0.9689 -1.3952
17442TIP3   OH273740   6.095   4.320  17.226  0.1248  0.4095  0.4328
17442TIP3    H173741   6.127   4.397  17.274  1.8569  0.3135 -0.4779
17442TIP3    H273742   6.172   4.264  17.218 -0.2809  0.1191 -1.8548
17443TIP3   OH273743   5.654   2.711  11.525 -0.8618 -0.1019  0.2150
17443TIP3    H173744   5.570   2.675  11.554 -0.9406 -0.1030 -0.0193
17443TIP3    H273745   5.717   2.643  11.549 -0.9719 -0.2578  0.0662
17444TIP3   OH273746   3.800   6.090   4.046 -0.2289  0.0126  0.4594
17444TIP3    H173747   3.756   6.122   4.125 -0.6185 -0.9360  0.6496
17444TIP3    H273748   3.890   6.074   4.074 -0.3754 -0.3599  0.7398
17445TIP3   OH273749   2.164   3.959  16.935 -0.5077  0.0351 -0.4958
17445TIP3    H173750   2.166   3.866  16.954 -2.1834 -0.0931 -0.8092
17445TIP3    H273751   2.249   3.992  16.964 -0.2656 -1.4115  0.4993
17446TIP3   OH273752   0.272   3.457   0.726  0.0909  0.1795  0.3329
17446TIP3    H173753   0.309   3.519   0.663  0.3580  0.0001  0.3120
17446TIP3    H273754   0.259   3.377   0.676  0.7903 -0.1263  0.6264
17447TIP3   OH273755   0.985   0.491   2.481  0.2294  0.1127  0.0596
17447TIP3    H173756   0.905   0.536   2.456  1.2978  1.8720 -0.3713
17447TIP3    H273757   0.998   0.512   2.573  0.3065  0.0099  0.0736
17448TIP3   OH273758   5.021   3.703  15.768  0.2385  0.1077 -0.2307
17448TIP3    H173759   4.968   3.734  15.841 -1.1825 -0.1816 -1.1063
17448TIP3    H273760   4.965   3.640  15.722  1.7807 -1.1425 -0.5037
17449TIP3   OH273761   0.238   0.540  11.146  0.3204  0.6152  0.4654
17449TIP3    H173762   0.285   0.604  11.093  0.3076 -0.2147 -0.5842
17449TIP3    H273763   0.184   0.492  11.083  2.4496 -2.3325  0.6979
17450TIP3   OH273764   5.328   2.426   0.885  0.7013 -0.4814  0.2933
17450TIP3    H173765   5.320   2.331   0.895  0.7660 -0.5413 -0.1676
17450TIP3    H273766   5.242   2.454   0.856  0.7675 -0.4455  0.1272
17451TIP3   OH273767   6.592   1.843  15.186 -0.1589  0.4866 -0.4890
17451TIP3    H173768   6.565   1.882  15.270 -5.1780 -1.0650 -1.0182
17451TIP3    H273769   6.562   1.907  15.121  0.8636  0.2835 -1.1652
17452TIP3   OH273770   6.558   3.393   5.841  0.1382 -0.1601  0.0145
17452TIP3    H173771   6.488   3.435   5.891  0.1521  1.0350 -0.9318
17452TIP3    H273772   6.534   3.300   5.840 -0.4876 -0.0350  1.2016
17453TIP3   OH273773   5.073   0.331  12.140  0.1611  0.5009  0.2220
17453TIP3    H173774   4.978   0.317  12.144  0.0759  0.3810 -1.4864
17453TIP3    H273775   5.092   0.391  12.212 -0.9715 -0.6609  1.5363
17454TIP3   OH273776   4.870   0.536   5.480  0.1674  0.2299  0.1251
17454TIP3    H173777   4.859   0.462   5.419  1.5076  0.8384 -0.8981
17454TIP3    H273778   4.823   0.608   5.439  1.8595  0.8986 -0.6994
17455TIP3   OH273779   4.362   5.969  11.841  0.8036  0.3683  0.2366
17455TIP3    H173780   4.389   6.052  11.803  0.6800  0.1263 -0.4016
17455TIP3    H273781   4.271   5.983  11.868 -0.0983 -0.2541 -2.1506
17456TIP3   OH273782   2.301   3.120  16.861 -0.2825 -0.4651 -0.0475
17456TIP3    H173783   2.291   3.117  16.956 -1.4677  0.5458 -0.1094
17456TIP3    H273784   2.283   3.211  16.838  1.6669 -0.2966 -1.0976
17457TIP3   OH273785   0.078   5.869  15.564  0.1929 -0.1052  0.3925
17457TIP3    H173786   0.150   5.875  15.501  0.5732  0.5133  0.8598
17457TIP3    H273787   0.012   5.929  15.532 -0.0972 -0.6354 -0.0101
17458TIP3   OH273788   6.358   0.248   6.310 -0.1373 -0.3992  0.4449
17458TIP3    H173789   6.341   0.232   6.403  1.0929 -0.0243  0.7446
17458TIP3    H273790   6.272   0.272   6.274 -0.2202  2.0487  2.0403
17459TIP3   OH273791   6.036   6.036  16.368 -0.1734  0.1817  0.2521
17459TIP3    H173792   6.015   6.120  16.327 -1.2087 -0.2185 -0.0590
17459TIP3    H273793   5.990   5.971  16.315 -0.3177 -0.4819  1.1741
17460TIP3   OH273794   3.209   6.250   2.836  0.4626 -0.3546  0.3219
17460TIP3    H173795   3.122   6.228   2.868  1.3381  0.0307  3.2526
17460TIP3    H273796   3.234   6.327   2.887  1.5781  1.1192 -2.2536
17461TIP3   OH273797   3.328   0.736   3.661  0.7168  0.2218  0.0743
17461TIP3    H173798   3.300   0.645   3.651  0.4552  0.3627 -0.4996
17461TIP3    H273799   3.398   0.747   3.595 -1.0921  1.1926 -1.8089
17462TIP3   OH273800   3.312   0.990  16.125  0.0411  0.5183 -0.6951
17462TIP3    H173801   3.405   0.971  16.124 -0.3076 -1.4034 -1.5532
17462TIP3    H273802   3.270   0.908  16.099 -1.9328  1.1455  0.2603
17463TIP3   OH273803   4.947   6.684  12.924 -0.0488  0.0578 -0.3568
17463TIP3    H173804   5.019   6.621  12.926  1.0324  1.2458 -0.6616
17463TIP3    H273805   4.913   6.678  12.835 -0.0709 -0.2259 -0.3304
17464TIP3   OH273806   3.135   0.812  13.345  0.1274 -0.3966 -0.1231
17464TIP3    H173807   3.194   0.844  13.276 -0.4929  0.6128 -0.2043
17464TIP3    H273808   3.055   0.864  13.335  0.3058  0.3692  1.8620
17465TIP3   OH273809   0.843   2.587   2.194  0.3497 -0.1883 -0.6289
17465TIP3    H173810   0.858   2.543   2.278 -3.4357 -1.8386 -0.6250
17465TIP3    H273811   0.884   2.530   2.129  0.6676 -0.5270 -0.1387
17466TIP3   OH273812   6.461   5.409  13.834 -0.1601 -0.4298  0.6360
17466TIP3    H173813   6.443   5.502  13.820  0.3582 -0.5400 -0.8806
17466TIP3    H273814   6.554   5.405  13.854  0.3588 -0.8065 -1.6189
17467TIP3   OH273815   2.886   2.063  15.833 -0.1824  0.4211  0.1922
17467TIP3    H173816   2.881   2.155  15.804 -1.0712  0.2360 -0.2674
17467TIP3    H273817   2.980   2.047  15.844 -0.0424  1.5494  0.8058
17468TIP3   OH273818   5.851   3.198  12.193  0.1079 -0.0884  0.1951
17468TIP3    H173819   5.846   3.135  12.265 -1.5855 -0.9663 -0.6450
17468TIP3    H273820   5.773   3.253  12.204  0.2197  0.2342 -0.5668
17469TIP3   OH273821   6.424   1.562  14.803 -0.0808  0.0065  0.3332
17469TIP3    H173822   6.493   1.604  14.854  0.0940 -2.4276  2.2949
17469TIP3    H273823   6.472   1.511  14.737 -0.2329  1.4247 -0.9360
17470TIP3   OH273824   4.244   5.258  15.067  0.3583 -0.1130  0.6878
17470TIP3    H173825   4.192   5.179  15.052 -2.0129  1.3464  0.9105
17470TIP3    H273826   4.225   5.314  14.992  1.8819  0.3608  0.6195
17471TIP3   OH273827   4.621   6.582   0.300 -0.0075 -0.1224 -0.2683
17471TIP3    H173828   4.584   6.641   0.364  0.2788  0.8383 -0.9674
17471TIP3    H273829   4.692   6.632   0.259  0.1508 -0.8969 -0.9714
17472TIP3   OH273830   3.725   3.661  12.296  0.1497 -0.0344  0.2247
17472TIP3    H173831   3.758   3.721  12.363 -1.4501  0.1426  0.9098
17472TIP3    H273832   3.758   3.575  12.322  0.1811  0.1484  0.8013
17473TIP3   OH273833   5.874   5.609  15.710  0.0990 -0.1107 -0.4133
17473TIP3    H173834   5.956   5.563  15.729  0.8518  0.6955 -1.5822
17473TIP3    H273835   5.827   5.549  15.651 -0.0944 -0.4958  0.1196
17474TIP3   OH273836   3.181   3.716   4.603 -0.8800 -0.0081  0.0883
17474TIP3    H173837   3.119   3.757   4.542  0.7857  1.4388 -0.7078
17474TIP3    H273838   3.215   3.641   4.556  0.5314  1.2042 -0.9251
17475TIP3   OH273839   4.938   1.053   1.786 -0.4457  0.2285 -0.4698
17475TIP3    H173840   5.000   1.093   1.847 -0.0853 -1.8055  0.6082
17475TIP3    H273841   4.989   0.983   1.744 -1.4935 -0.2423 -0.9820
17476TIP3   OH273842   0.418   6.402  15.089 -0.1157 -0.1598 -0.3038
17476TIP3    H173843   0.504   6.395  15.048 -0.1867 -0.0376 -0.4726
17476TIP3    H273844   0.387   6.312  15.096  0.4195 -0.2942  0.5968
17477TIP3   OH273845   2.978   0.118   0.237 -0.2487  0.2347  0.0821
17477TIP3    H173846   2.934   0.040   0.270  0.6341  0.0210  0.8125
17477TIP3    H273847   3.057   0.084   0.195  0.1910  0.7351  0.4898
17478TIP3   OH273848   3.204   6.453  13.026 -0.5477  0.5888  0.0258
17478TIP3    H173849   3.188   6.432  13.118  0.0229  0.0685  0.0118
17478TIP3    H273850   3.151   6.390  12.977  0.0049  0.1350 -0.0029
17479TIP3   OH273851   4.771   4.477   4.203 -0.5515 -0.4197  0.0515
17479TIP3    H173852   4.854   4.486   4.155  0.8869 -1.1011  2.2676
17479TIP3    H273853   4.717   4.549   4.169  0.2459 -0.9939 -2.7046
17480TIP3   OH273854   3.549   1.059  17.381 -0.2797 -0.1329  0.8327
17480TIP3    H173855   3.589   1.112  17.312 -0.6777 -1.3652 -0.4003
17480TIP3    H273856   3.488   1.118  17.424 -1.5385  0.1911 -1.2188
17481TIP3   OH273857   2.977   3.693   3.331 -0.4172  0.8364  0.0916
17481TIP3    H173858   3.069   3.714   3.350 -0.5231  0.7013  0.7746
17481TIP3    H273859   2.961   3.612   3.380 -1.3299  1.6642  1.2080
17482TIP3   OH273860   1.407   5.860   6.668 -0.6537  0.3402  0.4006
17482TIP3    H173861   1.466   5.927   6.701 -1.8694  2.9388 -2.3105
17482TIP3    H273862   1.464   5.801   6.618  0.3874 -0.6841  2.6373
17483TIP3   OH273863   2.713   6.694  14.504  0.2013  0.3227 -0.0872
17483TIP3    H173864   2.641   6.668  14.562  0.1353 -0.1023 -0.3583
17483TIP3    H273865   2.670   6.737  14.430 -0.0197 -2.2969 -1.5832
17484TIP3   OH273866   2.013   1.567  13.947 -0.1276 -0.1612 -0.1447
17484TIP3    H173867   1.993   1.597  14.036 -1.7746  1.4111 -0.9902
17484TIP3    H273868   1.945   1.605  13.893 -0.3286 -2.7188 -1.8483
17485TIP3   OH273869   5.164   4.441  16.175  0.5311 -0.0806 -0.1834
17485TIP3    H173870   5.148   4.365  16.118  2.6854  0.8844 -2.2625
17485TIP3    H273871   5.210   4.405  16.251 -1.6628 -1.2886  0.6589
17486TIP3   OH273872   2.046   6.342   1.853  0.2971 -0.3105 -0.1531
17486TIP3    H173873   2.011   6.430   1.866  0.7815 -0.2745  1.0189
17486TIP3    H273874   2.056   6.307   1.941 -1.4363 -2.1720 -0.6450
17487TIP3   OH273875   3.281   1.741   2.838  0.1028  0.0839  0.0223
17487TIP3    H173876   3.333   1.822   2.838  0.9401 -0.4375 -0.2498
17487TIP3    H273877   3.256   1.728   2.747  0.4135 -0.2342 -0.0200
17488TIP3   OH273878   3.629   3.928  16.492  0.2453  0.4782 -0.4172
17488TIP3    H173879   3.573   3.955  16.565 -1.0924  0.6373 -1.4618
17488TIP3    H273880   3.706   3.985  16.499 -0.0887  0.8342  0.5739
17489TIP3   OH273881   5.074   0.447   3.758  0.0552  0.0504  0.3926
17489TIP3    H173882   5.139   0.458   3.689 -0.2212  0.1623  0.1481
17489TIP3    H273883   5.112   0.488   3.835  0.0229  0.6407  0.0969
17490TIP3   OH273884   4.819   5.395   5.529 -0.5182 -0.1072  0.7300
17490TIP3    H173885   4.903   5.353   5.509  0.0023  1.4042 -0.4739
17490TIP3    H273886   4.844   5.481   5.562 -1.5941 -0.1717  1.7730
17491TIP3   OH273887   4.035   2.606   3.796 -0.2906 -0.7095 -0.5002
17491TIP3    H173888   3.964   2.577   3.738  0.0181  0.8262 -1.7124
17491TIP3    H273889   3.994   2.672   3.852  0.0982 -0.0040 -1.0314
17492TIP3   OH273890   5.786   3.562  10.737 -0.2147 -0.1206  0.1088
17492TIP3    H173891   5.848   3.635  10.728  1.0413 -1.3718 -2.3869
17492TIP3    H273892   5.820   3.495  10.679 -1.6451 -2.5360  1.8935
17493TIP3   OH273893   1.722   0.800  13.468 -0.0760  0.6137  0.1179
17493TIP3    H173894   1.705   0.727  13.527  2.6378  0.6403  1.0376
17493TIP3    H273895   1.637   0.845  13.461 -1.7071 -2.2590 -0.0851
17494TIP3   OH273896   0.454   0.898   1.865 -0.1630  0.0588 -0.6761
17494TIP3    H173897   0.549   0.909   1.856 -0.0881 -1.8011 -2.9614
17494TIP3    H273898   0.443   0.806   1.889 -1.3572  0.9059  2.6985
17495TIP3   OH273899   3.865   5.764  16.167 -0.2572  0.0073 -0.0336
17495TIP3    H173900   3.819   5.846  16.183  0.7522  0.2439  1.9996
17495TIP3    H273901   3.957   5.789  16.160 -0.0455 -0.8524 -0.4698
17496TIP3   OH273902   2.307   2.141  15.233 -0.3294  0.2851 -0.0076
17496TIP3    H173903   2.256   2.064  15.209  0.7441 -0.3110 -0.4685
17496TIP3    H273904   2.289   2.204  15.163 -1.0606  0.3948  0.2708
17497TIP3   OH273905   2.704   6.528   4.090  0.0865  0.2403 -0.2293
17497TIP3    H173906   2.625   6.508   4.140  0.1681 -1.7728 -0.7959
17497TIP3    H273907   2.729   6.616   4.117 -1.9103  0.6167  0.5237
17498TIP3   OH273908   3.096   0.749  16.614  0.1699 -0.0602 -0.5750
17498TIP3    H173909   3.163   0.690  16.649 -0.2630  0.2695  0.8854
17498TIP3    H273910   3.018   0.695  16.607  0.0711  0.0495 -0.3347
17499TIP3   OH273911   5.207   6.496   1.559 -0.2170 -0.0645  0.5037
17499TIP3    H173912   5.263   6.571   1.579 -1.4690  0.4258  2.4399
17499TIP3    H273913   5.263   6.420   1.575  1.4015  0.3421 -2.5159
17500TIP3   OH273914   6.307   6.262   1.571 -0.1234 -0.1007  0.2903
17500TIP3    H173915   6.313   6.277   1.666  0.5504 -0.4953  0.3204
17500TIP3    H273916   6.398   6.269   1.540 -0.3311 -0.0603 -0.3094
17501TIP3   OH273917   4.557   6.254   2.092 -0.4925 -0.2859 -0.0029
17501TIP3    H173918   4.642   6.291   2.068 -1.2260  0.8848 -0.8788
17501TIP3    H273919   4.524   6.214   2.011 -0.9124 -0.4630  0.2528
17502TIP3   OH273920   1.589   2.826   2.422 -0.1053  0.1211  0.2320
17502TIP3    H173921   1.561   2.845   2.511  0.1202 -2.9566  1.0685
17502TIP3    H273922   1.510   2.837   2.369 -0.1276  2.4736  0.6369
17503TIP3   OH273923   2.914   4.068   5.463  0.5441  0.1764 -0.3552
17503TIP3    H173924   2.984   4.108   5.411  1.9199 -0.1796  1.1545
17503TIP3    H273925   2.861   4.021   5.398  1.2349  1.0822 -1.6343
17504TIP3   OH273926   2.527   1.401   1.244 -0.3294 -0.1318  0.2011
17504TIP3    H173927   2.601   1.347   1.215 -0.1073  0.3903 -0.2137
17504TIP3    H273928   2.461   1.338   1.273 -0.1585 -0.6299 -0.4853
17505TIP3   OH273929   2.918   3.243   1.170 -0.0648  0.3241 -0.5080
17505TIP3    H173930   2.963   3.305   1.228  0.1434  0.1134 -0.4478
17505TIP3    H273931   2.962   3.253   1.086  1.3344 -1.2161  0.0023
17506TIP3   OH273932   6.159   2.636  14.370  0.1975 -0.2267 -0.1277
17506TIP3    H173933   6.137   2.623  14.462 -1.9940 -0.3601 -0.6316
17506TIP3    H273934   6.130   2.556  14.327 -0.3162  0.5154 -1.1804
17507TIP3   OH273935   3.557   0.264  12.682  0.0085  0.1125 -0.7899
17507TIP3    H173936   3.637   0.255  12.630  0.6521 -0.2751  0.2497
17507TIP3    H273937   3.562   0.193  12.746 -0.7916  0.5559 -0.2249
17508TIP3   OH273938   2.928   3.859   0.135  0.2844  0.0180  0.3787
17508TIP3    H173939   2.913   3.870   0.229 -1.0268 -1.0680  0.3207
17508TIP3    H273940   3.003   3.799   0.130  0.2230 -0.0901  0.7332
17509TIP3   OH273941   1.914   0.860   5.933 -0.4753  0.1669 -0.5993
17509TIP3    H173942   1.976   0.852   5.860  1.5133  0.9529  0.9038
17509TIP3    H273943   1.935   0.787   5.990  0.0571  1.2001  0.5888
17510TIP3   OH273944   6.244   0.194  12.303  0.3624 -0.6120 -0.5738
17510TIP3    H173945   6.319   0.222  12.250 -0.6439  0.4014 -1.5155
17510TIP3    H273946   6.281   0.176  12.389  1.5733  0.6085 -0.8094
17511TIP3   OH273947   6.219   5.088  14.512 -0.3516  0.3062 -0.3533
17511TIP3    H173948   6.125   5.092  14.495 -0.4600  1.2832  0.4045
17511TIP3    H273949   6.257   5.053  14.431 -1.2038  1.4161 -1.2612
17512TIP3   OH273950   3.743   2.361   3.334  0.5386  0.4739  0.4278
17512TIP3    H173951   3.658   2.404   3.328  2.1150  3.8347 -0.1234
17512TIP3    H273952   3.747   2.327   3.423 -1.4773 -0.1424  0.3360
17513TIP3   OH273953   1.551   4.987   4.123  0.4947  0.0838  0.2175
17513TIP3    H173954   1.606   4.966   4.199  0.4234 -1.2260 -0.0748
17513TIP3    H273955   1.486   4.917   4.119  0.1250  0.4547 -0.7086
17514TIP3   OH273956   5.532   2.720   5.139 -0.2405 -0.6588  0.4122
17514TIP3    H173957   5.545   2.634   5.099 -0.7528  0.3832 -2.1970
17514TIP3    H273958   5.605   2.772   5.108 -1.8561  0.8124 -1.0944
17515TIP3   OH273959   3.283   5.506   0.702  0.2246 -0.0438  0.2684
17515TIP3    H173960   3.240   5.591   0.694  2.2463  0.9232 -1.4111
17515TIP3    H273961   3.376   5.525   0.698  0.8800 -2.1333  2.6757
17516TIP3   OH273962   0.878   3.132  12.649 -0.5561  0.7898 -0.4700
17516TIP3    H173963   0.969   3.104  12.641 -1.1577 -1.0588 -1.4141
17516TIP3    H273964   0.855   3.113  12.740  0.0881  1.6433 -0.1122
17517TIP3   OH273965   1.142   5.638  12.506 -0.4473 -0.0813  0.0085
17517TIP3    H173966   1.229   5.602  12.490 -0.9645 -2.2767  1.6208
17517TIP3    H273967   1.149   5.731  12.483  1.2787 -0.9022 -3.5266
17518TIP3   OH273968   5.670   4.185  14.451 -0.2104 -0.7210  0.7489
17518TIP3    H173969   5.730   4.133  14.397  1.1505  0.6664  0.8560
17518TIP3    H273970   5.686   4.275  14.424 -0.8295 -0.1617  2.1810
17519TIP3   OH273971   5.266   4.597   4.568 -0.2652  0.1090 -0.7116
17519TIP3    H173972   5.243   4.637   4.652 -0.1746 -0.0114 -0.6294
17519TIP3    H273973   5.291   4.507   4.591  2.3138  0.7935 -0.5155
17520TIP3   OH273974   3.923   1.011  16.401  0.5577  0.1320  0.1836
17520TIP3    H173975   3.917   1.018  16.496 -1.0610 -0.9400  0.2000
17520TIP3    H273976   3.979   0.935  16.386  1.9992  1.1468  0.2289
17521TIP3   OH273977   6.233   3.148  11.619 -0.4283 -0.2328  0.1153
17521TIP3    H173978   6.317   3.119  11.584 -1.2430 -0.6157 -1.6379
17521TIP3    H273979   6.238   3.130  11.713  2.1398  1.5002  0.4077
17522TIP3   OH273980   1.960   0.812  14.595 -0.2511 -0.4587  0.3456
17522TIP3    H173981   2.036   0.798  14.539  0.7426 -0.0705  1.5468
17522TIP3    H273982   1.966   0.903  14.622 -0.7346 -0.6232  1.0491
17523TIP3   OH273983   3.212   1.202  13.993 -0.6521  0.2077 -0.2079
17523TIP3    H173984   3.241   1.113  13.974 -1.7416 -0.0024 -0.9637
17523TIP3    H273985   3.293   1.251  14.005  0.0856 -0.2584 -2.7210
17524TIP3   OH273986   1.111   5.517  11.809  0.0276 -0.0711 -0.0531
17524TIP3    H173987   1.151   5.528  11.895  2.5086 -1.0644 -0.9746
17524TIP3    H273988   1.043   5.452  11.822  1.0530 -0.9691  0.9967
17525TIP3   OH273989   0.519   5.616   0.528 -0.0698  0.1848 -0.7463
17525TIP3    H173990   0.529   5.596   0.621 -0.0613 -0.8281 -0.9580
17525TIP3    H273991   0.453   5.685   0.525 -0.4344 -0.1288 -0.0289
17526TIP3   OH273992   0.652   1.527   4.062 -0.0384 -0.4140  0.0969
17526TIP3    H173993   0.576   1.536   4.120 -0.1216  0.8071 -0.1905
17526TIP3    H273994   0.615   1.520   3.975  0.0628 -2.7299  0.1703
17527TIP3   OH273995   5.066   6.751   3.043 -0.2956  0.4090 -0.6876
17527TIP3    H173996   5.046   6.711   3.128 -1.8191  2.2352 -0.1375
17527TIP3    H273997   4.997   6.720   2.985 -0.4590  0.8377 -0.7195
17528TIP3   OH273998   1.953   0.981  16.247  0.3884 -0.1030 -0.0060
17528TIP3    H173999   1.943   1.016  16.336 -0.6991 -0.6915  0.1163
17528TIP3    H274000   2.029   1.027  16.212 -0.1788  1.3782  0.6219
17529TIP3   OH274001   6.559   4.497   1.706 -0.1353  0.2011 -0.5744
17529TIP3    H174002   6.562   4.592   1.715 -0.1113  0.2628 -1.1806
17529TIP3    H274003   6.466   4.475   1.703 -0.1587  0.4236 -2.4481
17530TIP3   OH274004   6.446   1.841  16.051 -0.0387 -0.2747 -0.2605
17530TIP3    H174005   6.530   1.822  16.009  0.4119  1.2214 -0.0981
17530TIP3    H274006   6.403   1.755  16.058  1.1886 -0.9809 -0.9298
17531TIP3   OH274007   0.516   5.865   4.818  0.2178  0.4839 -0.3147
17531TIP3    H174008   0.461   5.922   4.765 -1.4964  0.8293  1.7277
17531TIP3    H274009   0.507   5.898   4.907  4.7988  1.3664  0.0580
17532TIP3   OH274010   4.697   6.588  13.664 -0.0653 -0.3382  0.0130
17532TIP3    H174011   4.631   6.627  13.607 -0.4427 -1.0219 -0.0365
17532TIP3    H274012   4.780   6.606  13.622 -0.3705 -1.2686 -1.0324
17533TIP3   OH274013   1.622   3.816   3.031  0.1657 -0.2478  0.0616
17533TIP3    H174014   1.666   3.900   3.042  0.2195 -0.4483  1.7092
17533TIP3    H274015   1.689   3.758   2.996  0.2940  0.2348 -0.5078
17534TIP3   OH274016   5.801   2.371   4.392  0.7371  0.2622  0.2870
17534TIP3    H174017   5.865   2.442   4.396 -0.9711  1.8527  0.5973
17534TIP3    H274018   5.772   2.360   4.482  0.8279 -0.7106  0.2071
17535TIP3   OH274019   3.071   1.063  13.640  0.0858  0.0258 -0.4223
17535TIP3    H174020   3.012   1.033  13.571  0.3054 -0.3932 -0.4337
17535TIP3    H274021   3.071   1.159  13.632 -0.5782  0.0256 -0.4243
17536TIP3   OH274022   5.759   4.153  14.721 -0.1570 -0.1882  0.0293
17536TIP3    H174023   5.831   4.097  14.751 -0.1872 -0.0819  0.3038
17536TIP3    H274024   5.753   4.137  14.627  0.8634  0.5353 -0.1737
17537TIP3   OH274025   5.358   3.644   1.181  1.0878  0.7454  0.2605
17537TIP3    H174026   5.374   3.687   1.265  0.0607 -0.5181  1.1469
17537TIP3    H274027   5.445   3.614   1.154  1.6016  2.1375  0.2906
17538TIP3   OH274028   3.084   0.766  14.692 -0.1989  0.7496 -0.0614
17538TIP3    H174029   3.172   0.779  14.658 -0.4945 -0.7888 -1.5143
17538TIP3    H274030   3.097   0.722  14.776  0.4046  0.5863 -0.2369
17539TIP3   OH274031   6.248   2.873   1.831 -0.3895 -0.3814 -0.1736
17539TIP3    H174032   6.313   2.864   1.760  0.1257  0.1235  0.2232
17539TIP3    H274033   6.243   2.785   1.869  2.4067  0.1876  1.7813
17540TIP3   OH274034   6.759   1.904   0.405 -0.0522 -0.1082  0.7575
17540TIP3    H174035   6.687   1.849   0.435  0.9541 -1.4797  0.7480
17540TIP3    H274036   6.716   1.984   0.374 -1.6266 -1.1291  0.1437
17541TIP3   OH274037   2.995   0.812  13.821  0.2392  0.2921  0.1823
17541TIP3    H174038   3.015   0.751  13.750  0.3004 -0.0473  0.4880
17541TIP3    H274039   2.976   0.895  13.777 -3.0132 -0.6715 -0.5276
17542TIP3   OH274040   0.267   3.389  16.108 -0.2229 -0.1386  0.3522
17542TIP3    H174041   0.192   3.366  16.162  1.2833  1.2987  3.3335
17542TIP3    H274042   0.332   3.321  16.128  0.2926  0.2818  0.1203
17543TIP3   OH274043   4.329   2.363   1.681 -0.5512  0.0606  0.5680
17543TIP3    H174044   4.325   2.405   1.766  1.4916 -1.1580  1.3258
17543TIP3    H274045   4.279   2.282   1.692 -0.8785  0.2312  0.3732
17544TIP3   OH274046   2.783   4.128   2.137  0.6671 -0.5348 -0.0278
17544TIP3    H174047   2.700   4.082   2.146 -0.3776  1.3639  0.5163
17544TIP3    H274048   2.814   4.105   2.049 -0.7218 -0.7875 -0.4671
17545TIP3   OH274049   3.012   6.370  11.972 -0.1077  0.0887 -0.3108
17545TIP3    H174050   2.937   6.394  12.025 -0.0002 -0.0808 -0.0788
17545TIP3    H274051   3.055   6.453  11.951 -0.0930  0.1497 -0.0448
17546TIP3   OH274052   0.807   5.158   1.011 -0.3444 -0.1612  0.3844
17546TIP3    H174053   0.866   5.191   0.943  0.7326  1.5418  2.0411
17546TIP3    H274054   0.722   5.197   0.990 -0.8444 -2.0927 -1.6310
17547TIP3   OH274055   5.140   5.898  14.124  0.1779 -0.3738 -0.0423
17547TIP3    H174056   5.142   5.855  14.209 -1.5041  0.9897  0.7746
17547TIP3    H274057   5.230   5.926  14.109  0.5509 -0.8247  1.1962
17548TIP3   OH274058   6.220   1.212   5.720  0.0610 -0.3313  0.3833
17548TIP3    H174059   6.258   1.191   5.805  2.2083 -0.0479 -0.4465
17548TIP3    H274060   6.292   1.251   5.670 -1.4101  0.4759 -1.2216
17549TIP3   OH274061   0.756   4.661   1.077  0.2782 -0.2700 -0.0168
17549TIP3    H174062   0.839   4.651   1.029 -0.0744  0.5745 -0.8413
17549TIP3    H274063   0.707   4.581   1.056  0.5386 -0.3761 -0.2410
17550TIP3   OH274064   2.325   3.786  12.923  0.0330  0.1321  0.6203
17550TIP3    H174065   2.278   3.785  13.006 -1.7390 -1.2617 -0.3260
17550TIP3    H274066   2.301   3.868  12.882  1.1200  0.9470  1.5527
17551TIP3   OH274067   6.247   6.331   0.528  0.2084  0.2305  0.0949
17551TIP3    H174068   6.271   6.384   0.452 -0.8594  1.3358  0.4801
17551TIP3    H274069   6.151   6.335   0.531  0.1388 -1.1070  0.5977
17552TIP3   OH274070   3.038   4.321  11.917  0.0264 -0.5861  0.4069
17552TIP3    H174071   3.133   4.322  11.925  0.1135 -2.0474 -0.1703
17552TIP3    H274072   3.014   4.229  11.923 -1.1781 -0.4432 -1.3259
17553TIP3   OH274073   5.188   3.313   0.067  0.0971  0.1137 -0.8037
17553TIP3    H174074   5.199   3.280  -0.023  0.3723  0.6841 -0.9822
17553TIP3    H274075   5.274   3.349   0.090 -0.3520  1.2142 -0.8202
17554TIP3   OH274076   5.475   1.604  12.288 -0.3767 -0.0529  0.1503
17554TIP3    H174077   5.505   1.693  12.273  1.8588 -0.7236  0.1973
17554TIP3    H274078   5.518   1.552  12.219  0.2532 -1.3839  1.4663
17555TIP3   OH274079   6.077   1.615   0.872  0.2331  0.4364  0.3921
17555TIP3    H174080   6.008   1.548   0.881  0.6649 -0.0516  0.1388
17555TIP3    H274081   6.064   1.651   0.785 -0.8222  1.6266  1.0173
17556TIP3   OH274082   4.682   2.617  10.820  0.1886 -0.0219  0.3795
17556TIP3    H174083   4.758   2.657  10.779  0.1047  1.5376  1.6466
17556TIP3    H274084   4.655   2.679  10.887 -3.3578  0.4214 -1.2375
17557TIP3   OH274085   2.602   5.543  12.956  0.0990  0.1031  0.1178
17557TIP3    H174086   2.680   5.488  12.944  0.3517  0.2611  0.9768
17557TIP3    H274087   2.587   5.582  12.870  1.1143  0.2583  0.0022
17558TIP3   OH274088   2.028   2.818  15.570 -0.1807 -0.7159  0.4388
17558TIP3    H174089   1.967   2.790  15.502 -0.0249  2.2963 -1.1360
17558TIP3    H274090   2.113   2.782  15.544 -0.6453 -2.0693  0.7425
17559TIP3   OH274091   6.444   6.157  13.016 -0.1815  0.3299 -0.3454
17559TIP3    H174092   6.440   6.229  13.078 -0.7179 -0.3580  0.4395
17559TIP3    H274093   6.424   6.196  12.931  0.5963  1.2881 -0.0976
17560TIP3   OH274094   6.708   6.500   1.259 -0.5883  0.2213 -0.1300
17560TIP3    H174095   6.652   6.440   1.209 -0.7158  0.9235 -0.8436
17560TIP3    H274096   6.744   6.445   1.329  0.6052 -1.1215 -1.7099
17561TIP3   OH274097   5.520   2.016   1.286  0.5213 -0.6977 -0.2008
17561TIP3    H174098   5.435   2.033   1.326  0.7863 -1.8190  0.9125
17561TIP3    H274099   5.507   1.938   1.233  0.3584  0.3638 -1.8061
17562TIP3   OH274100   1.019   2.869   3.027 -0.3196 -0.5719 -0.2295
17562TIP3    H174101   1.030   2.893   3.119  0.7997 -0.8407 -0.2690
17562TIP3    H274102   1.042   2.776   3.024 -0.1879 -0.5264 -0.7974
17563TIP3   OH274103   5.160   1.528  15.990  0.0984 -0.0395  0.0952
17563TIP3    H174104   5.071   1.517  15.956  0.5768  0.5468 -1.4369
17563TIP3    H274105   5.173   1.452  16.047 -2.0815  0.9115  2.0211
17564TIP3   OH274106   5.550   5.741  16.538  0.0884 -0.0125  0.1544
17564TIP3    H174107   5.597   5.787  16.607 -2.1231 -0.9401  2.3899
17564TIP3    H274108   5.574   5.788  16.458  2.9963  0.9045  1.4120
17565TIP3   OH274109   2.750   6.641   1.977  0.0217  0.0420  0.0044
17565TIP3    H174110   2.723   6.676   2.062  0.5078  1.5837 -0.4304
17565TIP3    H274111   2.830   6.591   1.996 -0.0831  0.0581  0.5124
17566TIP3   OH274112   4.045   4.480  15.414  0.0570  0.0438 -0.1492
17566TIP3    H174113   4.108   4.546  15.387 -0.2273 -0.1019 -1.2549
17566TIP3    H274114   3.961   4.525  15.414 -0.3308 -0.5553 -2.1408
17567TIP3   OH274115   2.450   1.041   5.728 -0.5020  0.1886 -0.0961
17567TIP3    H174116   2.454   1.104   5.657  0.3221  0.4780  0.1988
17567TIP3    H274117   2.406   1.088   5.799 -0.4742  0.2083 -0.0922
17568TIP3   OH274118   3.599   0.626  15.745 -0.4874 -0.0609 -0.4319
17568TIP3    H174119   3.650   0.566  15.690 -0.7788 -1.1196  0.4155
17568TIP3    H274120   3.509   0.596  15.737 -0.4690 -0.6102  1.0506
17569TIP3   OH274121   6.522   6.428  16.453  0.0409 -0.0128 -0.8031
17569TIP3    H174122   6.489   6.515  16.475 -1.1660  0.0408 -2.6781
17569TIP3    H274123   6.444   6.377  16.432  0.9054 -0.8140 -2.2039
17570TIP3   OH274124   0.869   1.380   3.697 -0.3411 -0.0259  0.1393
17570TIP3    H174125   0.873   1.287   3.721  0.6485  0.1662  0.8255
17570TIP3    H274126   0.881   1.426   3.780  1.1973  0.6862 -0.4269
17571TIP3   OH274127   0.264   6.565   4.079  0.3636  0.3738  0.2519
17571TIP3    H174128   0.353   6.594   4.061  1.4777 -1.9521  1.6606
17571TIP3    H274129   0.263   6.472   4.057 -1.3448  0.0609  1.4098
17572TIP3   OH274130   5.270   3.266  15.357 -0.3498 -0.1377 -0.0720
17572TIP3    H174131   5.327   3.221  15.418  0.4171  0.4941 -0.3008
17572TIP3    H274132   5.277   3.359  15.380 -0.6660  0.0313 -0.6074
17573TIP3   OH274133   1.567   0.663  14.987  0.0714 -0.6390 -0.6699
17573TIP3    H174134   1.645   0.701  14.947 -0.1607  0.0482 -0.4746
17573TIP3    H274135   1.566   0.572  14.956  1.8399 -1.1407  0.5746
17574TIP3   OH274136   0.226   4.504  16.632 -0.0283 -0.1135  0.4542
17574TIP3    H174137   0.178   4.424  16.652  0.4415 -0.6964 -0.6400
17574TIP3    H274138   0.317   4.475  16.625  0.2384  0.6488  0.7285
17575TIP3   OH274139   4.612   5.873   3.758 -0.1007 -0.3188  0.3553
17575TIP3    H174140   4.565   5.908   3.683 -3.4549 -1.3785  1.7383
17575TIP3    H274141   4.561   5.796   3.784  2.1089 -1.2038  2.4678
17576TIP3   OH274142   0.098   4.102   5.895  0.1798  0.1840 -0.2236
17576TIP3    H174143   0.046   4.031   5.857  1.9342 -0.4532 -1.5932
17576TIP3    H274144   0.067   4.181   5.851  0.2394 -0.1763 -0.9442
17577TIP3   OH274145   1.932   3.876   1.404 -0.0199  0.0595 -0.1976
17577TIP3    H174146   1.896   3.868   1.493  0.9662  0.6349  0.2677
17577TIP3    H274147   1.901   3.797   1.359  0.5282 -0.8911  1.0472
17578TIP3   OH274148   6.372   3.326  14.109 -0.4829  0.1404 -0.0682
17578TIP3    H174149   6.315   3.293  14.178  0.4383 -0.8153  0.2733
17578TIP3    H274150   6.459   3.328  14.149  0.1642 -0.9324 -1.3152
17579TIP3   OH274151   1.647   6.351   2.795 -0.3910  1.1593 -0.0549
17579TIP3    H174152   1.719   6.296   2.763 -0.3762  1.5023 -0.6264
17579TIP3    H274153   1.631   6.413   2.724 -2.5421 -0.1053 -0.8124
17580TIP3   OH274154   3.944   0.254   1.250 -0.2868  0.4216  0.2635
17580TIP3    H174155   4.026   0.248   1.201 -0.1600  1.0260  0.3855
17580TIP3    H274156   3.903   0.168   1.241  0.5075  0.0141  0.4679
17581TIP3   OH274157   2.298   0.126   5.119 -0.3755  0.1279  0.0188
17581TIP3    H174158   2.292   0.044   5.069  0.4875  0.7680 -1.1985
17581TIP3    H274159   2.345   0.102   5.199  1.6713 -0.2309 -1.2142
17582TIP3   OH274160   6.211   3.963  11.475  0.1469 -0.1801 -0.2867
17582TIP3    H174161   6.204   3.879  11.430 -2.2377 -1.0935  1.5521
17582TIP3    H274162   6.260   3.944  11.554 -2.9694 -0.7081  1.6809
17583TIP3   OH274163   1.693   0.252  11.667 -0.8697  0.0312  0.0528
17583TIP3    H174164   1.722   0.209  11.747  1.1851  2.0229  0.4705
17583TIP3    H274165   1.735   0.203  11.596 -0.1550  0.1550  0.3899
17584TIP3   OH274166   3.145   4.479   5.138  0.2302  0.3412 -0.3666
17584TIP3    H174167   3.116   4.559   5.182 -0.1224 -0.7652  1.5536
17584TIP3    H274168   3.235   4.466   5.167 -0.0201 -0.4323  0.1109
17585TIP3   OH274169   5.777   4.006  16.553 -0.3548  0.3337  0.1210
17585TIP3    H174170   5.798   3.926  16.505 -1.1979  0.8249 -1.1287
17585TIP3    H274171   5.682   4.002  16.566 -0.6577  1.7502 -1.2293
17586TIP3   OH274172   2.414   3.393  15.086 -0.3512  0.2098 -0.4370
17586TIP3    H174173   2.434   3.338  15.161 -2.9790  0.2339  0.3799
17586TIP3    H274174   2.419   3.334  15.011 -0.2017 -0.4161  0.0616
17587TIP3   OH274175   0.227   2.569  15.790 -0.0381  0.1850 -0.3604
17587TIP3    H174176   0.244   2.520  15.870  0.5944 -1.3558 -1.3829
17587TIP3    H274177   0.314   2.583  15.752 -0.3263  0.8955 -0.7738
17588TIP3   OH274178   3.582   1.894   0.459 -0.2844 -0.1631 -0.0709
17588TIP3    H174179   3.532   1.972   0.436 -0.2709 -0.2753 -0.4899
17588TIP3    H274180   3.622   1.866   0.376 -1.4594 -1.4615 -0.2338
17589TIP3   OH274181   6.070   1.537  13.245  0.4667  0.4341 -0.0122
17589TIP3    H174182   6.142   1.507  13.300 -1.0337 -0.8529  1.3481
17589TIP3    H274183   6.008   1.577  13.306 -0.7534 -0.0448 -0.9050
17590TIP3   OH274184   1.938   2.190  12.964  0.2424 -0.3025 -0.3830
17590TIP3    H174185   1.874   2.195  12.892 -1.1841 -0.2601  0.8350
17590TIP3    H274186   1.884   2.186  13.043  1.7535  1.9510  0.8643
17591TIP3   OH274187   6.021   0.374   3.531  0.1418 -0.4695  0.4323
17591TIP3    H174188   5.934   0.402   3.558 -0.0712 -0.3928 -0.3322
17591TIP3    H274189   6.022   0.280   3.546 -0.4318 -0.6352 -0.5277
17592TIP3   OH274190   1.808   4.062   3.011  0.4083  0.0793 -0.2207
17592TIP3    H174191   1.837   4.098   2.927 -0.3649 -0.6559 -0.8282
17592TIP3    H274192   1.885   4.016   3.045  0.4209 -0.5794 -1.0859
17593TIP3   OH274193   4.409   0.507  11.412  0.1015 -0.2869  0.1291
17593TIP3    H174194   4.330   0.487  11.463  1.9544 -1.1675  2.9056
17593TIP3    H274195   4.392   0.469  11.326 -1.4676 -2.9107  1.4536
17594TIP3   OH274196   1.755   1.260  11.007  0.0568 -0.0974  0.6398
17594TIP3    H174197   1.696   1.335  11.008 -0.5878 -0.6123  1.4896
17594TIP3    H274198   1.760   1.231  11.098  1.9147  0.1558  0.6539
17595TIP3   OH274199   3.370   6.689   5.374  0.0207 -0.0368  0.4267
17595TIP3    H174200   3.326   6.748   5.435 -1.3938  0.0963 -0.6750
17595TIP3    H274201   3.336   6.602   5.396  1.0018 -0.2667  1.0938
17596TIP3   OH274202   5.393   2.203  12.331 -0.1601 -0.6517  0.5595
17596TIP3    H174203   5.464   2.246  12.378  0.7931 -1.8438  0.2728
17596TIP3    H274204   5.400   2.236  12.242 -0.2132 -0.4565  0.6283
17597TIP3   OH274205   5.616   2.046   2.630 -0.4346  0.2716  0.0026
17597TIP3    H174206   5.553   1.977   2.647 -0.7658  0.4860 -0.3367
17597TIP3    H274207   5.694   2.000   2.599  0.2369 -0.1411  2.1670
17598TIP3   OH274208   2.407   0.438  15.807  0.4577  0.2388 -0.0459
17598TIP3    H174209   2.389   0.373  15.740  0.7671 -0.8151  0.8688
17598TIP3    H274210   2.331   0.435  15.865  1.3613 -0.8187  1.1512
17599TIP3   OH274211   0.097   1.762   3.719  0.5363  0.0551  0.4505
17599TIP3    H174212   0.056   1.746   3.804  1.1667 -1.3074  0.5208
17599TIP3    H274213   0.163   1.693   3.711 -0.5221 -0.7970 -1.8008
17600TIP3   OH274214   5.389   1.477   3.921 -0.5655 -0.2610 -0.0308
17600TIP3    H174215   5.336   1.525   3.985  0.0818  0.4852 -0.0337
17600TIP3    H274216   5.440   1.415   3.974 -0.0674  0.3218  0.1931
17601TIP3   OH274217   2.420   0.068  17.330  0.1681  0.2349  0.0555
17601TIP3    H174218   2.328   0.095  17.339  0.6019  1.8258  0.0446
17601TIP3    H274219   2.433   0.006  17.401 -1.1889 -0.8481 -0.5921
17602TIP3   OH274220   1.822   5.109   2.733 -0.5914  0.6862  0.0062
17602TIP3    H174221   1.727   5.106   2.745 -0.3369 -0.1366  2.1921
17602TIP3    H274222   1.856   5.143   2.816  1.0178  1.2130 -0.8288
17603TIP3   OH274223   3.472   2.583  11.398  0.2077 -0.4387  0.1291
17603TIP3    H174224   3.508   2.518  11.337  0.6745  0.0855 -0.1751
17603TIP3    H274225   3.443   2.655  11.341 -0.4353 -0.4465  0.4490
17604TIP3   OH274226   3.020   2.707  11.562 -0.2516 -0.1138  0.0065
17604TIP3    H174227   3.056   2.796  11.565 -0.3946 -0.0412 -0.3380
17604TIP3    H274228   3.024   2.677  11.652  1.4461 -0.4351 -0.1510
17605TIP3   OH274229   4.594   4.598   3.178 -0.1895 -1.0417  0.5861
17605TIP3    H174230   4.618   4.684   3.145  0.7129 -0.9020  1.5535
17605TIP3    H274231   4.615   4.538   3.107  0.5153 -0.6134  0.4238
17606TIP3   OH274232   0.681   4.495  17.176 -0.4659  0.0178 -0.6094
17606TIP3    H174233   0.720   4.410  17.159  0.2348  0.5869 -2.0539
17606TIP3    H274234   0.587   4.479  17.179 -0.3134 -0.8572 -0.5162
17607TIP3   OH274235   2.982   5.993   0.613  0.4123 -0.2044  0.3415
17607TIP3    H174236   3.067   6.037   0.613  1.1409 -1.5378  0.4517
17607TIP3    H274237   2.980   5.947   0.529 -0.1653 -0.2281  0.3694
17608TIP3   OH274238   2.656   1.435  12.119 -0.0002  0.2201 -0.1902
17608TIP3    H174239   2.650   1.374  12.046  0.0341 -0.4938  0.3906
17608TIP3    H274240   2.669   1.521  12.078 -2.7021  0.2588 -1.1100
17609TIP3   OH274241   6.572   4.600   3.905 -0.2004 -0.5430 -0.0661
17609TIP3    H174242   6.510   4.619   3.835 -0.3422 -1.6214 -0.2560
17609TIP3    H274243   6.648   4.564   3.861  0.5490  0.6783  0.1773
17610TIP3   OH274244   1.555   3.144   5.521  0.0863 -0.3249  0.2417
17610TIP3    H174245   1.507   3.218   5.484 -2.2910 -1.3771  1.0180
17610TIP3    H274246   1.594   3.179   5.601  0.2543  0.4503 -0.1652
17611TIP3   OH274247   3.121   5.008  16.738  0.2508  0.3227 -0.2383
17611TIP3    H174248   3.111   4.927  16.788  0.7231  0.7596  0.5860
17611TIP3    H274249   3.077   4.991  16.655 -0.7316 -0.3539  0.4055
17612TIP3   OH274250   5.850   4.526   2.295 -0.2323  0.0745  0.4215
17612TIP3    H174251   5.801   4.464   2.241 -0.2349 -1.1183  1.7393
17612TIP3    H274252   5.785   4.566   2.352 -0.4538  2.3281 -1.2727
17613TIP3   OH274253   3.329   6.653   6.214  0.3035  0.5519  0.2738
17613TIP3    H174254   3.268   6.612   6.275  0.8285  1.5687  1.5468
17613TIP3    H274255   3.415   6.639   6.254  0.5204  2.5771  0.6358
17614TIP3   OH274256   3.921   1.501   4.529  0.6333  0.6510  0.6574
17614TIP3    H174257   3.837   1.493   4.485  1.0860  1.4922 -0.4170
17614TIP3    H274258   3.954   1.411   4.535  0.2252  0.4514 -0.0574
17615TIP3   OH274259   5.542   1.535  14.876 -0.2890  0.0915  0.6137
17615TIP3    H174260   5.547   1.592  14.799 -3.8044  0.7312  0.7180
17615TIP3    H274261   5.558   1.447  14.841  2.1509  0.7055 -0.0549
17616TIP3   OH274262   6.327   0.357   4.085  0.4905  0.1419  0.0835
17616TIP3    H174263   6.254   0.306   4.121  0.7320  0.0181  0.4097
17616TIP3    H274264   6.287   0.437   4.051  0.4674  1.2406  2.4863
17617TIP3   OH274265   5.688   6.547  14.018  0.3774 -0.5785 -0.0607
17617TIP3    H174266   5.703   6.503  13.934 -0.8614  0.9200 -1.1341
17617TIP3    H274267   5.593   6.552  14.026  0.4613 -1.3477  1.8307
17618TIP3   OH274268   1.931   4.383  13.474  0.1242  0.0227 -0.0979
17618TIP3    H174269   1.996   4.320  13.506 -0.5465 -0.7034 -0.1648
17618TIP3    H274270   1.924   4.366  13.380 -0.9591 -0.6351  0.0933
17619TIP3   OH274271   6.564   2.300  14.857  0.7464 -0.4170 -0.5620
17619TIP3    H174272   6.528   2.313  14.944 -0.8410 -1.3948 -1.0199
17619TIP3    H274273   6.537   2.378  14.808 -0.4672 -0.9544 -0.7893
17620TIP3   OH274274   2.702   0.722   3.568 -0.6592 -0.1860 -0.1234
17620TIP3    H174275   2.755   0.643   3.579 -2.2947 -1.5723 -1.5349
17620TIP3    H274276   2.692   0.731   3.473 -1.7866  0.7955  0.0679
17621TIP3   OH274277   1.006   0.084   2.459 -0.3364 -0.1833  0.5369
17621TIP3    H174278   1.005   0.052   2.550  1.6976 -2.2239 -0.0589
17621TIP3    H274279   1.064   0.160   2.461 -1.3605  0.6098  1.1375
17622TIP3   OH274280   4.322   2.805  14.662  0.7525 -0.3107 -0.0179
17622TIP3    H174281   4.245   2.748  14.671 -0.4108  1.2017  0.1081
17622TIP3    H274282   4.356   2.814  14.751 -0.5552  1.1050  0.3904
17623TIP3   OH274283   4.005   4.826  13.746  0.1933 -0.0396  0.1592
17623TIP3    H174284   4.091   4.823  13.706  0.7966  0.2718  1.3961
17623TIP3    H274285   3.962   4.901  13.706  1.8868  2.1321  2.1617
17624TIP3   OH274286   5.747   3.777   0.180 -0.0483 -0.4483  0.1925
17624TIP3    H174287   5.818   3.839   0.196  1.4108 -2.1352  0.5194
17624TIP3    H274288   5.691   3.784   0.258  1.3672 -1.1729  1.3062
17625TIP3   OH274289   2.842   0.615   2.491 -0.0311 -0.0779  0.5443
17625TIP3    H174290   2.776   0.669   2.448 -0.1830  1.3152  2.4013
17625TIP3    H274291   2.795   0.537   2.519 -0.2159 -0.3964 -0.6025
17626TIP3   OH274292   2.991   4.430  14.595  0.0595 -0.3326 -0.5250
17626TIP3    H174293   2.946   4.500  14.547  1.0651 -0.6231 -1.9462
17626TIP3    H274294   2.982   4.353  14.539  2.3125 -0.4021 -0.8552
17627TIP3   OH274295   0.488   2.684   3.177  0.1849  0.2159 -0.3226
17627TIP3    H174296   0.395   2.694   3.201  0.3698 -1.0153  1.0670
17627TIP3    H274297   0.525   2.632   3.248  2.1415  1.3411 -0.4484
17628TIP3   OH274298   5.154   0.478  12.336 -0.2376 -0.0428  0.2493
17628TIP3    H174299   5.102   0.413  12.383  1.1961 -0.9333  0.6666
17628TIP3    H274300   5.214   0.514  12.402  0.5127  0.0750 -0.4720
17629TIP3   OH274301   3.865   5.407  13.494 -0.0243 -0.1138  0.6515
17629TIP3    H174302   3.942   5.459  13.473 -0.9445  0.5657 -1.2734
17629TIP3    H274303   3.791   5.461  13.466 -1.0386 -2.1892 -1.0313
17630TIP3   OH274304   0.448   3.759   4.871 -0.7003  0.0473  0.2639
17630TIP3    H174305   0.512   3.700   4.911  1.3949  0.3395 -2.3716
17630TIP3    H274306   0.489   3.846   4.875 -1.0436  0.3019 -1.1419
17631TIP3   OH274307   3.560   6.034  12.803  0.2323 -0.1916 -0.2338
17631TIP3    H174308   3.531   6.124  12.818 -1.4753 -0.8630  0.8115
17631TIP3    H274309   3.576   5.999  12.891  0.7393 -0.9724 -0.6216
17632TIP3   OH274310   0.322   5.099  11.367  0.2378  0.4502  1.0802
17632TIP3    H174311   0.362   5.029  11.316  0.4122  1.2371  0.0869
17632TIP3    H274312   0.391   5.129  11.426  0.0638 -0.4060  1.7374
17633TIP3   OH274313   1.988   5.692  14.311 -0.1157  0.1609 -0.3774
17633TIP3    H174314   2.015   5.772  14.355  2.2042 -0.4641 -0.5399
17633TIP3    H274315   1.996   5.711  14.218 -3.3800  0.9226 -0.6472
17634TIP3   OH274316   2.158   0.397  12.795  0.6388  0.3479 -0.0290
17634TIP3    H174317   2.186   0.326  12.854 -0.1030 -0.2192 -0.3388
17634TIP3    H274318   2.068   0.415  12.821  0.0782 -0.3460 -1.3670
17635TIP3   OH274319   1.978   5.766  12.693  0.1894 -0.5692  0.1295
17635TIP3    H174320   1.906   5.752  12.754  0.5005  1.6925  1.1114
17635TIP3    H274321   2.040   5.696  12.712 -0.9808 -1.5779  0.3983
17636TIP3   OH274322   4.196   5.235  14.210 -0.6444  0.2549 -0.3540
17636TIP3    H174323   4.153   5.157  14.175 -1.5134  0.4326  0.2847
17636TIP3    H274324   4.260   5.259  14.144 -0.7779 -0.6606 -0.8266
17637TIP3   OH274325   0.894   1.164   2.355  0.2345  0.4049  0.3448
17637TIP3    H174326   0.816   1.188   2.304  0.8305  1.5388 -0.0751
17637TIP3    H274327   0.965   1.215   2.315  1.1457 -0.4132  0.8830
17638TIP3   OH274328   1.764   0.554  13.673 -0.1351  0.6883 -0.3291
17638TIP3    H174329   1.794   0.591  13.756 -0.9323 -0.2147  0.3714
17638TIP3    H274330   1.669   0.549  13.682 -0.0148 -2.3506 -0.0427
17639TIP3   OH274331   0.788   5.643   1.704  0.5904 -0.4713 -0.0192
17639TIP3    H174332   0.775   5.582   1.631  0.2584  0.1248 -0.4684
17639TIP3    H274333   0.858   5.701   1.674 -0.9122  1.0765 -0.7563
17640TIP3   OH274334   5.652   2.924  13.063  0.2068 -0.3567  0.0763
17640TIP3    H174335   5.745   2.939  13.046  0.5529  0.5350  2.3718
17640TIP3    H274336   5.618   2.886  12.981  2.1529  1.0774 -1.5021
17641TIP3   OH274337   5.835   3.670  14.757  0.4980  0.1644 -0.6410
17641TIP3    H174338   5.842   3.666  14.852 -1.5570  2.9316 -0.2487
17641TIP3    H274339   5.773   3.601  14.734  1.8585 -1.2632 -0.1603
17642TIP3   OH274340   6.056   6.221   4.537  0.5023 -0.3142  0.1098
17642TIP3    H174341   6.066   6.261   4.623  1.2688 -0.3584  0.0514
17642TIP3    H274342   6.055   6.294   4.476  0.7453 -0.3212  0.0959
17643TIP3   OH274343   0.965   1.614   2.014  0.2290  0.5393  0.2491
17643TIP3    H174344   0.923   1.699   2.021  0.5582  0.6779  0.5592
17643TIP3    H274345   0.899   1.552   2.045 -0.4891  0.5343 -1.2150
17644TIP3   OH274346   2.015   4.583   2.840 -0.1687 -0.3774  0.1477
17644TIP3    H174347   1.986   4.674   2.851  1.0539  0.2216 -1.1720
17644TIP3    H274348   1.936   4.536   2.814 -1.0901  0.0208  2.0919
17645TIP3   OH274349   2.335   1.393  16.883  0.0847 -0.0659  0.4404
17645TIP3    H174350   2.352   1.341  16.804  1.0867  1.3276 -0.2930
17645TIP3    H274351   2.419   1.396  16.927  0.0903  1.1051  0.3600
17646TIP3   OH274352   0.485   2.352  15.819  0.1782 -0.0388  0.0931
17646TIP3    H174353   0.541   2.338  15.743  1.3454 -0.7454  1.0419
17646TIP3    H274354   0.503   2.442  15.846 -0.7290  0.4400 -0.8194
17647TIP3   OH274355   6.136   4.476  12.375 -0.0130  1.1684  0.8107
17647TIP3    H174356   6.084   4.527  12.438 -0.0940  0.3701  1.4078
17647TIP3    H274357   6.108   4.386  12.389  2.7012  0.4660  2.3466
17648TIP3   OH274358   4.437   1.088   4.427 -0.6207 -0.3724 -0.3168
17648TIP3    H174359   4.480   1.141   4.360 -1.0502 -0.2680 -0.5129
17648TIP3    H274360   4.393   1.151   4.483 -1.1978 -0.5228 -0.5961
17649TIP3   OH274361   5.964   6.371  17.151  0.4474 -0.1346 -0.4811
17649TIP3    H174362   6.012   6.291  17.171 -0.3283 -0.7843 -1.1604
17649TIP3    H274363   5.888   6.370  17.209 -1.1509 -1.4170 -2.4443
17650TIP3   OH274364   0.248   2.233  15.673  0.3034  0.9137  0.0086
17650TIP3    H174365   0.248   2.140  15.651  1.9523  0.1285  2.8664
17650TIP3    H274366   0.340   2.254  15.688 -0.2317  2.5400  1.1841
17651TIP3   OH274367   2.774   6.269  13.164  0.6437  0.6102 -0.1944
17651TIP3    H174368   2.819   6.197  13.207 -1.1864 -0.9548 -0.8067
17651TIP3    H274369   2.833   6.344  13.176  1.9502 -0.6288  1.6598
17652TIP3   OH274370   1.032   1.892   5.759 -0.3514 -0.4902 -0.0434
17652TIP3    H174371   1.083   1.910   5.680 -1.1686  2.6143  0.0293
17652TIP3    H274372   0.941   1.907   5.733 -0.6132  0.7940  1.5126
17653TIP3   OH274373   4.457   0.353   3.476  0.2721  0.2482 -0.5950
17653TIP3    H174374   4.448   0.444   3.446 -0.4891 -0.6436 -3.3450
17653TIP3    H274375   4.419   0.301   3.405  2.6200 -2.3311 -0.1082
17654TIP3   OH274376   6.022   4.977  15.873 -0.2306 -0.6953  0.4339
17654TIP3    H174377   5.980   5.025  15.802 -1.3267 -1.4442  0.5616
17654TIP3    H274378   6.055   5.045  15.932  0.9525 -0.0526 -0.9035
17655TIP3   OH274379   6.358   3.467  13.553 -0.5545  0.3306 -0.0010
17655TIP3    H174380   6.282   3.477  13.495 -1.5116 -1.9762  0.7624
17655TIP3    H274381   6.329   3.406  13.620  2.2595 -1.3976 -0.2028
17656TIP3   OH274382   3.173   4.524  12.900  0.1602  0.0921 -0.0455
17656TIP3    H174383   3.161   4.467  12.824  0.1837  0.4460 -0.3116
17656TIP3    H274384   3.267   4.523  12.917  0.1201 -0.2547  0.1917
17657TIP3   OH274385   5.162   2.143  13.876 -0.0103 -0.3646 -0.0591
17657TIP3    H174386   5.132   2.196  13.803 -1.9634 -0.4214  0.6483
17657TIP3    H274387   5.169   2.054  13.840 -1.3699 -0.4704 -0.0912
17658TIP3   OH274388   0.488   1.651  13.621  0.4698  0.2065 -0.4632
17658TIP3    H174389   0.539   1.732  13.620  0.1888  0.4099  0.8879
17658TIP3    H274390   0.400   1.678  13.594  0.5526  0.2071 -0.7440
17659TIP3   OH274391   1.582   3.954   5.724 -0.4501 -0.0022  0.1018
17659TIP3    H174392   1.611   3.894   5.793  0.0623  0.0870 -0.0398
17659TIP3    H274393   1.591   3.904   5.643 -2.5568 -0.6798  0.2226
17660TIP3   OH274394   4.291   3.926  14.238 -1.0639  0.2600 -0.0651
17660TIP3    H174395   4.364   3.972  14.278  0.4521 -2.1882  0.2213
17660TIP3    H274396   4.315   3.917  14.146 -2.0207  1.2262 -0.4302
17661TIP3   OH274397   6.123   4.379  16.630  0.7310  0.3161  0.0097
17661TIP3    H174398   6.062   4.327  16.580 -0.7792  0.0629  1.9987
17661TIP3    H274399   6.190   4.317  16.660 -0.3701 -0.2912  1.3101
17662TIP3   OH274400   3.331   6.366   1.016  0.2996 -0.3139  0.5452
17662TIP3    H174401   3.341   6.274   1.038  0.3075  0.0819  2.3225
17662TIP3    H274402   3.420   6.398   1.001  0.3945 -0.3518  1.0201
17663TIP3   OH274403   3.108   3.883  13.488  0.0508  0.1383 -0.0990
17663TIP3    H174404   3.130   3.903  13.579 -0.9680 -0.7979  0.3802
17663TIP3    H274405   3.090   3.968  13.449  0.3818  0.5416  0.6019
17664TIP3   OH274406   6.086   0.718  10.736  0.6339  0.0839  0.5347
17664TIP3    H174407   6.117   0.628  10.740  1.1920  0.2824  0.7189
17664TIP3    H274408   6.165   0.771  10.739  0.2640  0.6170  1.8537
17665TIP3   OH274409   0.623   1.059  10.223  0.3133 -1.1663  0.1605
17665TIP3    H174410   0.573   1.006  10.285 -0.7537  1.0153  1.2610
17665TIP3    H274411   0.649   1.136  10.273  0.3806  0.1511 -1.8075
17666TIP3   OH274412   6.119   4.184   2.321 -0.4683 -0.2499 -0.6615
17666TIP3    H174413   6.116   4.280   2.318 -1.0277 -0.0499  2.5909
17666TIP3    H274414   6.028   4.157   2.319 -0.5229 -0.4315  1.5773
17667TIP3   OH274415   0.810   0.574  13.348  0.0383 -0.2291 -0.2439
17667TIP3    H174416   0.892   0.605  13.308 -0.1865  1.4702  0.5570
17667TIP3    H274417   0.804   0.621  13.431  0.0321 -3.0142  1.4578
17668TIP3   OH274418   5.319   4.895   4.688 -0.0000  0.0929 -0.0925
17668TIP3    H174419   5.238   4.843   4.690  0.4818 -0.6677  0.0467
17668TIP3    H274420   5.352   4.892   4.778  0.4792 -0.0875 -0.2696
17669TIP3   OH274421   6.467   3.849   5.275  0.3190 -0.6239  0.1180
17669TIP3    H174422   6.440   3.778   5.334  1.8822 -1.6236 -0.3177
17669TIP3    H274423   6.439   3.819   5.189 -0.2771 -0.0311  0.0973
17670TIP3   OH274424   6.315   4.547  13.850  0.0694 -0.4027  0.6492
17670TIP3    H174425   6.325   4.581  13.939 -2.5845  0.4565  0.7075
17670TIP3    H274426   6.229   4.504  13.851  0.0691 -0.5343 -1.4594
17671TIP3   OH274427   0.931   6.539  13.168  0.3044 -0.4963  0.2658
17671TIP3    H174428   0.896   6.627  13.180  0.3445 -0.4692  0.1851
17671TIP3    H274429   1.018   6.542  13.208 -0.2937 -0.9332  1.6711
17672TIP3   OH274430   0.418   0.953   4.535 -0.1516 -0.0103  0.1507
17672TIP3    H174431   0.360   0.915   4.601  0.5956 -0.3503  0.6276
17672TIP3    H274432   0.506   0.944   4.573  0.1010  1.8042  0.0873
17673TIP3   OH274433   5.606   3.045  15.799  0.0312  0.1834  0.2150
17673TIP3    H174434   5.701   3.042  15.811  0.2217  0.8855 -0.9635
17673TIP3    H274435   5.576   2.959  15.829  1.1835 -0.5177 -0.5327
17674TIP3   OH274436   4.910   1.183  17.193 -0.2288 -0.5342 -0.3592
17674TIP3    H174437   4.876   1.254  17.138 -2.2124 -0.5493  0.7617
17674TIP3    H274438   4.982   1.146  17.141  0.4348  1.8212 -1.2698
17675TIP3   OH274439   4.570   4.797  15.682 -0.1358  0.2246 -0.1453
17675TIP3    H174440   4.500   4.734  15.701  0.3798  0.0106  1.1966
17675TIP3    H274441   4.538   4.879  15.720  0.5797 -0.0236  1.0693
17676TIP3   OH274442   4.222   6.424   5.730 -0.2945  0.5301  0.1788
17676TIP3    H174443   4.219   6.341   5.777 -2.6083  1.1967  1.3765
17676TIP3    H274444   4.293   6.474   5.771 -0.3226 -0.0381  0.9249
17677TIP3   OH274445   5.724   2.670  11.230 -0.3910 -0.2470  0.1802
17677TIP3    H174446   5.702   2.713  11.313 -3.0413 -2.3794  0.7011
17677TIP3    H274447   5.807   2.626  11.249  1.6681  3.2122  0.0502
17678TIP3   OH274448   3.827   3.689  16.505  0.5413 -0.3371  0.0510
17678TIP3    H174449   3.812   3.601  16.539  0.5989  0.3746  2.0403
17678TIP3    H274450   3.919   3.691  16.481 -0.1074 -1.7371 -3.0518
17679TIP3   OH274451   0.335   3.013   3.849 -0.0546  0.0875  0.4754
17679TIP3    H174452   0.359   3.076   3.781  1.4612 -0.8821  0.0475
17679TIP3    H274453   0.260   2.966   3.812 -0.0286  0.3980  0.0054
17680TIP3   OH274454   1.923   3.165  16.446 -0.1664  0.0147  0.4375
17680TIP3    H174455   1.902   3.082  16.404  1.3593 -0.7631  1.1509
17680TIP3    H274456   1.928   3.144  16.539 -0.6200  1.1027  0.7180
17681TIP3   OH274457   4.346   4.809   4.236 -0.1695  0.0778  0.5968
17681TIP3    H174458   4.281   4.844   4.298  1.7364  3.6089  0.8851
17681TIP3    H274459   4.409   4.763   4.292  0.7410  1.9567  1.1951
17682TIP3   OH274460   2.072   4.728   4.880  0.2361  0.3739  0.2456
17682TIP3    H174461   2.155   4.762   4.846 -0.2337  0.8546 -0.4385
17682TIP3    H274462   2.071   4.756   4.972  0.0583  1.8890 -0.1838
17683TIP3   OH274463   0.450   1.632  12.762  0.6856 -0.1043  0.2530
17683TIP3    H174464   0.505   1.710  12.774  1.3394 -0.6678  1.0294
17683TIP3    H274465   0.365   1.657  12.797  0.5416  0.6614 -0.6201
17684TIP3   OH274466   1.425   3.157  10.992  0.4631  0.1048 -0.0315
17684TIP3    H174467   1.345   3.198  10.959  0.6971  0.2192 -0.4648
17684TIP3    H274468   1.474   3.228  11.033  0.6549  0.1709 -0.3714
17685TIP3   OH274469   4.388   6.749   6.207 -0.4157  0.6317  0.6929
17685TIP3    H174470   4.416   6.832   6.247 -1.2906  1.9057 -1.1681
17685TIP3    H274471   4.392   6.686   6.278  2.1172  1.8306  1.7385
17686TIP3   OH274472   5.563   0.613   0.796 -0.6445  0.2581 -0.3045
17686TIP3    H174473   5.554   0.588   0.888 -2.4543 -1.6813 -0.9476
17686TIP3    H274474   5.658   0.613   0.781 -0.3247  0.3055  1.4611
17687TIP3   OH274475   5.616   5.875   3.085  0.2497 -0.6166  0.1899
17687TIP3    H174476   5.618   5.806   3.151  0.3277 -0.6269  0.1769
17687TIP3    H274477   5.662   5.837   3.010  0.1163 -0.6242  0.1122
17688TIP3   OH274478   1.758   3.694   1.295 -0.0671 -0.3841  0.9315
17688TIP3    H174479   1.674   3.649   1.285  0.3832 -1.1453  0.4840
17688TIP3    H274480   1.805   3.676   1.214 -1.1078  3.6322 -0.7892
17689TIP3   OH274481   6.170   5.749  11.577  0.1448 -0.2701  0.5906
17689TIP3    H174482   6.188   5.686  11.646  1.9098 -2.1163 -1.3952
17689TIP3    H274483   6.240   5.814  11.584  2.5160 -2.3863 -1.4534
17690TIP3   OH274484   0.576   0.169   1.075 -0.0138 -0.1290 -0.6335
17690TIP3    H174485   0.548   0.082   1.103  0.0771 -0.0257 -0.2136
17690TIP3    H274486   0.672   0.165   1.074 -0.0024  0.0713 -0.2774
17691TIP3   OH274487   5.900   3.967  14.367  0.5301  0.1604 -0.3732
17691TIP3    H174488   5.853   3.908  14.426 -0.5884  0.8223 -0.5864
17691TIP3    H274489   5.940   3.909  14.302  0.1796 -0.4312 -0.0684
17692TIP3   OH274490   1.135   4.620   3.427 -0.3604  0.5525  0.7464
17692TIP3    H174491   1.169   4.709   3.434  0.9360  0.0996  0.5257
17692TIP3    H274492   1.042   4.632   3.405 -0.3318  1.8384  1.2078
17693TIP3   OH274493   5.591   4.205  13.122 -0.0130 -0.5135  0.2936
17693TIP3    H174494   5.555   4.215  13.210 -0.6220 -0.0252 -0.0021
17693TIP3    H274495   5.531   4.254  13.066  1.2162  0.4815 -0.2071
17694TIP3   OH274496   4.358   5.682   6.905 -0.1135 -0.4424 -0.2545
17694TIP3    H174497   4.375   5.593   6.935  0.1665  0.1634  1.5365
17694TIP3    H274498   4.285   5.712   6.959  0.1944  0.6086 -0.3950
17695TIP3   OH274499   3.806   5.220  11.590  0.8565  0.3213 -0.2611
17695TIP3    H174500   3.770   5.257  11.671  0.4309 -2.6228  1.0298
17695TIP3    H274501   3.748   5.254  11.521 -2.1946 -1.2140  1.3283
17696TIP3   OH274502   2.580   5.818  12.075  0.1122 -0.7003  0.1137
17696TIP3    H174503   2.530   5.737  12.079 -0.1076 -0.6002 -0.5310
17696TIP3    H274504   2.671   5.790  12.083  0.0330 -1.0019 -0.0155
17697TIP3   OH274505   2.681   5.531  13.424 -0.3552  0.0321 -0.4409
17697TIP3    H174506   2.652   5.608  13.474  0.1860 -0.0852  0.0577
17697TIP3    H274507   2.760   5.560  13.379  0.5184 -0.5509  0.6569
17698TIP3   OH274508   3.542   3.739   1.316 -0.4166  0.3864  0.5366
17698TIP3    H174509   3.471   3.678   1.296 -0.2894  0.3534  0.1821
17698TIP3    H274510   3.501   3.805   1.373 -0.3562 -0.4798  1.6293
17699TIP3   OH274511   3.530   5.381  15.486 -0.1071 -0.6847  0.1148
17699TIP3    H174512   3.607   5.335  15.520  0.1141  0.0384  0.6327
17699TIP3    H274513   3.538   5.470  15.522 -1.0994 -0.5556  0.0483
17700TIP3   OH274514   0.263   5.981  12.739 -0.4358  0.0770 -0.2790
17700TIP3    H174515   0.222   6.067  12.739  0.2463  0.4284  0.7496
17700TIP3    H274516   0.357   5.999  12.741 -0.2912 -0.6676  0.7800
17701TIP3   OH274517   5.477   0.595  11.677 -0.1254 -0.4740 -0.2304
17701TIP3    H174518   5.554   0.606  11.622 -1.2108  0.9755 -1.5451
17701TIP3    H274519   5.460   0.500  11.675  1.1760 -0.7220 -0.5174
17702TIP3   OH274520   3.833   2.825   1.911  0.2667  0.3782 -0.1894
17702TIP3    H174521   3.847   2.753   1.849  2.5347  0.6829 -0.1067
17702TIP3    H274522   3.891   2.805   1.984  1.4943  2.6131 -0.4816
17703TIP3   OH274523   1.375   3.620   0.227 -0.3716 -0.2935  0.1020
17703TIP3    H174524   1.432   3.608   0.303  2.1225 -1.7221 -1.8360
17703TIP3    H274525   1.292   3.578   0.251 -0.5055  1.2925  2.7799
17704TIP3   OH274526   3.837   3.568  13.680  0.8122  0.0108 -0.0058
17704TIP3    H174527   3.917   3.556  13.628  0.3862 -0.7028 -0.5196
17704TIP3    H274528   3.849   3.511  13.756  0.5859 -0.4635 -0.3261
17705TIP3   OH274529   4.137   3.593   5.083 -0.3680  0.2024 -0.2050
17705TIP3    H174530   4.107   3.585   4.992  0.7371  1.3190 -0.6972
17705TIP3    H274531   4.232   3.589   5.077 -0.2975 -0.5658  1.0236
17706TIP3   OH274532   0.003   6.533   3.884  0.2185 -0.3529  0.7750
17706TIP3    H174533  -0.090   6.509   3.886  0.1553 -0.1407  3.1784
17706TIP3    H274534   0.048   6.457   3.921  1.0191 -0.4242 -0.3087
17707TIP3   OH274535   3.092   6.686   3.653 -0.2684  0.3656  0.1942
17707TIP3    H174536   3.079   6.672   3.747  2.2724  0.5405  0.6392
17707TIP3    H274537   3.055   6.773   3.637  0.7823  1.0678  1.4056
17708TIP3   OH274538   4.724   0.603   3.272  0.0733  0.2825  0.1194
17708TIP3    H174539   4.734   0.548   3.194 -1.2217 -0.5808  0.5372
17708TIP3    H274540   4.761   0.550   3.342 -2.8530 -0.9515  0.8611
17709TIP3   OH274541   3.505   4.177   4.105 -0.4364 -0.3037 -0.2497
17709TIP3    H174542   3.466   4.253   4.062 -0.9268  0.4004  1.3723
17709TIP3    H274543   3.583   4.158   4.053  0.4108  2.0960  0.0041
17710TIP3   OH274544   2.859   3.744   4.613 -0.7056  0.3148 -0.2244
17710TIP3    H174545   2.861   3.708   4.524  1.0717 -0.0593 -0.0719
17710TIP3    H274546   2.878   3.669   4.669 -3.5445  0.1520  0.6871
17711TIP3   OH274547   1.073   3.653  16.679  0.1198  0.7238 -0.0293
17711TIP3    H174548   1.109   3.714  16.744  1.0131 -0.5526  0.7018
17711TIP3    H274549   0.986   3.632  16.712  0.0739  1.0660  0.0726
17712TIP3   OH274550   0.372   1.127   3.136 -0.2272 -0.4011  0.2948
17712TIP3    H174551   0.430   1.149   3.063 -0.0992 -2.2919 -0.2314
17712TIP3    H274552   0.367   1.207   3.188 -1.5547  1.5297 -2.5645
17713TIP3   OH274553   4.617   1.503   4.620 -0.5068 -0.0148 -0.7919
17713TIP3    H174554   4.572   1.586   4.604 -1.0996  0.2771  1.9701
17713TIP3    H274555   4.690   1.526   4.678  0.1669 -1.2517 -1.0986
17714TIP3   OH274556   0.924   2.403   2.018 -0.2699 -0.0004 -0.4852
17714TIP3    H174557   0.969   2.347   2.082  0.5917 -0.5618 -1.5571
17714TIP3    H274558   0.864   2.344   1.973  0.6702 -0.1016 -1.6489
17715TIP3   OH274559   4.482   5.762  11.967  0.1550  0.2126 -0.3331
17715TIP3    H174560   4.424   5.828  12.006 -2.4340 -1.1913 -1.5376
17715TIP3    H274561   4.460   5.763  11.874  0.3536 -2.0009 -0.4652
17716TIP3   OH274562   4.648   5.894   5.600 -0.2019  0.0498 -0.5358
17716TIP3    H174563   4.595   5.896   5.521 -0.6524 -1.5638 -0.3103
17716TIP3    H274564   4.590   5.858   5.667  0.4139  0.6549  0.3428
17717TIP3   OH274565   6.214   2.642   1.528 -0.1548 -0.1372 -0.2820
17717TIP3    H174566   6.142   2.666   1.585 -1.3535 -0.4978 -1.5830
17717TIP3    H274567   6.204   2.548   1.515 -0.3962  0.0578 -1.6856
17718TIP3   OH274568   6.001   4.770  16.308  0.4801 -0.3507 -0.0211
17718TIP3    H174569   6.047   4.843  16.349  1.2993 -0.0494 -1.4388
17718TIP3    H274570   5.927   4.810  16.262 -0.6448 -0.7256  1.3769
17719TIP3   OH274571   3.544   5.716  14.157  0.2232  0.8946 -0.4152
17719TIP3    H174572   3.544   5.627  14.122  0.0582  0.7669 -0.0939
17719TIP3    H274573   3.628   5.752  14.130 -1.1946  2.0410 -4.0273
17720TIP3   OH274574   3.863   5.816   5.465 -0.0270 -0.3083 -0.1345
17720TIP3    H174575   3.815   5.887   5.423 -1.1364 -0.4520  0.8420
17720TIP3    H274576   3.949   5.854   5.484 -0.1674  0.3541 -0.7772
17721TIP3   OH274577   1.264   5.941  17.174  0.1753 -0.6247 -0.0981
17721TIP3    H174578   1.275   5.966  17.266  3.3336  0.6220 -0.6928
17721TIP3    H274579   1.249   5.846  17.177  1.5754 -0.8560  1.6931
17722TIP3   OH274580   4.790   2.256   6.216 -0.4392 -0.8349  0.5379
17722TIP3    H174581   4.780   2.166   6.185 -2.2705 -0.2123 -0.8725
17722TIP3    H274582   4.702   2.293   6.210  0.5160  1.4818 -0.3640
17723TIP3   OH274583   4.841   3.987   2.762 -0.5011 -0.2479 -0.8304
17723TIP3    H174584   4.877   4.013   2.677  0.8845  1.8362  0.3029
17723TIP3    H274585   4.915   3.948   2.809 -1.6152 -2.7752 -1.0455
17724TIP3   OH274586   1.369   2.709  13.237 -0.2609  0.4671  0.2007
17724TIP3    H174587   1.416   2.791  13.250  0.4139  0.0974  0.1278
17724TIP3    H274588   1.372   2.695  13.142 -2.9412  1.8467 -0.2011
17725TIP3   OH274589   3.521   0.675   2.254 -0.3157 -0.4521 -0.4834
17725TIP3    H174590   3.515   0.670   2.350 -0.1273 -2.3636 -0.5323
17725TIP3    H274591   3.449   0.732   2.228  1.3136  2.5245  0.9435
17726TIP3   OH274592   0.853   1.303   0.637 -0.4663  0.0121  0.4482
17726TIP3    H174593   0.908   1.306   0.559 -0.2525  0.7641  0.6243
17726TIP3    H274594   0.793   1.230   0.621  0.1146 -0.3643 -0.0538
17727TIP3   OH274595   5.335   3.443  15.869  0.3217  0.3754 -0.2435
17727TIP3    H174596   5.254   3.399  15.843  0.3204 -0.4754  1.1169
17727TIP3    H274597   5.401   3.411  15.806 -0.1928  0.3596 -0.7838
17728TIP3   OH274598   2.429   1.412  15.452 -0.7499 -0.0275  0.0607
17728TIP3    H174599   2.521   1.438  15.452 -0.4057 -1.1518 -1.3939
17728TIP3    H274600   2.382   1.492  15.477  0.4346  1.3206 -1.8034
17729TIP3   OH274601   1.402   3.632  14.038 -0.5247  0.4131  0.0811
17729TIP3    H174602   1.456   3.553  14.028 -1.0397  0.1503 -0.7814
17729TIP3    H274603   1.418   3.661  14.127  1.3301  0.5671 -0.2703
17730TIP3   OH274604   4.510   6.500   3.804 -0.0243 -0.3219 -0.3213
17730TIP3    H174605   4.438   6.562   3.820  0.7082  0.3725  0.4076
17730TIP3    H274606   4.589   6.548   3.831  0.9645 -0.3505 -2.8495
17731TIP3   OH274607   2.327   5.733   3.296  0.2921  0.4358 -0.0499
17731TIP3    H174608   2.350   5.778   3.214  0.2328 -0.0010 -0.3076
17731TIP3    H274609   2.340   5.799   3.364  1.3605  0.4977 -0.2998
17732TIP3   OH274610   0.181   3.314  14.056 -0.1248  0.1409  0.0173
17732TIP3    H174611   0.111   3.367  14.017  0.0484  0.0483 -0.4188
17732TIP3    H274612   0.149   3.224  14.052  0.0710  0.0838 -0.2996
17733TIP3   OH274613   0.573   3.273   6.708  0.5118 -0.8810  0.2219
17733TIP3    H174614   0.550   3.361   6.678  0.5956 -0.4430  1.3916
17733TIP3    H274615   0.502   3.218   6.677 -0.1164 -0.2018  0.4320
17734TIP3   OH274616   1.121   4.640  11.772  0.1180 -0.6952  0.2864
17734TIP3    H174617   1.143   4.726  11.737  0.3195 -1.0915 -0.5970
17734TIP3    H274618   1.041   4.615  11.726 -1.2529 -0.0114  2.2167
17735TIP3   OH274619   1.071   0.680  14.413  0.1716 -0.3522 -0.3930
17735TIP3    H174620   1.027   0.688  14.498  1.4730 -1.8517  0.4782
17735TIP3    H274621   1.155   0.724  14.426  1.7670 -3.3319  0.2249
17736TIP3   OH274622   5.508   1.128   2.173  0.0373 -0.0123  0.0407
17736TIP3    H174623   5.433   1.072   2.151 -1.6021  2.1412 -0.1822
17736TIP3    H274624   5.533   1.100   2.261 -1.4008 -0.4247  0.3540
17737TIP3   OH274625   4.396   2.847   4.407  0.5496 -0.2807  0.0417
17737TIP3    H174626   4.300   2.854   4.406  0.5622  0.3793  1.1904
17737TIP3    H274627   4.425   2.934   4.436  1.4006 -1.0658  1.6889
17738TIP3   OH274628   2.637   5.162   2.732  0.4037 -0.6981  0.3377
17738TIP3    H174629   2.603   5.099   2.796  0.9884 -1.9835 -0.5859
17738TIP3    H274630   2.731   5.145   2.729  0.4941 -0.1104 -0.2883
17739TIP3   OH274631   1.429   0.870  15.888 -0.5592 -0.3461 -0.4776
17739TIP3    H174632   1.472   0.930  15.950  1.1583 -0.5836 -1.3724
17739TIP3    H274633   1.412   0.791  15.939 -0.6962  0.0580  0.1117
17740TIP3   OH274634   1.791   6.658   0.824  0.2018  0.0060  0.1015
17740TIP3    H174635   1.800   6.713   0.902 -2.8968  1.1727 -0.2360
17740TIP3    H274636   1.700   6.628   0.826  0.9240 -2.5402 -1.4524
17741TIP3   OH274637   4.412   2.061   1.941 -0.0489  0.5618  0.6077
17741TIP3    H174638   4.474   2.020   1.881 -0.1972 -1.5300  1.8030
17741TIP3    H274639   4.347   2.102   1.884 -0.2402 -1.4317 -0.6924
17742TIP3   OH274640   3.380   4.120  14.334  0.7893 -0.3010 -0.1709
17742TIP3    H174641   3.434   4.163  14.268  1.5885 -0.7598  0.1595
17742TIP3    H274642   3.310   4.182  14.353  1.4294  0.4855 -0.3228
17743TIP3   OH274643   6.392   2.525  10.812 -0.1983 -0.8971  0.2206
17743TIP3    H174644   6.399   2.446  10.758 -0.1691 -0.7570  0.0165
17743TIP3    H274645   6.307   2.562  10.790  0.1471 -0.4100 -0.3281
17744TIP3   OH274646   2.350   1.133  17.016  0.1583  0.2142  0.2985
17744TIP3    H174647   2.324   1.096  16.932  1.3186  0.9232 -0.4050
17744TIP3    H274648   2.276   1.188  17.042 -0.6634 -0.8569  0.2920
17745TIP3   OH274649   6.760   3.933   4.525 -0.2295  0.6164  0.0121
17745TIP3    H174650   6.851   3.928   4.555 -0.0414 -0.1752 -0.6502
17745TIP3    H274651   6.750   4.024   4.496 -0.1884  1.1868  1.6903
17746TIP3   OH274652   3.811   0.486   1.653  0.0779  0.2675 -0.3103
17746TIP3    H174653   3.727   0.453   1.620  0.4684  0.8902 -2.0551
17746TIP3    H274654   3.819   0.573   1.614  0.7476  0.9546  1.2654
17747TIP3   OH274655   3.452   5.815   3.277  0.0237 -0.3745 -0.0130
17747TIP3    H174656   3.482   5.832   3.187  1.2098 -0.5046  0.3520
17747TIP3    H274657   3.439   5.721   3.280 -1.1077 -0.2459 -0.3653
17748TIP3   OH274658   4.998   5.697  12.804  0.6128 -0.2391  0.0825
17748TIP3    H174659   4.933   5.673  12.739 -1.5508 -0.3954  2.1499
17748TIP3    H274660   4.975   5.645  12.881  2.4798  0.6067  1.2878
17749TIP3   OH274661   2.821   0.766   1.621  0.0247  0.1562  0.1271
17749TIP3    H174662   2.806   0.724   1.705 -2.7725 -1.5535 -1.0915
17749TIP3    H274663   2.893   0.716   1.582  0.5229  0.1877  0.9869
17750TIP3   OH274664   1.594   0.354  11.184  0.1837 -0.2709  0.3323
17750TIP3    H174665   1.533   0.330  11.114  0.3386  0.7405 -0.1616
17750TIP3    H274666   1.680   0.335  11.147  0.2874  0.6514  0.0836
17751TIP3   OH274667   4.483   5.333   3.092  0.2428  0.3364 -0.0738
17751TIP3    H174668   4.532   5.327   3.173  0.5040 -0.7744 -0.3025
17751TIP3    H274669   4.442   5.247   3.082  1.2927 -0.0047 -1.7920
17752TIP3   OH274670   0.551   1.510   5.690 -0.4904 -0.0857 -0.4334
17752TIP3    H174671   0.497   1.586   5.711 -1.8670 -0.8388 -1.0966
17752TIP3    H274672   0.637   1.531   5.726 -1.0210  1.4726  0.0139
17753TIP3   OH274673   2.536   2.612  15.427 -0.0198 -0.0907 -0.1798
17753TIP3    H174674   2.535   2.707  15.419 -0.4669 -0.0190  0.6505
17753TIP3    H274675   2.462   2.583  15.372  0.7847 -0.0548 -1.3255
17754TIP3   OH274676   0.120   3.817   1.902  0.4713  0.3625  0.1711
17754TIP3    H174677   0.215   3.811   1.912  0.6912 -0.5047 -1.9153
17754TIP3    H274678   0.102   3.910   1.904  1.7046  0.6989 -1.6800
17755TIP3   OH274679   3.136   6.624   0.610 -0.4393  0.1792 -0.2742
17755TIP3    H174680   3.043   6.644   0.624 -1.1601 -2.0929 -1.3291
17755TIP3    H274681   3.165   6.587   0.693  0.2150  2.8663  0.8148
17756TIP3   OH274682   4.029   1.594  16.114 -0.1418  0.2103 -0.1094
17756TIP3    H174683   4.020   1.532  16.043 -0.3765 -0.3246  0.3792
17756TIP3    H274684   4.010   1.543  16.193  3.6226 -0.2040  0.7330
17757TIP3   OH274685   2.108   1.018   0.149  0.3601  0.0744  0.0327
17757TIP3    H174686   2.175   1.052   0.209 -0.3926  1.8136 -0.0525
17757TIP3    H274687   2.026   1.033   0.195 -0.1550  0.5468 -1.0311
17758TIP3   OH274688   2.545   3.397  15.740  0.7405 -0.5429  0.2595
17758TIP3    H174689   2.589   3.316  15.764  0.2428 -0.2814  2.2399
17758TIP3    H274690   2.455   3.386  15.772  0.5878  0.6527  0.2937
17759TIP3   OH274691   1.693   6.177  12.416  0.5589 -0.1023 -0.0237
17759TIP3    H174692   1.714   6.084  12.419  1.7122  0.1095 -1.0747
17759TIP3    H274693   1.603   6.180  12.384  0.6136 -0.8409 -0.2529
17760TIP3   OH274694   0.487   5.995   1.158 -0.5456  0.4493 -0.5173
17760TIP3    H174695   0.537   6.071   1.186  0.1850  0.8706 -2.7299
17760TIP3    H274696   0.409   5.994   1.214  0.0903  2.0322  0.4311
17761TIP3   OH274697   1.486   1.880   0.594 -0.0023  0.4043 -0.5173
17761TIP3    H174698   1.504   1.935   0.671 -0.8621  0.0382 -0.0284
17761TIP3    H274699   1.552   1.811   0.597  0.0695  0.4853 -0.1958
17762TIP3   OH274700   0.530   2.310   5.611 -0.1920 -0.5387 -0.3790
17762TIP3    H174701   0.561   2.389   5.567 -2.3342 -0.1120 -1.2386
17762TIP3    H274702   0.500   2.341   5.697  1.0421 -0.8364  0.1814
17763TIP3   OH274703   0.302   0.007  16.833 -0.3267  0.4939 -0.2827
17763TIP3    H174704   0.324  -0.043  16.912 -2.8999 -0.6957 -0.2231
17763TIP3    H274705   0.356  -0.032  16.764 -0.0019 -0.2535  0.3754
17764TIP3   OH274706   3.755   4.545   4.035 -0.2742  0.1785 -0.0082
17764TIP3    H174707   3.690   4.549   4.105  1.4080  1.3478  1.6125
17764TIP3    H274708   3.807   4.467   4.055 -0.7469 -0.3665 -0.8874
17765TIP3   OH274709   0.627   4.615  13.969  0.2657  0.2210  0.5893
17765TIP3    H174710   0.571   4.633  14.044 -0.9299  1.5884 -0.5752
17765TIP3    H274711   0.618   4.520  13.955 -0.9145  0.2438  1.0840
17766TIP3   OH274712   6.026   2.115  12.903 -0.7115  0.4281 -0.3909
17766TIP3    H174713   5.966   2.185  12.928 -0.9423  0.0480  0.1203
17766TIP3    H274714   5.994   2.038  12.949  0.9362  0.4889  0.9535
17767TIP3   OH274715   3.528   2.731  11.613 -0.7299  0.3834  0.0317
17767TIP3    H174716   3.508   2.684  11.532  2.5881 -0.7525 -0.3002
17767TIP3    H274717   3.479   2.684  11.681 -3.0282  0.9501 -1.1464
17768TIP3   OH274718   1.845   0.114   4.316 -0.2067  0.4383 -0.1665
17768TIP3    H174719   1.812   0.123   4.226  2.8939  0.0295 -1.4705
17768TIP3    H274720   1.893   0.031   4.315 -1.0576 -0.1572  2.2695
17769TIP3   OH274721   0.452   2.517  13.063  0.5247 -0.2520  0.0525
17769TIP3    H174722   0.480   2.460  13.135 -1.4154  0.1893  1.2476
17769TIP3    H274723   0.483   2.604  13.087  0.2966 -0.1905  0.1338
17770TIP3   OH274724   3.029   2.005   0.817 -0.2580 -0.2581  0.1600
17770TIP3    H174725   2.999   1.961   0.738 -3.1337  0.3596  0.7982
17770TIP3    H274726   3.068   1.936   0.870  1.9190 -0.6544 -1.7696
17771TIP3   OH274727   0.345   3.817  12.274  0.6598  0.1084  0.7573
17771TIP3    H174728   0.270   3.757  12.266  0.2978  0.8102 -2.8457
17771TIP3    H274729   0.305   3.903  12.285  1.0576  0.2036  1.5202
17772TIP3   OH274730   6.200   5.830   2.178  0.5635 -0.2507  0.6357
17772TIP3    H174731   6.295   5.843   2.185  0.1201  3.4921  1.7336
17772TIP3    H274732   6.180   5.851   2.087  0.8710 -2.5061 -0.0092
17773TIP3   OH274733   2.116   0.140   1.186 -0.1584  0.4578 -0.2154
17773TIP3    H174734   2.191   0.113   1.133 -0.4542  1.1933 -1.0346
17773TIP3    H274735   2.117   0.236   1.182  0.6247  0.6276  2.2732
17774TIP3   OH274736   1.403   1.486   1.968  0.2262  0.1349  0.1179
17774TIP3    H174737   1.441   1.457   2.052  0.3493  0.1673  0.0738
17774TIP3    H274738   1.327   1.430   1.956  0.1757  0.1677  0.2805
17775TIP3   OH274739   0.893   1.897  11.703 -0.0910  0.2214 -0.0619
17775TIP3    H174740   0.825   1.854  11.755  0.1432  3.4496  3.3851
17775TIP3    H274741   0.976   1.864  11.740  0.0778  2.5319  1.8476
17776TIP3   OH274742   4.313   2.816  15.585 -0.4534  0.3185  0.1038
17776TIP3    H174743   4.368   2.887  15.553 -0.9510  0.5085 -0.3492
17776TIP3    H274744   4.373   2.758  15.631 -0.1297  1.3034  0.9545
17777TIP3   OH274745   4.653   1.190  16.347 -0.1504 -0.3443 -0.0727
17777TIP3    H174746   4.708   1.218  16.274  0.5393  3.0870  1.5227
17777TIP3    H274747   4.564   1.201  16.316  0.1334  0.6261 -0.5976
17778TIP3   OH274748   4.978   0.395   5.893 -0.0099 -0.1171 -0.8517
17778TIP3    H174749   4.940   0.414   5.979  0.0177 -0.9476 -0.6484
17778TIP3    H274750   4.914   0.428   5.830  1.2003  3.0823 -0.5863
17779TIP3   OH274751   0.917   6.013  12.177 -0.7126 -0.1481 -0.0732
17779TIP3    H174752   0.911   5.918  12.163  0.3087 -0.0711 -1.1231
17779TIP3    H274753   0.848   6.050  12.122 -1.3375 -0.2785  0.5954
17780TIP3   OH274754   4.639   5.274  16.761  0.2223  0.0299 -0.0130
17780TIP3    H174755   4.603   5.315  16.840 -0.4519  1.1911 -0.8928
17780TIP3    H274756   4.579   5.300  16.691  1.7901  0.5408 -1.2214
17781TIP3   OH274757   6.105   3.063  13.022 -0.1387  0.4661 -0.0895
17781TIP3    H174758   6.122   3.122  13.095 -0.0560 -1.5212  1.5689
17781TIP3    H274759   6.192   3.033  12.995 -0.2278  0.5225 -0.4480
17782TIP3   OH274760   2.103   3.075  13.818  0.8591  0.1941 -0.0261
17782TIP3    H174761   2.076   3.148  13.874  1.7765  0.3845  0.1989
17782TIP3    H274762   2.168   3.114  13.758  3.1022 -0.8436  1.5794
17783TIP3   OH274763   0.976   4.417   0.057  0.4705  0.3580 -0.0208
17783TIP3    H174764   1.013   4.329   0.060  1.0748  0.6014  0.0059
17783TIP3    H274765   0.952   4.436   0.147 -0.1917  0.0056 -0.1212
17784TIP3   OH274766   5.743   6.007  12.045 -0.1383 -0.0524 -0.3616
17784TIP3    H174767   5.826   5.973  12.078  0.6402 -0.1619 -2.3077
17784TIP3    H274768   5.728   6.086  12.098  1.3778  0.1536 -0.1775
17785TIP3   OH274769   3.942   0.042  17.338 -0.3154  0.6089  0.0610
17785TIP3    H174770   4.026   0.004  17.363 -0.7200 -1.0551 -0.9559
17785TIP3    H274771   3.952   0.066  17.246 -1.4323 -1.1622 -0.5739
17786TIP3   OH274772   3.156   6.120  16.907  0.1216  0.7910 -0.4908
17786TIP3    H174773   3.243   6.096  16.939  0.3005  0.5233 -1.1549
17786TIP3    H274774   3.119   6.038  16.875 -0.6982  0.7587  0.5115
17787TIP3   OH274775   6.261   4.733   2.439 -0.4235 -0.2201 -0.4813
17787TIP3    H174776   6.258   4.802   2.373 -2.8793  1.5756  1.3040
17787TIP3    H274777   6.169   4.711   2.456  0.0807 -0.6762  2.2076
17788TIP3   OH274778   3.556   0.386   0.687 -0.6078 -0.3083  0.3452
17788TIP3    H174779   3.533   0.427   0.771  0.0013 -0.0635  0.3979
17788TIP3    H274780   3.488   0.414   0.627 -0.1701  0.8222  0.3680
17789TIP3   OH274781   3.018   5.624   2.835 -0.2079  0.6862 -0.0292
17789TIP3    H174782   2.936   5.673   2.849  1.2672  3.3255  0.1117
17789TIP3    H274783   3.008   5.545   2.888 -2.1237  1.5623  1.0331
17790TIP3   OH274784   5.745   4.878   0.631  0.5503  0.0256  0.4923
17790TIP3    H174785   5.721   4.796   0.674 -0.4149 -0.8755 -1.6419
17790TIP3    H274786   5.736   4.944   0.700  0.1407 -1.4642  1.9433
17791TIP3   OH274787   0.407   1.699   3.368  0.4028  0.2417  0.3723
17791TIP3    H174788   0.315   1.670   3.371  0.1942  0.7911 -0.4255
17791TIP3    H274789   0.428   1.721   3.459 -0.2721  0.1610  0.5534
17792TIP3   OH274790   1.148   5.258   6.336 -0.5994  1.1542 -0.3676
17792TIP3    H174791   1.060   5.240   6.303 -0.1311  0.4432 -1.2635
17792TIP3    H274792   1.160   5.352   6.322 -0.6961  0.9998 -1.5275
17793TIP3   OH274793   1.385   2.565  14.770  0.5688 -0.0506  0.1628
17793TIP3    H174794   1.450   2.514  14.721  0.2422 -1.8463  1.5131
17793TIP3    H274795   1.341   2.501  14.826 -1.0986  1.4413  0.6479
17794TIP3   OH274796   5.627   4.364   2.874 -0.2974  0.3186 -0.4803
17794TIP3    H174797   5.675   4.418   2.936  0.2955 -0.8406  0.1174
17794TIP3    H274798   5.618   4.418   2.796 -2.6290  2.5333  1.1299
17795TIP3   OH274799   3.223   2.433  13.998  0.5794  0.8952  0.4091
17795TIP3    H174800   3.194   2.430  13.906  0.0608  1.7681  0.5350
17795TIP3    H274801   3.141   2.440  14.048  0.7376 -1.1254  1.0529
17796TIP3   OH274802   0.709   3.024  17.244 -0.0846  0.3269 -0.2664
17796TIP3    H174803   0.678   2.944  17.286 -0.4818  0.1458 -0.8854
17796TIP3    H274804   0.715   3.088  17.315 -0.1004 -0.1540  0.1734
17797TIP3   OH274805   1.696   1.141  16.272  0.2035 -0.5025 -0.7207
17797TIP3    H174806   1.742   1.139  16.188 -0.0544  0.8367 -0.9228
17797TIP3    H274807   1.765   1.136  16.337  0.6704  1.3063 -1.0255
17798TIP3   OH274808   0.911   4.810  12.221  0.3379 -0.1404  0.4618
17798TIP3    H174809   0.889   4.718  12.203 -1.8691  0.2616  0.9018
17798TIP3    H274810   1.003   4.807  12.249 -0.0146 -2.3766  1.6172
17799TIP3   OH274811   0.515   2.541  14.303  0.4549  0.4673 -0.1942
17799TIP3    H174812   0.512   2.635  14.322 -1.0358  0.4948 -0.4386
17799TIP3    H274813   0.605   2.526  14.273  0.6331  1.8817 -0.4613
17800TIP3   OH274814   3.525   5.849   2.354  0.1966  0.4584  0.1621
17800TIP3    H174815   3.465   5.858   2.279 -0.2017 -1.3221  0.2274
17800TIP3    H274816   3.537   5.939   2.385 -1.8826  0.9643 -0.3019
17801TIP3   OH274817   3.859   2.924  14.257  0.4775  0.0120  0.4883
17801TIP3    H174818   3.766   2.902  14.263  0.5623 -0.0717  1.7380
17801TIP3    H274819   3.877   2.972  14.338  1.2729  1.0027 -0.2455
17802TIP3   OH274820   5.309   4.245   2.275 -0.3727 -0.0219  0.4188
17802TIP3    H174821   5.273   4.188   2.343  0.4071 -0.2123  0.6780
17802TIP3    H274822   5.360   4.310   2.324  1.3168 -0.9586 -0.0492
17803TIP3   OH274823   2.030   2.879   2.647  0.5451  0.2448 -0.3328
17803TIP3    H174824   2.046   2.789   2.620  0.9383  0.1563  0.1686
17803TIP3    H274825   1.984   2.919   2.573  0.7752 -0.2379 -0.7427
17804TIP3   OH274826   1.269   6.163  14.138  0.0020  0.3058  0.0801
17804TIP3    H174827   1.200   6.227  14.123 -1.4175 -0.7268  1.8044
17804TIP3    H274828   1.311   6.192  14.219 -0.7117 -0.9311  0.9243
17805TIP3   OH274829   2.677   2.949  10.737 -0.0329  0.2807 -0.4443
17805TIP3    H174830   2.622   2.877  10.706 -0.2467 -0.8409  2.2825
17805TIP3    H274831   2.767   2.919  10.724 -0.1190 -0.2441  0.1355
17806TIP3   OH274832   0.309   5.301  15.431  0.4029 -0.2617 -0.1300
17806TIP3    H174833   0.374   5.236  15.459  0.6968 -0.1068 -0.4516
17806TIP3    H274834   0.302   5.289  15.336 -0.2696 -0.4886 -0.0577
17807TIP3   OH274835   6.753   3.143   3.674  0.1233  0.4026 -0.2895
17807TIP3    H174836   6.740   3.078   3.604  0.0266 -0.0648  0.1521
17807TIP3    H274837   6.792   3.218   3.630  0.5617 -0.0880 -0.7609
17808TIP3   OH274838   6.618   2.167  11.713 -0.0605 -0.2639 -0.1604
17808TIP3    H174839   6.695   2.224  11.708 -1.0189  1.3811  2.1784
17808TIP3    H274840   6.548   2.224  11.742 -2.0816 -1.8474 -1.6523
17809TIP3   OH274841   4.752   0.223  15.234  0.0803 -0.1925  0.5912
17809TIP3    H174842   4.771   0.286  15.304  1.3691  0.8028 -0.5859
17809TIP3    H274843   4.675   0.258  15.190 -0.4432 -0.5667  1.1824
17810TIP3   OH274844   5.928   2.241  15.686 -0.4019  0.1197 -0.3437
17810TIP3    H174845   5.895   2.179  15.751 -0.9948  1.2357  0.4654
17810TIP3    H274846   5.858   2.307  15.679  0.1967  0.6841 -1.1798
17811TIP3   OH274847   1.115   4.943   1.712  0.1694  0.3665  0.7761
17811TIP3    H174848   1.157   4.887   1.777  1.3428 -0.0966 -0.3244
17811TIP3    H274849   1.170   5.020   1.708  2.2570 -1.0678 -2.0943
17812TIP3   OH274850   5.759   5.339  16.389 -0.8193  0.3355  0.0215
17812TIP3    H174851   5.691   5.395  16.353 -0.7771  1.2629  1.3509
17812TIP3    H274852   5.726   5.311  16.474 -0.5033 -1.0528 -0.2832
17813TIP3   OH274853   5.881   3.173   3.535  0.1897 -0.3013 -0.1262
17813TIP3    H174854   5.879   3.250   3.478 -1.8970 -0.3792 -0.2459
17813TIP3    H274855   5.888   3.099   3.475 -1.4878 -0.3555 -0.3042
17814TIP3   OH274856   2.822   4.925  16.139  0.1558 -0.7704 -0.3612
17814TIP3    H174857   2.886   4.857  16.159 -0.2417 -1.1827 -0.4663
17814TIP3    H274858   2.804   4.914  16.045  2.4241  1.5011 -1.1767
17815TIP3   OH274859   2.854   2.982   1.164  0.2401 -0.1044  0.3595
17815TIP3    H174860   2.849   3.074   1.187 -0.0303 -0.4335  1.6991
17815TIP3    H274861   2.917   2.978   1.093 -1.2127  1.3521 -1.1020
17816TIP3   OH274862   4.303   5.598   1.426 -0.4425  0.1575 -0.0887
17816TIP3    H174863   4.319   5.512   1.465 -0.7792  0.7895  1.5127
17816TIP3    H274864   4.390   5.637   1.418 -0.3248 -0.1728 -0.4583
17817TIP3   OH274865   3.098   4.826   0.592 -0.1392  0.1818 -0.7571
17817TIP3    H174866   3.026   4.838   0.530  0.2574  1.0436 -1.0623
17817TIP3    H274867   3.133   4.914   0.606  0.0564 -0.0563  0.3589
17818TIP3   OH274868   0.746   3.124   0.778  0.0879 -0.9081 -0.5488
17818TIP3    H174869   0.694   3.052   0.742 -0.5916 -0.5086 -0.3917
17818TIP3    H274870   0.701   3.147   0.859 -0.1878  0.2226 -1.0043
17819TIP3   OH274871   1.780   1.547   1.305 -0.8233 -1.0092 -0.0466
17819TIP3    H174872   1.721   1.507   1.241  0.1111 -1.6009 -0.5420
17819TIP3    H274873   1.721   1.592   1.366 -1.7184 -0.3316 -1.3789
17820TIP3   OH274874   0.441   1.365   4.796  0.1855 -0.7158  0.1044
17820TIP3    H174875   0.398   1.359   4.881 -1.5389  0.3023 -0.6611
17820TIP3    H274876   0.475   1.454   4.791 -0.6262 -0.4410 -0.6812
17821TIP3   OH274877   4.261   4.685   2.093  0.0995 -0.4809 -0.7055
17821TIP3    H174878   4.190   4.730   2.138  0.1595 -2.1756  1.2277
17821TIP3    H274879   4.307   4.637   2.162  2.6752 -0.0832 -2.0034
17822TIP3   OH274880   1.643   6.374  14.178  0.3610 -0.2034  0.1994
17822TIP3    H174881   1.653   6.304  14.114 -1.2917 -0.7629  0.4859
17822TIP3    H274882   1.643   6.330  14.263 -2.1803 -0.1448  0.3233
17823TIP3   OH274883   2.965   1.348  12.113 -0.5729  0.2266 -0.2948
17823TIP3    H174884   2.979   1.266  12.067  0.7032 -0.3439  1.0506
17823TIP3    H274885   2.911   1.400  12.053 -2.8097 -2.1643 -0.5022
17824TIP3   OH274886   4.780   2.259  11.853  0.3797 -0.3930 -0.0009
17824TIP3    H174887   4.700   2.209  11.868  0.1113 -0.4588 -1.4816
17824TIP3    H274888   4.764   2.305  11.770  1.9991 -0.6820 -0.5055
17825TIP3   OH274889   5.215   4.930   6.659  0.1433  0.0841 -0.0630
17825TIP3    H174890   5.168   4.866   6.605  1.1795 -1.0643  0.3498
17825TIP3    H274891   5.235   5.002   6.598 -1.6802  0.3948 -0.3541
17826TIP3   OH274892   2.338   2.882  13.308 -0.0769 -0.4792  1.0854
17826TIP3    H174893   2.249   2.898  13.277  0.0862 -1.5511 -0.0449
17826TIP3    H274894   2.382   2.966  13.302 -1.3110  0.3373  2.7848
17827TIP3   OH274895   1.245   6.472  11.989 -0.1660  0.4690 -0.6197
17827TIP3    H174896   1.219   6.492  12.079 -1.7066 -1.6977 -0.5246
17827TIP3    H274897   1.172   6.502  11.935  0.0422  0.2968 -1.0021
17828TIP3   OH274898   1.680   3.087   3.213 -0.4887 -0.5047 -0.3199
17828TIP3    H174899   1.649   3.017   3.270 -1.2507 -0.1558 -0.2799
17828TIP3    H274900   1.615   3.157   3.225  0.9088  0.6855  0.5813
17829TIP3   OH274901   0.638   4.776   0.767  0.3490  0.2250  0.1490
17829TIP3    H174902   0.642   4.860   0.721 -0.5462  0.2889  0.1654
17829TIP3    H274903   0.702   4.783   0.837  0.1413  0.9646  0.2684
17830TIP3   OH274904   1.445   3.254  16.214  0.0272  0.1348 -0.7332
17830TIP3    H174905   1.490   3.325  16.167  0.4474  0.4459  0.1260
17830TIP3    H274906   1.354   3.282  16.216 -0.1519 -0.2586 -2.0390
17831TIP3   OH274907   6.259   0.352  15.754 -0.2412  0.4621  0.1422
17831TIP3    H174908   6.335   0.294  15.743 -1.0760 -0.3021 -2.1636
17831TIP3    H274909   6.295   0.440  15.747  0.6537  0.1703  0.8485
17832TIP3   OH274910   5.420   1.576   3.489 -0.1470  0.0602 -0.1306
17832TIP3    H174911   5.496   1.626   3.458 -0.3535  0.2758 -0.2932
17832TIP3    H274912   5.410   1.506   3.425  0.0304 -0.0791 -0.0050
17833TIP3   OH274913   3.585   5.790   3.009 -0.4096  0.3834  1.0875
17833TIP3    H174914   3.522   5.743   2.954  1.2198 -1.8378  0.9618
17833TIP3    H274915   3.662   5.733   3.011  1.0759  2.2989  2.4107
17834TIP3   OH274916   3.439   2.568  13.045 -0.3604 -0.0357  0.2466
17834TIP3    H174917   3.495   2.547  12.971 -2.3473 -0.2707 -1.2695
17834TIP3    H274918   3.446   2.663  13.055  0.9673 -0.1565  0.6922
17835TIP3   OH274919   5.860   5.325  13.614  0.3953  0.7519 -0.1031
17835TIP3    H174920   5.816   5.284  13.540  1.3446  0.2826 -0.4213
17835TIP3    H274921   5.876   5.415  13.585 -2.7303  1.8032  1.0295
17836TIP3   OH274922   6.246   0.267  13.488  0.2813  0.7175  0.1103
17836TIP3    H174923   6.201   0.184  13.506 -0.1381  1.5165  3.3741
17836TIP3    H274924   6.325   0.263  13.541  0.9693  1.8507 -0.7837
17837TIP3   OH274925   2.207   6.130   6.389 -0.4691 -0.4795 -0.4420
17837TIP3    H174926   2.185   6.052   6.440 -0.3835 -0.6316 -0.6358
17837TIP3    H274927   2.123   6.173   6.374 -0.5668 -0.7536 -0.6870
17838TIP3   OH274928   5.895   3.844  10.922  0.4932 -0.1761  0.0869
17838TIP3    H174929   5.903   3.870  10.830  1.9726  1.1443  0.5314
17838TIP3    H274930   5.971   3.787  10.937  1.3714  1.1739  0.9437
17839TIP3   OH274931   5.612   6.557   3.587  0.7413 -0.3638  0.4175
17839TIP3    H174932   5.629   6.465   3.566  1.6971 -0.1282  0.0710
17839TIP3    H274933   5.644   6.605   3.511  0.1705  0.2561  0.5606
17840TIP3   OH274934   1.910   4.808   1.994 -0.7535  0.1648 -0.2334
17840TIP3    H174935   1.829   4.764   2.019 -1.3148  0.7514 -0.9774
17840TIP3    H274936   1.944   4.844   2.077 -1.6078  0.4831 -0.0121
17841TIP3   OH274937   1.388   2.118  14.844  0.6556  0.0437 -0.0064
17841TIP3    H174938   1.323   2.077  14.787 -2.1389  2.5893  1.1476
17841TIP3    H274939   1.360   2.095  14.933  1.7010  0.6983  0.5117
17842TIP3   OH274940   6.093   6.553   1.470 -0.7026 -0.1235 -0.0457
17842TIP3    H174941   6.070   6.619   1.405  0.5259  1.4828  1.0918
17842TIP3    H274942   6.174   6.514   1.437 -0.3967  0.2795  0.2281
17843TIP3   OH274943   4.989   0.250   0.677 -0.9407 -0.4905  0.0929
17843TIP3    H174944   5.032   0.302   0.609  0.2225 -0.2324  1.0078
17843TIP3    H274945   5.001   0.160   0.648 -1.5242 -0.3350 -0.6601
17844TIP3   OH274946   5.703   4.063   4.044 -0.1977 -0.8905 -0.9491
17844TIP3    H174947   5.787   4.087   4.005  0.6072  0.8393  1.5403
17844TIP3    H274948   5.717   3.974   4.077  1.1667 -0.1750  0.5405
17845TIP3   OH274949   4.974   4.778  15.952 -0.4630 -0.4293 -0.0268
17845TIP3    H174950   4.887   4.815  15.963 -0.5952 -0.9821  0.8604
17845TIP3    H274951   4.960   4.684  15.950  0.3284 -0.6795  2.6484
17846TIP3   OH274952   2.600   5.015   4.711  0.7508  0.5179 -0.1157
17846TIP3    H174953   2.513   5.054   4.703  0.1490 -0.4512  1.3750
17846TIP3    H274954   2.646   5.072   4.772  1.0833  0.8651 -0.6792
17847TIP3   OH274955   6.158   2.624  12.702 -0.7160  0.2165  0.0000
17847TIP3    H174956   6.067   2.598  12.717 -0.7204  0.2631  0.0520
17847TIP3    H274957   6.152   2.700  12.644 -0.7003  0.0518 -0.2164
17848TIP3   OH274958   5.331   1.014   0.875  0.4582  0.0156 -0.2270
17848TIP3    H174959   5.314   0.925   0.903 -1.6685  0.1612 -0.9106
17848TIP3    H274960   5.303   1.069   0.948  1.7006  0.1535  0.1666
17849TIP3   OH274961   2.994   1.595   0.797  0.1017 -0.1918 -0.5246
17849TIP3    H174962   2.935   1.543   0.742  0.1236 -0.9281  0.1451
17849TIP3    H274963   2.956   1.591   0.884  1.9605 -2.0152  0.2767
17850TIP3   OH274964   0.675   3.103   3.917  0.2029 -0.2622 -0.6085
17850TIP3    H174965   0.766   3.073   3.920  0.0997 -0.4520  1.6796
17850TIP3    H274966   0.678   3.193   3.951 -0.3821  0.0038 -1.2296
17851TIP3   OH274967   6.277   5.013   4.575  0.1807 -0.5566  0.1631
17851TIP3    H174968   6.349   4.979   4.522  0.1902 -1.2852  0.6222
17851TIP3    H274969   6.205   4.953   4.558 -0.5338  0.5356 -0.7871
17852TIP3   OH274970   3.541   5.383   5.008 -0.4722 -0.2913 -0.4705
17852TIP3    H174971   3.547   5.339   4.923  1.2019 -0.3521 -0.3413
17852TIP3    H274972   3.549   5.311   5.072 -0.8864 -0.1497 -0.2570
17853TIP3   OH274973   4.977   2.000   0.215  0.3755  0.2685  0.1436
17853TIP3    H174974   4.905   1.943   0.242  0.8647 -0.1852  0.5111
17853TIP3    H274975   5.012   2.035   0.298  0.0437  1.1553 -0.0751
17854TIP3   OH274976   0.167   5.925   4.329  0.4491  0.4914  0.3018
17854TIP3    H174977   0.191   5.840   4.365  0.8539  0.1225 -0.8235
17854TIP3    H274978   0.083   5.911   4.287  0.3885  0.7218  0.3415
17855TIP3   OH274979   2.916   1.883  14.522 -0.9035 -0.3106 -0.1155
17855TIP3    H174980   2.874   1.968  14.508  1.9221  0.9098 -2.1476
17855TIP3    H274981   2.860   1.821  14.475 -1.6439  0.8677 -0.8518
17856TIP3   OH274982   5.525   4.789  17.006  0.4308 -0.4067  0.0511
17856TIP3    H174983   5.458   4.786  16.939 -1.4156  0.6268  1.7459
17856TIP3    H274984   5.566   4.875  16.996 -0.2224 -0.0253  0.5492
17857TIP3   OH274985   3.411   4.197  15.796  0.1977 -0.0727  0.4241
17857TIP3    H174986   3.476   4.181  15.728  0.9711  0.9232  0.9122
17857TIP3    H274987   3.413   4.118  15.850 -1.9695 -1.8594 -1.8706
17858TIP3   OH274988   3.727   6.741  13.677 -0.2065  0.1697  0.1149
17858TIP3    H174989   3.701   6.802  13.746 -2.8593 -1.5916  0.7894
17858TIP3    H274990   3.675   6.768  13.601  0.3785  0.1621 -0.2966
17859TIP3   OH274991   5.222   3.644   1.915 -0.1132  0.2417  0.4756
17859TIP3    H174992   5.150   3.581   1.901 -0.9582  0.8763  1.8014
17859TIP3    H274993   5.220   3.699   1.836  0.7566 -1.4350 -0.7968
17860TIP3   OH274994   3.594   1.992   4.944  0.7156 -0.4215  0.2934
17860TIP3    H174995   3.644   2.034   4.874 -2.3570  1.5842 -0.8977
17860TIP3    H274996   3.571   1.906   4.909  0.4570 -0.0093 -0.5939
17861TIP3   OH274997   5.787   2.181  13.029 -0.2110  0.5691 -1.0678
17861TIP3    H174998   5.749   2.101  12.995  1.6243 -1.9835  2.2907
17861TIP3    H274999   5.729   2.206  13.101  0.4285  0.9594 -0.6779
17862TIP3   OH275000   0.800   6.572   1.442 -0.0993 -0.2474 -0.3490
17862TIP3    H175001   0.823   6.651   1.394  0.6423 -0.0138  0.3734
17862TIP3    H275002   0.837   6.585   1.529 -2.3132 -0.1874  0.6500
17863TIP3   OH275003   2.174   6.393  15.815  0.3738  0.0195  0.2814
17863TIP3    H175004   2.249   6.430  15.862  1.0605 -1.1248  0.1032
17863TIP3    H275005   2.128   6.340  15.881  0.3171 -0.1390  0.1124
17864TIP3   OH275006   2.080   5.632   1.643  0.6988  0.0900 -0.3643
17864TIP3    H175007   2.039   5.716   1.627 -1.3337 -1.1671 -2.2750
17864TIP3    H275008   2.155   5.630   1.583  2.2874  1.4271  1.4400
17865TIP3   OH275009   0.958   6.341   0.731  0.3897  0.0998  0.0600
17865TIP3    H175010   0.923   6.430   0.744  1.0434  0.6575 -1.6576
17865TIP3    H275011   1.042   6.355   0.687  0.3270 -1.3761 -0.5807
17866TIP3   OH275012   1.472   3.742  15.124  0.2167  0.1708  0.2390
17866TIP3    H175013   1.411   3.805  15.163  1.0500  0.8076  0.5369
17866TIP3    H275014   1.439   3.656  15.151 -1.8101  0.3543 -1.3946
17867TIP3   OH275015   4.212   0.186   1.185  0.4337 -0.1857  0.2679
17867TIP3    H175016   4.246   0.123   1.122 -0.3608 -1.2924  0.9214
17867TIP3    H275017   4.164   0.134   1.249  0.6757  0.9654  1.4517
17868TIP3   OH275018   5.457   2.180  13.903  0.0369  0.2906  0.1235
17868TIP3    H175019   5.365   2.162  13.919 -0.1617  1.2527  0.1628
17868TIP3    H275020   5.482   2.119  13.833  0.1263 -1.8912  1.9579
17869TIP3   OH275021   2.509   3.986   3.609  0.1099  0.1995 -0.5636
17869TIP3    H175022   2.495   3.892   3.622  0.2632  0.2800  0.2227
17869TIP3    H275023   2.587   3.991   3.554  0.9174 -0.1225  0.5081
17870TIP3   OH275024   4.701   4.131  15.563  0.4324  0.7442  0.2793
17870TIP3    H175025   4.616   4.105  15.598  0.6206  0.0020  0.2010
17870TIP3    H275026   4.681   4.171  15.478  0.0842  1.4382  0.6845
17871TIP3   OH275027   5.774   3.382  13.304  0.1051 -0.0366 -0.0010
17871TIP3    H175028   5.771   3.298  13.257 -0.1364  0.3886 -0.7550
17871TIP3    H275029   5.810   3.444  13.241 -0.7233  0.6583  0.1873
17872TIP3   OH275030   6.553   2.044   4.365  1.0281 -0.0182 -0.1388
17872TIP3    H175031   6.460   2.065   4.357  1.3668  2.3042  1.2676
17872TIP3    H275032   6.598   2.116   4.322  2.2193 -0.5266  0.2028
17873TIP3   OH275033   3.710   2.885   0.173 -0.3729 -0.7942 -0.8831
17873TIP3    H175034   3.776   2.878   0.242 -1.0475 -0.1868 -0.1575
17873TIP3    H275035   3.753   2.937   0.104 -0.9347  1.9535  0.6966
17874TIP3   OH275036   4.629   5.541  13.117 -0.4118  0.2437 -0.0825
17874TIP3    H175037   4.662   5.500  13.197 -0.4630  1.2428  0.4607
17874TIP3    H275038   4.550   5.492  13.096  0.4194 -1.0131 -0.3924
17875TIP3   OH275039   4.362   1.017  16.363  0.0218 -0.1702 -0.4321
17875TIP3    H175040   4.372   0.940  16.307 -0.5253  1.0108 -2.2201
17875TIP3    H275041   4.391   1.090  16.309  0.6926  0.8988  1.2821
17876TIP3   OH275042   3.950   3.346  10.546 -0.7003  0.1512 -0.2992
17876TIP3    H175043   3.934   3.392  10.464  0.4788  0.6179 -0.2887
17876TIP3    H275044   3.987   3.413  10.604  2.1825 -1.0107 -0.6417
17877TIP3   OH275045   6.403   3.660   5.081  0.2722  0.4926 -0.5680
17877TIP3    H175046   6.407   3.577   5.130  2.1247  0.4692 -0.6949
17877TIP3    H275047   6.310   3.670   5.060  0.1215 -2.1345 -1.5396
17878TIP3   OH275048   2.012   6.386  11.646 -0.2571  0.5668  0.0826
17878TIP3    H175049   2.033   6.408  11.736  0.0091  0.1942  0.1139
17878TIP3    H275050   1.917   6.375  11.645 -0.2249  0.2263  0.3978
17879TIP3   OH275051   1.415   5.131  14.022 -0.4295 -0.1509  0.3998
17879TIP3    H175052   1.368   5.167  14.097 -0.8342 -1.0185  0.5764
17879TIP3    H275053   1.478   5.070  14.061 -0.2644 -0.2020  0.0592
17880TIP3   OH275054   6.058   1.944   3.454 -1.0851  0.6919  0.5876
17880TIP3    H175055   6.038   1.994   3.533 -2.3631  0.0068  0.7168
17880TIP3    H275056   6.003   1.866   3.460  0.5879 -0.5838  0.2091
17881TIP3   OH275057   2.344   1.790  14.980  0.7454  0.0390 -0.1221
17881TIP3    H175058   2.331   1.850  15.054 -0.1338  0.0383 -0.2743
17881TIP3    H275059   2.269   1.805  14.923  1.1497 -0.3405 -0.7631
17882TIP3   OH275060   6.440   6.220  15.835 -0.0460 -0.3028 -0.2959
17882TIP3    H175061   6.386   6.295  15.812 -0.3690 -1.0738 -2.2032
17882TIP3    H275062   6.398   6.183  15.913  0.7322  2.0535  1.3557
17883TIP3   OH275063   6.433   4.738   3.688  0.0497 -1.0511  0.1553
17883TIP3    H175064   6.494   4.790   3.635  0.6611 -1.4196  0.4758
17883TIP3    H275065   6.396   4.675   3.626  1.1175 -1.7908  0.2404
17884TIP3   OH275066   1.103   2.345   5.555 -1.0670  0.2451 -0.1673
17884TIP3    H175067   1.084   2.355   5.462 -3.3366 -0.7810  0.1160
17884TIP3    H275068   1.108   2.435   5.588 -3.5411  0.6754 -0.7384
17885TIP3   OH275069   0.080   3.972  15.208 -0.1064 -0.2687  0.4362
17885TIP3    H175070   0.059   3.959  15.116  0.0258  1.9766  0.0499
17885TIP3    H275071   0.141   3.901  15.229  0.0293 -0.6808 -1.2329
17886TIP3   OH275072   0.661   3.977   0.685  0.4873  0.4610 -0.1420
17886TIP3    H175073   0.615   4.000   0.766 -1.9396  0.2316 -1.3506
17886TIP3    H275074   0.751   4.006   0.699  0.2913 -0.1028  2.8286
17887TIP3   OH275075   6.642   5.052  12.765  0.2323  0.1798  0.3849
17887TIP3    H175076   6.725   5.073  12.807 -0.2389  0.8770  0.9780
17887TIP3    H275077   6.631   4.958  12.779 -0.3143  0.5334  2.5505
17888TIP3   OH275078   2.092   0.488  16.738 -0.1353  0.5247  0.0652
17888TIP3    H175079   2.002   0.463  16.761  0.4003  0.8089  2.6965
17888TIP3    H275080   2.144   0.462  16.813  1.8991  1.1312 -1.0687
17889TIP3   OH275081   0.675   1.346   3.450 -0.8026  0.2137 -0.1054
17889TIP3    H175082   0.622   1.269   3.429 -0.6881  0.2460 -0.5067
17889TIP3    H275083   0.671   1.351   3.546 -1.5870  0.2563 -0.1265
17890TIP3   OH275084   6.311   4.647   0.599  0.2449 -0.1394 -0.0426
17890TIP3    H175085   6.243   4.607   0.544  0.3151  0.3173 -0.4706
17890TIP3    H275086   6.265   4.716   0.647  0.6000  0.8872 -1.1271
17891TIP3   OH275087   2.253   2.561   3.664 -0.0179 -0.6322 -0.1990
17891TIP3    H175088   2.343   2.584   3.642 -0.1411 -1.7286 -2.1021
17891TIP3    H275089   2.221   2.513   3.587 -2.1307 -0.5288  0.5409
17892TIP3   OH275090   5.288   1.362  14.611  0.1367 -0.3946  0.5068
17892TIP3    H175091   5.269   1.302  14.538 -1.1730 -1.8786  1.9992
17892TIP3    H275092   5.372   1.333  14.645  0.1114 -0.5632  0.4257
17893TIP3   OH275093   3.140   6.490   3.973 -0.4322  0.3075 -0.3393
17893TIP3    H175094   3.103   6.572   3.941  0.1589  1.4866  1.8157
17893TIP3    H275095   3.097   6.476   4.058  1.2016 -0.3409  0.4167
17894TIP3   OH275096   6.266   2.167  14.097 -0.2973  0.3550  0.0170
17894TIP3    H175097   6.310   2.128  14.022 -2.0416 -3.0696  0.5574
17894TIP3    H275098   6.329   2.162  14.168 -0.3269 -1.2946 -0.0347
17895TIP3   OH275099   4.336   3.505  14.779  0.0939  0.1239  0.0473
17895TIP3    H175100   4.374   3.449  14.846  0.3570  0.2510  0.0039
17895TIP3    H275101   4.332   3.449  14.701 -0.5561 -0.1403  0.2621
17896TIP3   OH275102   2.631   3.413  14.553 -0.6099  0.1341  0.2710
17896TIP3    H175103   2.719   3.380  14.535 -0.6408  0.4585 -0.4833
17896TIP3    H275104   2.643   3.479  14.621 -0.2433  0.3269  0.0209
17897TIP3   OH275105   2.658   1.084  12.669  0.3315  0.2801 -0.1455
17897TIP3    H175106   2.681   1.012  12.610  0.9110  0.6423 -0.3743
17897TIP3    H275107   2.597   1.045  12.732  0.8690 -0.4875 -0.0838
17898TIP3   OH275108   1.145   6.611   3.034 -0.6000 -0.1446 -0.1241
17898TIP3    H175109   1.144   6.652   3.121  1.5069  0.7865 -0.4855
17898TIP3    H275110   1.068   6.646   2.990 -0.4196  1.2170  0.5819
17899TIP3   OH275111   0.647   0.230   4.296  0.4714 -0.2037  0.3026
17899TIP3    H175112   0.633   0.223   4.390  3.1573 -2.4506  0.6707
17899TIP3    H275113   0.707   0.304   4.286 -0.5158  0.6077  0.2092
17900TIP3   OH275114   5.761   6.124   1.379  0.4708 -0.0006 -0.4896
17900TIP3    H175115   5.854   6.128   1.398  0.3622 -1.3094  0.5061
17900TIP3    H275116   5.723   6.198   1.427  0.7644 -0.6809  0.8379
17901TIP3   OH275117   4.613   2.258  15.051  0.4198 -0.2401  0.8379
17901TIP3    H175118   4.664   2.206  15.113 -2.2606 -0.1656  3.3337
17901TIP3    H275119   4.620   2.348  15.084 -0.5319 -0.1035  0.6930
17902TIP3   OH275120   2.558   5.113  12.056  0.3163  0.3173 -0.3779
17902TIP3    H175121   2.632   5.086  12.001 -1.1759 -0.1458 -2.2888
17902TIP3    H275122   2.553   5.046  12.124  0.2308 -1.0296 -1.6518
17903TIP3   OH275123   0.166   5.095  16.017 -0.0027 -0.2936  0.6536
17903TIP3    H175124   0.155   5.116  15.924 -0.2498  0.7142  0.8906
17903TIP3    H275125   0.077   5.076  16.048 -0.1273  0.6787  0.9573
17904TIP3   OH275126   3.717   1.427  14.147 -0.1299 -0.1881  0.5453
17904TIP3    H175127   3.709   1.415  14.052 -0.0555 -0.9728  0.6304
17904TIP3    H275128   3.771   1.353  14.176  0.0797  0.1989  1.1651
17905TIP3   OH275129   5.330   4.298   5.147 -0.0716 -0.2822 -0.0423
17905TIP3    H175130   5.302   4.377   5.099  3.5789 -0.1318 -2.2924
17905TIP3    H275131   5.331   4.230   5.080 -1.0839 -1.7882  1.4065
17906TIP3   OH275132   4.096   0.107  17.119 -0.4072 -0.0842 -0.0579
17906TIP3    H175133   4.129   0.063  17.041  0.0567 -1.3730  0.8236
17906TIP3    H275134   4.166   0.168  17.144  0.2822 -1.0458  0.4144
17907TIP3   OH275135   4.162   1.807  11.738  0.9245  0.4009 -0.5576
17907TIP3    H175136   4.193   1.732  11.687 -1.2740 -0.8236 -0.2450
17907TIP3    H275137   4.137   1.770  11.823  1.3493  1.8007  0.2079
17908TIP3   OH275138   6.567   3.156  16.081  0.6516  0.5867 -0.0727
17908TIP3    H175139   6.593   3.246  16.098 -0.7621  1.5532 -2.5240
17908TIP3    H275140   6.613   3.132  16.001 -0.4223 -0.1709 -0.4990
17909TIP3   OH275141   5.078   4.449  13.998  0.3438  0.3948  0.5401
17909TIP3    H175142   5.156   4.496  13.969 -0.3696  0.3534 -1.6666
17909TIP3    H275143   5.076   4.371  13.942 -1.2423  0.3809  0.5863
17910TIP3   OH275144   5.431   2.577   4.814  0.0147 -1.1440  0.6413
17910TIP3    H175145   5.473   2.591   4.899  0.5375  0.5699  0.1352
17910TIP3    H275146   5.350   2.628   4.818  0.3636 -0.5101 -0.1013
17911TIP3   OH275147   5.129   4.035   6.849 -0.1023 -0.4237  0.1739
17911TIP3    H175148   5.180   4.101   6.801  1.3483 -1.1447  0.6806
17911TIP3    H275149   5.140   4.058   6.941  2.6821 -2.8243  0.5784
17912TIP3   OH275150   4.699   3.125   3.152 -0.5674 -0.1595  0.3503
17912TIP3    H175151   4.777   3.172   3.122 -1.5976  0.8127 -0.9211
17912TIP3    H275152   4.732   3.062   3.216  1.0194  1.5292  1.3032
17913TIP3   OH275153   2.721   3.592  16.289  0.1305  0.4106  0.0319
17913TIP3    H175154   2.815   3.600  16.271 -0.0375  0.8667 -0.6815
17913TIP3    H275155   2.706   3.498  16.299  0.4058  0.1899 -1.3924
17914TIP3   OH275156   1.070   4.606   4.612  0.2126  0.0490 -0.1595
17914TIP3    H175157   1.040   4.604   4.703  0.0724 -2.3607 -0.1888
17914TIP3    H275158   0.999   4.651   4.565 -0.1574  0.4663  0.7659
17915TIP3   OH275159   0.657   4.043  16.912  0.3696 -0.2434 -0.3979
17915TIP3    H175160   0.687   3.952  16.916  1.2312  0.0287 -0.5281
17915TIP3    H275161   0.710   4.083  16.843 -0.1975  0.2930 -0.5346
17916TIP3   OH275162   3.842   0.683   3.209 -0.4780  0.2977  0.7521
17916TIP3    H175163   3.862   0.703   3.301  0.7177 -2.0790  1.0952
17916TIP3    H275164   3.888   0.750   3.160  0.4523  0.5199  1.8696
17917TIP3   OH275165   4.861   2.544  13.365 -0.0379  0.0143 -0.5160
17917TIP3    H175166   4.855   2.593  13.447  2.8950  0.2863 -0.3829
17917TIP3    H275167   4.787   2.483  13.368 -0.7087  0.8616  1.7351
17918TIP3   OH275168   0.239   6.352  12.782 -0.0793  0.3070  0.0406
17918TIP3    H175169   0.233   6.319  12.871 -0.3043  1.7299  0.5690
17918TIP3    H275170   0.333   6.358  12.765  0.0572  2.6554  1.2317
17919TIP3   OH275171   0.766   0.329   2.027 -0.7557  0.5731  0.3206
17919TIP3    H175172   0.807   0.277   1.958  0.0908 -0.3276  1.4706
17919TIP3    H275173   0.822   0.407   2.034 -0.0487  0.0320  0.8865
17920TIP3   OH275174   0.751   4.311   0.489 -0.1337 -0.2997  0.0306
17920TIP3    H175175   0.673   4.296   0.543  0.4910 -0.7683  0.8121
17920TIP3    H275176   0.750   4.405   0.473 -0.6849 -0.2489  0.3122
17921TIP3   OH275177   5.790   4.963   4.371 -0.1199 -0.3058  0.0918
17921TIP3    H175178   5.786   4.991   4.463  1.3958 -0.8535  0.3566
17921TIP3    H275179   5.736   4.884   4.368  1.0832 -1.1797  0.8831
17922TIP3   OH275180   5.064   4.861   0.538 -0.3592 -0.6934 -0.0610
17922TIP3    H175181   5.019   4.837   0.619 -0.1456  0.4698  0.4142
17922TIP3    H275182   4.997   4.905   0.486 -0.2259 -0.5229 -0.0883
17923TIP3   OH275183   3.896   2.640   0.473  0.8059  0.1993  0.4667
17923TIP3    H175184   3.837   2.652   0.548  1.1170  3.6626  0.3411
17923TIP3    H275185   3.912   2.729   0.442  0.8934 -1.0745 -3.6170
17924TIP3   OH275186   2.138   3.822   6.307  0.2032 -0.0744  0.4697
17924TIP3    H175187   2.100   3.735   6.318 -1.4852  0.5962  0.1561
17924TIP3    H275188   2.082   3.880   6.359  2.0051  0.6770  1.6647
17925TIP3   OH275189   1.663   3.025   4.007  0.2754 -0.3427  0.2058
17925TIP3    H175190   1.682   3.118   4.016  1.9279 -0.5933 -0.3377
17925TIP3    H275191   1.730   2.993   3.946  0.7844 -2.2073  1.6779
17926TIP3   OH275192   4.857   5.173   0.380 -0.0915 -0.8057  0.1110
17926TIP3    H175193   4.808   5.091   0.378 -0.4922 -0.5869 -2.1297
17926TIP3    H275194   4.941   5.151   0.340  0.6015 -0.5637  1.3986
17927TIP3   OH275195   5.452   1.543   0.408 -0.2965 -0.6104  0.1201
17927TIP3    H175196   5.489   1.571   0.324  1.7097  1.0349  1.4557
17927TIP3    H275197   5.365   1.511   0.386 -0.0113  0.1746 -2.5206
17928TIP3   OH275198   1.594   1.646  13.077 -0.4000 -0.1456  0.1066
17928TIP3    H175199   1.621   1.562  13.039 -0.5114  0.6910 -1.9251
17928TIP3    H275200   1.553   1.693  13.005 -1.1195  1.3361  1.4317
17929TIP3   OH275201   6.729   5.632  11.871  0.3387 -0.2480 -0.4694
17929TIP3    H175202   6.795   5.644  11.803 -0.7940 -0.3066 -1.6202
17929TIP3    H275203   6.743   5.542  11.901 -0.2752 -0.8879 -1.9434
17930TIP3   OH275204   2.145   6.489  12.956  0.8476 -0.2232  0.1525
17930TIP3    H175205   2.206   6.476  12.883  1.3140 -0.4612  0.5842
17930TIP3    H275206   2.174   6.428  13.023 -0.4127 -0.9925  0.0278
17931TIP3   OH275207   5.223   4.150   1.184  0.8754 -0.0426  0.0190
17931TIP3    H175208   5.201   4.057   1.190 -0.6280  0.2621 -0.4270
17931TIP3    H275209   5.205   4.173   1.093  1.2705  0.6766  0.1224
17932TIP3   OH275210   2.484   4.390   2.035  0.4663 -0.2255  0.2792
17932TIP3    H175211   2.424   4.418   1.965  0.5419  0.7872  0.6165
17932TIP3    H275212   2.571   4.416   2.004  0.4393  0.8003  1.0147
17933TIP3   OH275213   2.612   3.296  11.744  0.2249  0.2577 -0.0034
17933TIP3    H175214   2.599   3.371  11.686  2.1415  0.8767  0.3023
17933TIP3    H275215   2.696   3.312  11.787 -0.1664 -1.1804  1.4415
17934TIP3   OH275216   6.499   1.021   5.926  0.3815 -0.1859 -0.7084
17934TIP3    H175217   6.427   1.080   5.945 -1.2487 -2.1320 -0.4909
17934TIP3    H275218   6.562   1.037   5.997 -0.4479  0.6096 -0.1248
17935TIP3   OH275219   0.324   2.238   1.684 -0.8947 -0.0558 -0.0847
17935TIP3    H175220   0.406   2.196   1.710  0.2211  0.9667 -1.7963
17935TIP3    H275221   0.294   2.189   1.608 -1.2191  0.3599 -0.2280
17936TIP3   OH275222   1.445   1.642  12.781 -0.2064 -0.0966 -0.3719
17936TIP3    H175223   1.489   1.618  12.699  0.7637  1.0938 -0.2248
17936TIP3    H275224   1.403   1.726  12.761 -1.0838 -0.4428 -0.0258
17937TIP3   OH275225   5.006   6.571   5.342  0.1686 -0.7142 -0.2259
17937TIP3    H175226   5.030   6.525   5.422 -1.4775 -0.0802  0.6931
17937TIP3    H275227   5.045   6.658   5.351 -0.6386 -0.3893  0.2756
17938TIP3   OH275228   5.667   3.512   4.766 -0.3013 -0.8048  0.8235
17938TIP3    H175229   5.667   3.604   4.740  0.9916 -0.7685  0.8698
17938TIP3    H275230   5.602   3.507   4.836 -2.2168 -0.4556 -0.8173
17939TIP3   OH275231   5.364   1.727   0.715 -0.2194  0.2766 -0.0930
17939TIP3    H175232   5.396   1.640   0.741 -0.7064 -0.1205 -0.8059
17939TIP3    H275233   5.419   1.751   0.640 -0.2613  0.4681 -0.0627
17940TIP3   OH275234   2.277   4.336  16.604 -0.0886 -0.5577  0.2187
17940TIP3    H175235   2.228   4.407  16.645 -0.3872  0.3050 -1.5421
17940TIP3    H275236   2.209   4.277  16.570  0.1571 -1.6033  1.4335
17941TIP3   OH275237   3.820   2.505   0.222 -0.1890  0.1090 -0.0661
17941TIP3    H175238   3.737   2.552   0.225  0.1948  0.8256 -0.4466
17941TIP3    H275239   3.856   2.514   0.310 -0.7480 -0.6552  0.2550
17942TIP3   OH275240   5.272   6.214  14.202  0.2269  0.4426 -0.5917
17942TIP3    H175241   5.225   6.272  14.143 -0.2126  0.8066  0.0996
17942TIP3    H275242   5.356   6.258  14.218  0.6620 -0.0140 -1.5068
17943TIP3   OH275243   5.699   0.904  16.075 -0.4149 -0.0321  0.4060
17943TIP3    H175244   5.605   0.886  16.076 -0.6223  0.9779  0.0721
17943TIP3    H275245   5.710   0.983  16.128  0.1019  0.4447 -0.3796
17944TIP3   OH275246   0.877   2.658   3.282 -0.6283 -0.1788  0.1261
17944TIP3    H175247   0.781   2.652   3.284 -0.5426 -2.8645  0.2718
17944TIP3    H275248   0.899   2.650   3.189 -0.5366  1.5953 -0.0353
17945TIP3   OH275249   1.590   1.358  13.852 -0.6543  0.0875  0.2124
17945TIP3    H175250   1.594   1.322  13.763 -0.8853  0.5744  0.0010
17945TIP3    H275251   1.672   1.407  13.861  0.6778 -2.1960  1.2630
17946TIP3   OH275252   4.367   6.130   2.444  0.0555  0.2648  0.0132
17946TIP3    H175253   4.312   6.197   2.483 -1.7519 -1.8416  1.3354
17946TIP3    H275254   4.388   6.164   2.357 -0.8601  2.4587  0.5751
17947TIP3   OH275255   0.075   6.235  11.736 -0.0543  0.3534 -0.0969
17947TIP3    H175256   0.100   6.294  11.666  0.0133  2.4465  1.5800
17947TIP3    H275257   0.010   6.284  11.787 -0.8052 -1.4509  0.7972
17948TIP3   OH275258   6.616   4.253   1.373  0.0042  0.8002 -0.0478
17948TIP3    H175259   6.581   4.322   1.317 -0.3147  0.6375 -0.0454
17948TIP3    H275260   6.560   4.177   1.357  0.5516  0.4389 -0.2970
17949TIP3   OH275261   1.060   3.321  14.783  0.0486 -0.2924  0.0453
17949TIP3    H175262   1.048   3.412  14.757  1.4119  0.2386  1.1639
17949TIP3    H275263   1.000   3.308  14.856  0.6831  0.0671  0.6385
17950TIP3   OH275264   5.164   5.975   2.437  0.0217  0.3784 -0.1084
17950TIP3    H175265   5.159   5.933   2.351  1.5962 -0.1520  0.0307
17950TIP3    H275266   5.165   5.903   2.499  3.1529  0.4889  0.1173
17951TIP3   OH275267   3.054   6.061  11.955  0.2227  0.0231 -0.2456
17951TIP3    H175268   3.026   6.050  12.046 -0.3189 -2.0310 -0.6216
17951TIP3    H275269   3.037   6.153  11.936 -0.9319  0.1673  1.3163
17952TIP3   OH275270   0.955   0.586   0.430 -0.0600  0.4975 -0.6415
17952TIP3    H175271   0.938   0.503   0.386 -0.2687  0.5217 -0.6085
17952TIP3    H275272   1.037   0.617   0.392  0.2929  0.0267 -0.2784
17953TIP3   OH275273   0.898   1.612   4.041  0.5037 -0.4718 -0.0079
17953TIP3    H175274   0.812   1.578   4.068  0.9773 -0.8683  1.0728
17953TIP3    H275275   0.958   1.580   4.108  1.1792  1.5080  0.4135
17954TIP3   OH275276   0.355   5.699   0.153  0.1313 -0.5723 -0.5116
17954TIP3    H175277   0.287   5.745   0.202 -0.3393 -2.0795  0.3372
17954TIP3    H275278   0.312   5.619   0.121  1.1795 -0.9693 -0.9815
17955TIP3   OH275279   0.861   4.217   5.722 -0.0088 -0.6825  0.1057
17955TIP3    H175280   0.770   4.223   5.749 -0.1014 -0.4486 -0.2520
17955TIP3    H275281   0.908   4.192   5.801 -0.3994 -0.9272  0.2605
17956TIP3   OH275282   0.865   1.998   4.074 -0.9192 -0.5224 -0.2022
17956TIP3    H175283   0.851   1.963   3.986  0.1759  1.0050 -1.0125
17956TIP3    H275284   0.957   2.025   4.076 -0.5654 -1.6185  1.8327
17957TIP3   OH275285   5.034   1.855  12.809 -0.2916 -0.0153  0.5330
17957TIP3    H175286   5.068   1.823  12.892 -0.0813 -0.2124  0.3708
17957TIP3    H275287   4.959   1.909  12.833 -0.5911 -0.5539  0.8081
17958TIP3   OH275288   0.985   2.636  13.185  0.3502 -0.1534  0.3521
17958TIP3    H175289   1.010   2.671  13.099 -2.0120  0.5708 -0.0976
17958TIP3    H275290   1.023   2.698  13.247 -0.4693  1.0300 -0.3005
17959TIP3   OH275291   1.810   1.534   0.306  0.2366 -0.5081  0.1931
17959TIP3    H175292   1.797   1.620   0.266 -0.3256  0.1863  1.7583
17959TIP3    H275293   1.733   1.483   0.281  0.7233 -0.6946 -1.0020
17960TIP3   OH275294   4.242   0.905  12.087 -0.2490 -0.0213 -0.1212
17960TIP3    H175295   4.156   0.944  12.101 -1.2704 -2.5851  1.3972
17960TIP3    H275296   4.304   0.975  12.111 -1.9271  1.1612  1.0214
17961TIP3   OH275297   0.070   6.010   3.608 -0.4327 -0.0915  0.2584
17961TIP3    H175298   0.149   6.059   3.631  1.8738 -0.7128 -5.0268
17961TIP3    H275299   0.035   6.056   3.531 -3.3957 -1.7377  0.4755
17962TIP3   OH275300   4.082   2.315   0.674 -0.1126  0.4952  0.5207
17962TIP3    H175301   4.140   2.373   0.625 -0.0088  1.1259  1.3696
17962TIP3    H275302   3.995   2.352   0.662 -0.2274  0.0641 -0.0131
17963TIP3   OH275303   1.880   2.432  10.638 -0.0239 -0.1952 -1.3148
17963TIP3    H175304   1.788   2.454  10.620 -1.1384 -1.6668  1.9427
17963TIP3    H275305   1.894   2.349  10.594 -0.8688 -0.8673 -0.3499
17964TIP3   OH275306   5.166   3.414  16.194 -0.3186  0.0893 -0.2374
17964TIP3    H175307   5.089   3.470  16.197  0.0472  0.5699  1.7952
17964TIP3    H275308   5.234   3.464  16.240  1.6960  0.3027 -3.1694
17965TIP3   OH275309   3.057   4.661  14.806  0.1639 -0.5066 -0.1210
17965TIP3    H175310   3.081   4.639  14.716  1.1933 -0.2900  0.0898
17965TIP3    H275311   2.980   4.607  14.824 -0.5865  0.0879 -1.4168
17966TIP3   OH275312   3.913   2.371   3.112 -0.4342 -0.1076 -0.2463
17966TIP3    H175313   3.906   2.306   3.043  2.1525 -2.3226  1.4022
17966TIP3    H275314   3.866   2.332   3.186 -0.0784  0.5367  0.3300
17967TIP3   OH275315   4.403   2.690   5.056 -0.3238 -0.2829 -0.2439
17967TIP3    H175316   4.408   2.634   5.133  0.5760  0.9024  0.5894
17967TIP3    H275317   4.488   2.679   5.013 -0.3426  0.0438 -0.3654
17968TIP3   OH275318   0.082   3.834   4.012  0.3355 -0.1263  0.1166
17968TIP3    H175319   0.148   3.777   4.051  2.1493  0.1231 -2.3608
17968TIP3    H275320   0.090   3.916   4.060  0.1918 -0.7957  1.3363
17969TIP3   OH275321   4.757   3.414   4.181 -0.1887  0.3631 -0.4499
17969TIP3    H175322   4.826   3.440   4.242 -1.1547 -0.4541  1.0752
17969TIP3    H275323   4.741   3.491   4.127  2.3944  0.3504 -1.3666
17970TIP3   OH275324   5.294   1.479  15.172 -0.4212 -0.6980  0.2101
17970TIP3    H175325   5.208   1.512  15.145  0.4074 -0.6239 -2.5471
17970TIP3    H275326   5.327   1.546  15.233 -2.9601 -1.5877  2.7969
17971TIP3   OH275327   5.486   4.554   1.754 -0.3081 -0.1065  0.7319
17971TIP3    H175328   5.509   4.601   1.674 -0.9252  0.4902  0.9044
17971TIP3    H275329   5.422   4.488   1.726 -0.9141  0.4396  0.8120
17972TIP3   OH275330   6.620   2.996  11.853 -0.4855  0.3938 -0.4752
17972TIP3    H175331   6.534   2.985  11.894 -1.5661  0.5161 -2.6132
17972TIP3    H275332   6.639   3.090  11.863  0.3412  0.0662  1.6579
17973TIP3   OH275333   3.184   0.781   6.815 -0.0334 -0.5472  0.1419
17973TIP3    H175334   3.106   0.766   6.869 -2.0924 -0.3509 -2.5585
17973TIP3    H275335   3.158   0.753   6.728  2.2663  1.4148 -1.2996
17974TIP3   OH275336   3.028   0.390  12.639  0.0276  0.0269 -0.4475
17974TIP3    H175337   3.062   0.350  12.719  0.5340  0.7617 -0.2775
17974TIP3    H275338   3.095   0.373  12.573  0.0904  0.3044 -0.4568
17975TIP3   OH275339   3.209   2.377   0.363  0.0406 -0.0308 -0.2316
17975TIP3    H175340   3.295   2.366   0.403  0.2201  1.2554 -0.2492
17975TIP3    H275341   3.151   2.322   0.416  0.5734  0.3723  0.7824
17976TIP3   OH275342   0.401   6.526  16.976 -0.0514  0.0190  0.0184
17976TIP3    H175343   0.480   6.543  16.924  0.3418 -0.1882  0.5404
17976TIP3    H275344   0.406   6.433  16.998  0.5903  0.4084  1.7140
17977TIP3   OH275345   2.304   3.313   4.935  0.4099 -0.1652 -0.1366
17977TIP3    H175346   2.303   3.219   4.948 -1.5080 -0.3285 -1.0977
17977TIP3    H275347   2.217   3.342   4.962  1.0659  1.3831  0.4302
17978TIP3   OH275348   1.525   3.650  12.134  0.3134 -0.7188  0.8151
17978TIP3    H175349   1.551   3.690  12.051  1.4639 -0.3693  1.3316
17978TIP3    H275350   1.491   3.564  12.110 -1.4130  0.1873 -0.2269
17979TIP3   OH275351   1.754   0.674   1.497  0.6122 -0.0529 -0.6403
17979TIP3    H175352   1.721   0.645   1.412  1.0338 -2.8015  0.0444
17979TIP3    H275353   1.755   0.595   1.551  0.9191  1.4839  1.7714
17980TIP3   OH275354   4.383   1.673   6.141 -0.1322  0.3951 -0.4612
17980TIP3    H175355   4.298   1.686   6.184 -0.6727  0.1328 -1.4058
17980TIP3    H275356   4.366   1.692   6.049  0.8492  0.3481 -0.6653
17981TIP3   OH275357   2.018   2.996   5.484  0.6877 -0.2597  0.2055
17981TIP3    H175358   2.039   3.086   5.462  1.2309 -0.6302 -0.9050
17981TIP3    H275359   1.928   2.984   5.453  1.4317 -0.7649 -1.9787
17982TIP3   OH275360   5.512   2.712  14.424  1.1108 -0.2114 -0.1147
17982TIP3    H175361   5.595   2.680  14.459  0.8387  0.9306  1.6927
17982TIP3    H275362   5.448   2.647  14.455  1.1599 -0.3952 -0.3985
17983TIP3   OH275363   1.054   4.161   0.117 -0.2851  0.5388  0.2176
17983TIP3    H175364   1.088   4.126   0.200  0.8402  0.2347 -0.3440
17983TIP3    H275365   0.973   4.113   0.103  0.7987 -1.3014 -0.1073
17984TIP3   OH275366   0.387   5.413   1.516 -0.2840  0.0760  0.1196
17984TIP3    H175367   0.386   5.462   1.598  2.4560 -1.6120  1.2861
17984TIP3    H275368   0.315   5.351   1.524  0.3972 -0.5732  1.6472
17985TIP3   OH275369   1.610   0.295  14.443  0.2990 -0.5895  0.0941
17985TIP3    H175370   1.566   0.236  14.504  0.6946  0.2194  1.1698
17985TIP3    H275371   1.570   0.274  14.358 -1.2453 -0.7853  0.8225
17986TIP3   OH275372   4.426   6.590   1.705  0.2591 -0.0331  0.1740
17986TIP3    H175373   4.477   6.530   1.760 -1.3062  0.4685  2.3066
17986TIP3    H275374   4.485   6.664   1.690  0.8761 -0.3622  0.8771
17987TIP3   OH275375   2.887   0.962  13.481 -0.0050 -0.1589 -0.2332
17987TIP3    H175376   2.853   1.021  13.413 -1.5070  0.3364  0.8947
17987TIP3    H275377   2.843   0.879  13.464 -0.9660  0.1665  0.5274
17988TIP3   OH275378   0.530   5.746   3.429  0.6382  0.0275  0.3327
17988TIP3    H175379   0.614   5.755   3.474  0.4555  0.8042  0.5281
17988TIP3    H275380   0.515   5.831   3.389 -0.6507  0.3195  1.3539
17989TIP3   OH275381   1.726   1.166  14.435 -0.7473  0.8011  0.1129
17989TIP3    H175382   1.765   1.116  14.364 -1.2958 -0.3188  0.5736
17989TIP3    H275383   1.672   1.232  14.392  0.2401  1.2274 -0.5094
17990TIP3   OH275384   3.385   0.982   3.353  0.1536 -0.5481  0.1061
17990TIP3    H175385   3.308   1.023   3.393  0.6118  1.6905 -1.1367
17990TIP3    H275386   3.454   0.991   3.418  0.3035  0.9564 -0.2193
17991TIP3   OH275387   6.523   2.004  11.491 -0.1150  0.0004 -0.3351
17991TIP3    H175388   6.535   2.006  11.586  1.2334 -0.4644 -0.4638
17991TIP3    H275389   6.429   1.997  11.478 -0.3134  0.0612  0.9688
17992TIP3   OH275390   2.420   1.177  12.903 -0.3563  0.1379 -0.4480
17992TIP3    H175391   2.481   1.104  12.918  0.1616  0.6268 -0.1714
17992TIP3    H275392   2.394   1.167  12.811  0.9958  0.5650 -0.9028
17993TIP3   OH275393   1.713   2.803  15.373  0.4080 -0.1514  0.2043
17993TIP3    H175394   1.780   2.869  15.356  0.6416 -0.4644 -0.1108
17993TIP3    H275395   1.757   2.719  15.356 -0.3583 -0.3210 -1.0912
17994TIP3   OH275396   3.744   0.566  16.654 -0.0792  0.0695 -0.1307
17994TIP3    H175397   3.778   0.488  16.610  0.7089  1.3937 -2.0396
17994TIP3    H275398   3.822   0.619  16.671 -0.6736  0.8168  0.3144
17995TIP3   OH275399   4.086   4.846  12.340 -0.0382  1.0145 -0.2824
17995TIP3    H175400   4.180   4.836  12.357  0.0660  1.1551 -0.7436
17995TIP3    H275401   4.074   4.811  12.252 -0.5410  0.3797  0.0307
17996TIP3   OH275402   2.818   5.076  11.969 -0.1145 -0.1362 -0.0349
17996TIP3    H175403   2.824   5.006  11.904  0.2034  0.1976 -0.3692
17996TIP3    H275404   2.881   5.142  11.940 -0.3565  0.2581  0.3163
17997TIP3   OH275405   3.850   3.348   3.244 -0.9082 -0.3040 -0.0241
17997TIP3    H175406   3.859   3.396   3.162  3.1519 -2.3653 -1.0749
17997TIP3    H275407   3.787   3.279   3.225 -0.0854 -0.7035 -1.4655
17998TIP3   OH275408   0.789   0.822   2.622 -0.0398 -0.5635 -0.0015
17998TIP3    H175409   0.870   0.805   2.671 -1.8208 -1.5249  2.8374
17998TIP3    H275410   0.780   0.917   2.622  0.9413 -0.4535 -0.1757
17999TIP3   OH275411   5.933   2.466   1.898  0.3578  0.0573 -0.3272
17999TIP3    H175412   5.885   2.508   1.969 -0.8871 -1.2731 -0.3355
17999TIP3    H275413   5.968   2.386   1.938  1.2805  0.2469 -0.7303
18000TIP3   OH275414   1.226   4.520   4.057  0.2167  0.7111  0.0804
18000TIP3    H175415   1.267   4.575   3.990 -0.3179 -1.2973 -2.0444
18000TIP3    H275416   1.278   4.440   4.057 -0.4848  0.2325  1.2785
18001TIP3   OH275417   2.334   6.020  13.420 -0.4957  0.0763 -0.4261
18001TIP3    H175418   2.404   5.983  13.366  0.0572  0.6957 -0.1499
18001TIP3    H275419   2.288   5.943  13.455  0.4051 -0.3626 -0.1482
18002TIP3   OH275420   5.553   1.264   4.920  0.2059 -0.7801 -0.3055
18002TIP3    H175421   5.574   1.173   4.941 -1.9361 -1.4807 -0.9160
18002TIP3    H275422   5.588   1.277   4.832  3.2585  0.0323  0.9326
18003TIP3   OH275423   2.493   5.406  12.422 -0.1367 -0.4322  0.3962
18003TIP3    H175424   2.572   5.356  12.406 -0.2475 -0.8915  1.2340
18003TIP3    H275425   2.442   5.399  12.341 -0.2516 -1.8626  0.5704
18004TIP3   OH275426   2.141   4.167   6.161  0.5739 -0.3942  0.1409
18004TIP3    H175427   2.076   4.151   6.230  3.4221 -0.8982  2.9336
18004TIP3    H275428   2.146   4.262   6.155  0.5323 -0.3384  0.8829
18005TIP3   OH275429   4.137   0.547  16.580 -0.9902 -0.4449 -0.6155
18005TIP3    H175430   4.104   0.566  16.668  1.2960  2.1508 -0.1684
18005TIP3    H275431   4.085   0.603  16.523 -3.2050 -2.9023 -1.2020
18006TIP3   OH275432   1.960   4.473  12.870 -0.1257  0.1936 -0.5754
18006TIP3    H175433   1.889   4.486  12.808 -1.7124 -0.1996  1.0798
18006TIP3    H275434   1.959   4.551  12.925 -0.3169 -0.4920  0.4223
18007TIP3   OH275435   3.392   3.522   1.255 -0.2121 -0.4952 -0.6270
18007TIP3    H175436   3.388   3.457   1.324 -2.2367 -1.1083 -1.2625
18007TIP3    H275437   3.441   3.480   1.184  1.2680 -0.1082  0.1174
18008TIP3   OH275438   2.762   2.656   0.320 -0.0501  0.1447 -0.2039
18008TIP3    H175439   2.671   2.637   0.297  0.0656  0.4895 -0.9739
18008TIP3    H275440   2.804   2.677   0.237  0.6467  0.3623  0.1950
18009TIP3   OH275441   3.833   5.627   6.135 -0.4584  0.2177  0.0902
18009TIP3    H175442   3.835   5.641   6.230 -0.1386  1.1741 -0.0494
18009TIP3    H275443   3.887   5.550   6.121 -1.2778 -0.5075  0.7764
18010TIP3   OH275444   5.372   2.952   1.965  0.0898  0.0266  0.3370
18010TIP3    H175445   5.305   3.018   1.946  1.0466  0.8062 -0.4177
18010TIP3    H275446   5.323   2.871   1.974 -1.2368  0.9597  2.2324
18011TIP3   OH275447   1.419   2.872  16.428  0.0590 -0.0819  0.1951
18011TIP3    H175448   1.457   2.959  16.422 -2.1450  1.0737  1.4836
18011TIP3    H275449   1.338   2.878  16.378 -0.8236 -0.9247  1.4552
18012TIP3   OH275450   0.254   1.562   3.703 -0.2850  0.2094 -0.2536
18012TIP3    H175451   0.230   1.489   3.645 -0.5619  0.4194 -0.4054
18012TIP3    H275452   0.325   1.607   3.656 -1.2469  1.0312 -0.9616
18013TIP3   OH275453   5.448   5.216  11.150  0.0953  0.7671 -0.2662
18013TIP3    H175454   5.357   5.207  11.180 -0.8823  1.6847 -2.7125
18013TIP3    H275455   5.464   5.310  11.150  0.6239  0.6863 -0.9333
18014TIP3   OH275456   4.531   3.759   3.216 -0.0781 -0.2194 -0.0083
18014TIP3    H175457   4.440   3.730   3.215 -0.6419  1.4618 -0.6949
18014TIP3    H275458   4.526   3.854   3.201  1.8010 -0.1650 -0.5158
18015TIP3   OH275459   3.376   6.200  14.514  0.3796 -0.4636 -0.1234
18015TIP3    H175460   3.384   6.293  14.492 -0.2194 -0.2442  0.5262
18015TIP3    H275461   3.394   6.196  14.608 -1.1539 -0.7600  0.1853
18016TIP3   OH275462   1.249   4.003  13.357  0.2019 -0.1951  0.0563
18016TIP3    H175463   1.168   3.992  13.307 -0.4264 -2.6902  1.4212
18016TIP3    H275464   1.300   4.067  13.308 -2.2923  0.9168 -1.2235
18017TIP3   OH275465   0.963   0.916  13.184 -0.3001  0.5292 -1.1173
18017TIP3    H175466   0.918   0.999  13.170 -1.4344 -0.0404 -1.0140
18017TIP3    H275467   1.007   0.926  13.268 -2.2736  0.2923  0.0184
18018TIP3   OH275468   3.582   2.291  15.296 -0.3580 -0.1503 -0.5399
18018TIP3    H175469   3.667   2.325  15.321 -0.5017 -0.2320  0.0866
18018TIP3    H275470   3.522   2.365  15.308 -0.5381 -0.3822  0.0344
18019TIP3   OH275471   3.714   1.610   3.063 -0.9511  0.8082 -0.0382
18019TIP3    H175472   3.689   1.634   2.974 -0.1133  2.0459  0.0336
18019TIP3    H275473   3.770   1.682   3.092  1.3530 -1.0488  0.3927
18020TIP3   OH275474   1.199   2.173   5.739 -0.0999  0.3172  0.2700
18020TIP3    H175475   1.146   2.187   5.660  1.9997  1.3125 -1.0451
18020TIP3    H275476   1.265   2.109   5.713  0.1759  0.0820  1.4701
18021TIP3   OH275477   5.179   0.260   3.364 -0.2170  0.1765  0.3759
18021TIP3    H175478   5.133   0.343   3.376  0.1572  0.1242  2.4876
18021TIP3    H275479   5.271   0.282   3.377  0.2256 -0.1076 -1.8024
18022TIP3   OH275480   6.703   0.582  16.449  0.1942 -0.5736  0.3542
18022TIP3    H175481   6.769   0.535  16.399  1.4775  0.8815  0.5950
18022TIP3    H275482   6.731   0.572  16.540  0.9549  1.2650  0.3564
18023TIP3   OH275483   0.162   5.376   1.247 -0.4504 -0.0554  0.1733
18023TIP3    H175484   0.083   5.329   1.273 -0.7810  0.6178  0.4125
18023TIP3    H275485   0.136   5.468   1.245 -0.5398 -0.0424 -2.8605
18024TIP3   OH275486   5.007   2.184  16.884  0.3769  0.7682 -0.2424
18024TIP3    H175487   5.008   2.093  16.915 -3.8565  0.3370 -0.7049
18024TIP3    H275488   5.054   2.233  16.951  0.0411 -1.3886  1.7069
18025TIP3   OH275489   1.487   4.976  11.159 -0.0320  0.7129  0.1730
18025TIP3    H175490   1.575   5.013  11.153 -0.0860  0.7713 -0.2525
18025TIP3    H275491   1.429   5.051  11.147 -0.1508  0.8367  1.3680
18026TIP3   OH275492   6.620   5.799   4.886 -0.2414  0.3731 -0.1438
18026TIP3    H175493   6.558   5.792   4.814  0.2478 -0.3941 -0.4932
18026TIP3    H275494   6.654   5.711   4.898 -0.6411  0.3775  1.3304
18027TIP3   OH275495   5.721   5.707  12.386  0.1279  0.7507 -0.0438
18027TIP3    H175496   5.798   5.760  12.363  1.5235 -1.4516 -0.8187
18027TIP3    H275497   5.726   5.698  12.481  0.5489  1.0289 -0.0354
18028TIP3   OH275498   4.195   2.750  16.546 -0.1004  0.2718 -0.0969
18028TIP3    H175499   4.226   2.820  16.603 -0.3890  1.5821 -1.5028
18028TIP3    H275500   4.108   2.728  16.581  0.9077 -1.0381  1.7510
18029TIP3   OH275501   6.260   0.870   5.913 -0.1824 -0.2008 -0.1728
18029TIP3    H175502   6.349   0.906   5.912  0.2813 -1.2937  0.2344
18029TIP3    H275503   6.225   0.894   5.999 -0.4341  0.5724 -0.4858
18030TIP3   OH275504   1.486   4.235  15.946 -0.2339 -0.8856  0.1631
18030TIP3    H175505   1.554   4.269  15.888  0.2479  0.7297  1.6030
18030TIP3    H275506   1.443   4.312  15.982 -3.6978 -1.7999 -1.5246
18031TIP3   OH275507   4.693   3.873  12.932  0.6514  0.4092 -0.0713
18031TIP3    H175508   4.603   3.903  12.924  0.4360 -0.0878  0.4041
18031TIP3    H275509   4.746   3.952  12.927  0.1813  0.7209 -0.1619
18032TIP3   OH275510   6.586   3.916  13.113  0.3813 -0.5173 -0.0772
18032TIP3    H175511   6.592   3.841  13.172 -1.5808 -0.9032 -0.2887
18032TIP3    H275512   6.532   3.885  13.040  1.6085  0.3704 -1.4182
18033TIP3   OH275513   5.590   4.226   1.390  0.1757  0.3934  0.3220
18033TIP3    H175514   5.531   4.270   1.328 -0.2749  0.4972  0.8197
18033TIP3    H275515   5.654   4.181   1.334 -1.3479 -1.1020 -0.3221
18034TIP3   OH275516   0.643   6.293  11.398 -0.8349  0.5388  0.1121
18034TIP3    H175517   0.641   6.197  11.392  0.0313  0.4548  0.8571
18034TIP3    H275518   0.670   6.322  11.311 -0.3582  0.0556  0.0902
18035TIP3   OH275519   4.875   4.797   0.731 -0.3310  0.0480 -0.2452
18035TIP3    H175520   4.798   4.807   0.675 -0.1743  0.8447 -0.3292
18035TIP3    H275521   4.840   4.784   0.819 -0.5646  0.0277 -0.3420
18036TIP3   OH275522   2.690   3.276  13.247 -0.3351 -0.1442  0.1343
18036TIP3    H175523   2.764   3.322  13.207  1.3858 -0.8940  2.2597
18036TIP3    H275524   2.698   3.186  13.215 -1.6046  0.1911 -1.2356
18037TIP3   OH275525   6.393   2.021  13.092 -0.3524  0.0478 -0.7325
18037TIP3    H175526   6.447   2.079  13.145 -1.0918  0.7952 -0.7753
18037TIP3    H275527   6.347   1.966  13.156 -1.4986  1.1748 -0.5516
18038TIP3   OH275528   5.702   3.683  12.970  0.0651  0.2585 -0.3576
18038TIP3    H175529   5.658   3.740  12.908  3.3267  1.5259 -1.7146
18038TIP3    H275530   5.726   3.606  12.919  0.8913  0.3604 -0.1381
18039TIP3   OH275531   2.734   1.463  16.166 -0.2850  0.1901 -0.5914
18039TIP3    H175532   2.757   1.555  16.182 -2.0097  0.5875 -0.1324
18039TIP3    H275533   2.817   1.416  16.166  0.5506  1.6245  0.0620
18040TIP3   OH275534   0.230   6.704   5.069 -0.1892 -0.1582 -0.3087
18040TIP3    H175535   0.291   6.771   5.099 -0.6457  0.3186 -0.4431
18040TIP3    H275536   0.260   6.624   5.113  1.2010 -0.1847 -1.2184
18041TIP3   OH275537   6.053   1.393   4.186 -0.4700 -0.3039  0.2044
18041TIP3    H175538   6.129   1.441   4.152 -0.5897 -0.6061 -0.4968
18041TIP3    H275539   6.088   1.342   4.258 -0.7012  2.3364  2.3550
18042TIP3   OH275540   5.379   5.952   2.196 -0.0445 -0.2509  0.4867
18042TIP3    H175541   5.450   5.940   2.132 -0.5184 -0.7928  0.0469
18042TIP3    H275542   5.356   5.862   2.222 -0.6482 -0.0881  0.5285
18043TIP3   OH275543   3.715   3.533   1.959 -0.6218 -0.1343  0.8410
18043TIP3    H175544   3.766   3.523   2.040  1.1459  0.2263 -0.1754
18043TIP3    H275545   3.751   3.611   1.917 -2.8951  0.8967  0.6442
18044TIP3   OH275546   6.182   3.302   1.590 -0.1601 -0.5892 -1.0783
18044TIP3    H175547   6.153   3.337   1.506  0.4642 -0.4012 -1.2194
18044TIP3    H275548   6.140   3.217   1.597 -0.5492 -0.4226 -1.3856
18045TIP3   OH275549   5.505   6.176  14.447  0.0853 -0.1563  1.1417
18045TIP3    H175550   5.417   6.177  14.483 -0.1966  1.4575  0.4976
18045TIP3    H275551   5.561   6.204  14.520  0.2025 -1.9103  1.7733
18046TIP3   OH275552   2.247   5.968  12.438  0.1722 -0.4372  0.2648
18046TIP3    H175553   2.165   5.923  12.417 -0.2336  0.1014  0.6965
18046TIP3    H275554   2.223   6.035  12.501  0.6397  0.8901 -0.9062
18047TIP3   OH275555   6.143   2.396   5.092 -0.7715 -0.7564 -0.3321
18047TIP3    H175556   6.181   2.392   5.181 -0.1196 -0.6203 -0.5957
18047TIP3    H275557   6.061   2.443   5.103 -1.4835 -2.1171  0.4591
18048TIP3   OH275558   6.006   4.188   4.210  0.2644 -0.4215  0.1481
18048TIP3    H175559   6.061   4.266   4.213 -0.1613  0.1622 -3.0035
18048TIP3    H275560   5.933   4.208   4.269 -0.1034  1.8658 -0.9511
18049TIP3   OH275561   0.499   2.793  14.432 -0.1056  0.1190  0.1233
18049TIP3    H175562   0.444   2.864  14.465  0.2300  0.6231 -0.3801
18049TIP3    H275563   0.552   2.834  14.364  0.2288 -0.5752 -0.0399
18050TIP3   OH275564   2.514   6.341   1.427 -0.1041 -0.6098  0.1467
18050TIP3    H175565   2.560   6.405   1.480 -0.4479 -0.0492 -0.2167
18050TIP3    H275566   2.579   6.273   1.409  0.4967  0.0128 -0.0996
18051TIP3   OH275567   6.536   2.435  17.032  0.0302 -0.2870 -0.2353
18051TIP3    H175568   6.454   2.475  17.004 -0.3165  0.9307  2.1655
18051TIP3    H275569   6.581   2.410  16.951 -2.2891 -0.1778 -1.6279
18052TIP3   OH275570   2.499   1.147  10.734 -0.1745  0.5267  0.0948
18052TIP3    H175571   2.568   1.141  10.800  0.0321 -1.1475 -0.2280
18052TIP3    H275572   2.523   1.082  10.668 -1.4559  0.7292 -0.6089
18053TIP3   OH275573   3.486   4.352   3.263 -0.1919 -0.4803 -0.3934
18053TIP3    H175574   3.401   4.347   3.219 -1.2482 -1.7935  1.6811
18053TIP3    H275575   3.482   4.434   3.313  0.5037  0.3472 -1.6244
18054TIP3   OH275576   2.528   3.715   5.547  0.0855 -0.2704  0.5330
18054TIP3    H175577   2.474   3.790   5.572 -0.7377  0.0216 -1.8914
18054TIP3    H275578   2.483   3.676   5.473  2.9496 -0.2770 -1.3822
18055TIP3   OH275579   0.270   6.315  12.283 -0.1000  0.5216 -0.3611
18055TIP3    H175580   0.201   6.251  12.270 -0.7356  1.0439  0.4015
18055TIP3    H275581   0.347   6.263  12.307 -0.6761  0.0518  0.5137
18056TIP3   OH275582   3.363   6.537  10.847  0.1501  0.2292  0.0984
18056TIP3    H175583   3.407   6.454  10.829  2.1568  0.6009  2.6699
18056TIP3    H275584   3.281   6.512  10.890 -1.3630 -0.4205 -2.9013
18057TIP3   OH275585   1.254   6.204  16.786  0.1633  0.4156  0.2159
18057TIP3    H175586   1.218   6.142  16.850 -0.9330 -0.8150 -1.5199
18057TIP3    H275587   1.325   6.248  16.834 -1.6272  0.7353  2.7768
18058TIP3   OH275588   3.130   6.281   1.769 -0.0574 -0.1896 -0.6386
18058TIP3    H175589   3.056   6.325   1.727 -0.6716  0.3977  0.9847
18058TIP3    H275590   3.114   6.188   1.755 -0.6045 -0.0295 -1.1019
18059TIP3   OH275591   1.034   6.229  15.685  0.2205 -0.5881  0.3150
18059TIP3    H175592   1.124   6.253  15.665 -0.4591  0.7717 -1.3990
18059TIP3    H275593   1.012   6.280  15.763 -0.1632  2.0374 -1.3907
18060TIP3   OH275594   0.869   4.474   3.615  0.1667  0.0638  0.1544
18060TIP3    H175595   0.912   4.393   3.643  0.0602 -0.1359 -0.2528
18060TIP3    H275596   0.790   4.478   3.670 -0.6413 -0.9264 -0.8841
18061TIP3   OH275597   3.102   1.035  14.671 -0.0397 -0.7647 -0.2544
18061TIP3    H175598   3.085   0.941  14.678 -1.9141 -0.3788  1.0348
18061TIP3    H275599   3.192   1.044  14.704  0.0272 -2.0613  0.0024
18062TIP3   OH275600   3.947   3.341  13.144 -0.2860  0.0144 -0.1858
18062TIP3    H175601   3.944   3.305  13.232  2.7696  0.1137  0.0867
18062TIP3    H275602   3.859   3.328  13.108 -1.9292  0.8959  3.1710
18063TIP3   OH275603   3.582   5.548  13.449 -0.5012  0.5225  0.3056
18063TIP3    H175604   3.540   5.509  13.372 -0.1004 -1.8147  1.1763
18063TIP3    H275605   3.512   5.597  13.493 -1.3312 -0.0747 -0.3185
18064TIP3   OH275606   2.033   2.060  17.157 -0.3212 -0.2803 -0.4153
18064TIP3    H175607   2.006   2.003  17.086 -0.0155  0.9601 -1.5594
18064TIP3    H275608   1.965   2.127  17.162  0.1442  0.1876 -0.1914
18065TIP3   OH275609   1.010   6.431   3.805 -0.4297 -0.0324 -0.0046
18065TIP3    H175610   1.090   6.425   3.857 -1.6171 -0.0297  1.9450
18065TIP3    H275611   0.997   6.525   3.792 -0.1520 -0.0298 -0.2664
18066TIP3   OH275612   2.893   0.541  15.887  0.5549 -0.5452  0.2453
18066TIP3    H175613   2.947   0.565  15.811  1.1884 -1.0131  0.5442
18066TIP3    H275614   2.880   0.624  15.934 -1.2136  0.0806 -1.2120
18067TIP3   OH275615   4.044   4.484   5.216 -0.4352 -0.2069 -0.1187
18067TIP3    H175616   4.062   4.528   5.299 -0.6933  0.7655 -0.5655
18067TIP3    H275617   4.130   4.472   5.176 -0.3618 -0.1457  0.0209
18068TIP3   OH275618   0.688   3.431   1.291 -0.3712 -0.2545 -0.0306
18068TIP3    H175619   0.640   3.400   1.367 -1.8203  0.9366 -0.4074
18068TIP3    H275620   0.738   3.355   1.261 -1.1390 -1.2197  1.0631
18069TIP3   OH275621   6.012   4.978  13.710  0.2389 -0.1020  0.0601
18069TIP3    H175622   6.020   5.037  13.635 -0.3546 -1.7502 -1.3680
18069TIP3    H275623   5.933   4.928  13.692 -1.0290  0.7286  2.7679
18070TIP3   OH275624   4.103   0.247  13.455 -0.3112  0.2762  0.0187
18070TIP3    H175625   4.190   0.241  13.416  0.6803 -0.2995  2.1672
18070TIP3    H275626   4.046   0.201  13.394  1.1503 -0.6349 -0.7081
18071TIP3   OH275627   6.043   3.619  10.956  0.1285  0.1726  0.2927
18071TIP3    H175628   6.122   3.637  11.008  0.0807  1.3166 -0.0048
18071TIP3    H275629   6.040   3.524  10.949 -0.0608 -0.0829  2.7048
18072TIP3   OH275630   3.461   3.849  12.952 -0.6896 -0.2573  0.5810
18072TIP3    H175631   3.424   3.842  12.864  0.5861  2.0527 -0.2073
18072TIP3    H275632   3.406   3.913  12.997  1.7883  2.7955 -0.4284
18073TIP3   OH275633   1.808   3.209   4.946  0.1354 -0.3897 -0.2327
18073TIP3    H175634   1.805   3.246   4.858 -2.1190 -0.0492 -0.0885
18073TIP3    H275635   1.796   3.115   4.934 -1.7505 -0.1923 -0.2906
18074TIP3   OH275636   6.049   1.737  16.443  0.2075 -0.1657 -0.1982
18074TIP3    H175637   6.094   1.678  16.382 -0.6707 -0.1916 -0.8287
18074TIP3    H275638   5.986   1.784  16.389  0.2104  0.6405  0.4895
18075TIP3   OH275639   5.274   1.167  13.135 -0.2651 -0.1471  0.2771
18075TIP3    H175640   5.233   1.169  13.222  0.4231  0.7194  0.5947
18075TIP3    H275641   5.360   1.208  13.148 -0.1601  0.0061 -0.8190
18076TIP3   OH275642   0.450   0.478  13.041  0.4769 -0.5501  0.0021
18076TIP3    H175643   0.449   0.573  13.039 -0.7251 -0.5546 -1.8644
18076TIP3    H275644   0.427   0.455  13.131 -1.2690  0.9234 -0.0213
18077TIP3   OH275645   1.170   5.776   3.349  0.7717  0.4059  0.5819
18077TIP3    H175646   1.115   5.699   3.335  1.0372  0.2040  0.6307
18077TIP3    H275647   1.250   5.757   3.301  0.6088  0.9127  0.1050
18078TIP3   OH275648   3.133   1.038  11.726  0.5110 -0.3132 -0.3920
18078TIP3    H175649   3.100   0.949  11.742  0.4980 -0.7535 -2.5585
18078TIP3    H275650   3.088   1.066  11.646 -0.0301  1.9640  0.6258
18079TIP3   OH275651   2.880   5.333  11.538  1.0200  0.1953 -0.0571
18079TIP3    H175652   2.811   5.320  11.604 -0.5905 -0.3511 -1.7793
18079TIP3    H275653   2.929   5.250  11.538 -1.4786 -1.4283 -2.2535
18080TIP3   OH275654   5.846   2.730   5.861  0.5144 -0.0245  0.7308
18080TIP3    H175655   5.785   2.665   5.896  0.6750 -0.6105 -0.0713
18080TIP3    H275656   5.911   2.742   5.931 -0.3871  0.4650  1.5183
18081TIP3   OH275657   2.415   5.562   5.075  0.3755 -0.2402  0.0297
18081TIP3    H175658   2.375   5.578   5.161 -0.7392 -0.9127 -0.3484
18081TIP3    H275659   2.437   5.469   5.076 -0.0894 -0.3606 -0.5871
18082TIP3   OH275660   1.071   1.363   2.282 -0.0088  0.2672 -0.3561
18082TIP3    H175661   1.141   1.318   2.329  0.2708 -0.6056 -1.5610
18082TIP3    H275662   1.037   1.426   2.345  2.9249  1.8954 -0.2550
18083TIP3   OH275663   6.163   3.861   1.403 -0.6549 -0.1488 -0.0695
18083TIP3    H175664   6.165   3.772   1.368  1.9130  0.3689 -1.4543
18083TIP3    H275665   6.253   3.879   1.430 -1.5465  1.3013  2.2587
18084TIP3   OH275666   6.159   2.674   0.406 -0.2404  0.0303  0.2427
18084TIP3    H175667   6.145   2.609   0.337  1.3834  0.7767 -0.8828
18084TIP3    H275668   6.233   2.640   0.456  1.2101  1.3409 -0.8982
18085TIP3   OH275669   4.631   6.587   1.913 -0.3497 -0.2613 -0.0553
18085TIP3    H175670   4.550   6.629   1.943  0.3858 -1.0934  3.5363
18085TIP3    H275671   4.700   6.649   1.934  0.1843 -0.7327 -0.3984
18086TIP3   OH275672   5.393   3.122  11.989  0.0056  0.2982 -0.0863
18086TIP3    H175673   5.476   3.150  11.951 -0.1775  0.0545 -0.6805
18086TIP3    H275674   5.342   3.090  11.914 -0.1122 -0.8101  0.4591
18087TIP3   OH275675   3.418   4.930   6.782  0.6106  0.0172  0.2353
18087TIP3    H175676   3.436   4.846   6.823  1.5234  0.9917  1.9222
18087TIP3    H275677   3.324   4.945   6.796  0.7786  0.0258  1.3735
18088TIP3   OH275678   2.471   0.421   0.526 -0.0818  0.4220 -0.4821
18088TIP3    H175679   2.407   0.430   0.455 -1.0614 -1.2094  0.1374
18088TIP3    H275680   2.545   0.476   0.499 -0.4520 -0.0743 -2.7295
18089TIP3   OH275681   3.275   1.602   4.042  0.4826 -0.7497 -0.6364
18089TIP3    H175682   3.258   1.582   3.950  1.4953 -2.8587 -0.4279
18089TIP3    H275683   3.327   1.683   4.039 -0.2578 -0.2857 -1.8325
18090TIP3   OH275684   3.337   0.160   5.860  0.0339  0.5343  0.4808
18090TIP3    H175685   3.357   0.129   5.948  0.0515 -0.1781  0.2258
18090TIP3    H275686   3.242   0.158   5.855  0.0475 -2.5599 -0.5970
18091TIP3   OH275687   1.520   5.040   6.472 -0.1694  0.5220 -0.3510
18091TIP3    H175688   1.580   5.112   6.490 -0.7829  0.8655  0.3723
18091TIP3    H275689   1.564   4.963   6.510 -0.1120  0.7449  0.0443
18092TIP3   OH275690   5.977   3.349  13.008  0.0114  0.0143  0.3299
18092TIP3    H175691   5.980   3.420  13.071  1.6740 -0.0455  0.3419
18092TIP3    H275692   5.959   3.271  13.061 -1.2257  0.3060  0.3823
18093TIP3   OH275693   1.651   2.131  12.339 -0.1710 -0.6036 -0.2325
18093TIP3    H175694   1.739   2.094  12.346  0.2392  0.6231  2.3953
18093TIP3    H275695   1.662   2.209  12.284  0.4098 -0.4142  0.1422
18094TIP3   OH275696   6.655   1.329   5.689 -0.1702  0.2612  0.3326
18094TIP3    H175697   6.631   1.237   5.702 -0.9947  0.2604 -1.0253
18094TIP3    H275698   6.665   1.363   5.778  0.1658 -1.1258  0.8666
18095TIP3   OH275699   2.004   2.171  15.274  0.4757  0.0039  0.0315
18095TIP3    H175700   1.970   2.126  15.352 -0.0404  0.2346 -0.0585
18095TIP3    H275701   2.035   2.100  15.218  2.0116 -0.1069  0.9737
18096TIP3   OH275702   3.462   6.033   1.027  0.0430 -0.0849  0.8623
18096TIP3    H175703   3.556   6.016   1.021 -0.3195 -2.0171 -0.3109
18096TIP3    H275704   3.422   5.971   0.966 -1.9989  0.8118  1.1803
18097TIP3   OH275705   2.796   0.064  12.497  0.1267  0.8504  0.0516
18097TIP3    H175706   2.876   0.094  12.539  0.8703  0.6551 -1.1859
18097TIP3    H275707   2.728   0.121  12.532  1.0497  2.0633 -0.0850
18098TIP3   OH275708   5.685   6.213  16.499 -0.1551  0.2860 -0.3625
18098TIP3    H175709   5.627   6.288  16.490 -0.9816 -0.1819  0.8705
18098TIP3    H275710   5.718   6.197  16.410 -2.2176  0.3283 -1.1822
18099TIP3   OH275711   1.505   4.529   2.917 -0.4009 -0.1734 -0.1016
18099TIP3    H175712   1.538   4.508   3.005  0.9573  3.2892  0.3765
18099TIP3    H275713   1.417   4.563   2.932  0.1234  1.1600  0.0757
18100TIP3   OH275714   2.332   2.899   4.706 -0.2098 -0.3424  0.5588
18100TIP3    H175715   2.412   2.875   4.752  0.2891  0.8469  0.3373
18100TIP3    H275716   2.323   2.831   4.638  0.5706 -0.5285  0.6290
18101TIP3   OH275717   3.124   2.387   2.398  0.7496 -0.0329  0.2211
18101TIP3    H175718   3.108   2.335   2.320  0.3595  0.3975  0.0079
18101TIP3    H275719   3.192   2.339   2.446 -0.0455 -1.0544  0.3513
18102TIP3   OH275720   5.793   1.749   4.904 -0.4866  0.0175  0.2291
18102TIP3    H175721   5.770   1.664   4.942 -0.4497  0.6945  1.8180
18102TIP3    H275722   5.881   1.737   4.870 -1.0257 -0.9899 -0.9303
18103TIP3   OH275723   1.133   2.068  11.480 -0.0196 -0.1131  0.1498
18103TIP3    H175724   1.090   2.143  11.438 -0.7463  0.3938  1.7242
18103TIP3    H275725   1.079   1.993  11.456  1.2335 -0.3626 -2.2235
18104TIP3   OH275726   3.464   6.066   4.074  0.1978  0.7901 -0.0083
18104TIP3    H175727   3.400   6.136   4.087  0.2969  1.2159 -1.5600
18104TIP3    H275728   3.541   6.093   4.123 -0.3765  0.8843  0.8525
18105TIP3   OH275729   6.494   5.409   0.280  0.3277  0.6479  0.5558
18105TIP3    H175730   6.463   5.461   0.354 -0.6361  1.1917 -0.2034
18105TIP3    H275731   6.514   5.323   0.317  1.2861  1.3492  1.7069
18106TIP3   OH275732   1.721   0.043  13.779 -0.1011 -0.2590 -0.2922
18106TIP3    H175733   1.779  -0.007  13.835  0.5248  1.1655  0.3779
18106TIP3    H275734   1.766   0.046  13.694 -0.2735 -1.0298 -0.4192
18107TIP3   OH275735   5.474   3.467   0.728 -0.3839  0.0340  0.4665
18107TIP3    H175736   5.505   3.460   0.818 -0.9104  1.9143  0.8371
18107TIP3    H275737   5.536   3.527   0.686 -1.7077  1.3884  0.3774
18108TIP3   OH275738   3.560   3.120  13.292 -0.3040  0.1805 -0.0989
18108TIP3    H175739   3.501   3.180  13.246  0.0487  2.3025  2.0163
18108TIP3    H275740   3.502   3.056  13.333 -0.6987 -0.9340 -2.2632
18109TIP3   OH275741   4.612   4.650  16.163 -0.0822  0.2441 -0.0242
18109TIP3    H175742   4.663   4.594  16.105 -0.5896  0.3105 -0.5398
18109TIP3    H275743   4.571   4.590  16.225 -0.1191  0.1022 -0.1845
18110TIP3   OH275744   3.441   6.296  13.666  0.3242  0.3137  0.1792
18110TIP3    H175745   3.433   6.291  13.571 -1.9938 -0.1813  0.3364
18110TIP3    H275746   3.472   6.385  13.683 -0.0759  0.6937 -1.0058
18111TIP3   OH275747   2.192   1.938  15.571  0.7514  0.0448  0.3796
18111TIP3    H175748   2.217   1.848  15.554 -1.3626 -0.3036 -1.2887
18111TIP3    H275749   2.275   1.985  15.583  2.0305 -1.5565 -1.6293
18112TIP3   OH275750   2.871   2.703   5.908 -0.1098 -0.0539 -0.1371
18112TIP3    H175751   2.807   2.768   5.939 -0.4400  0.1183 -1.1306
18112TIP3    H275752   2.828   2.663   5.832  0.0361 -1.5403  0.5395
18113TIP3   OH275753   5.277   4.411  13.509 -0.1075  0.2565 -0.1436
18113TIP3    H175754   5.238   4.326  13.528  1.4647 -0.2892  0.8434
18113TIP3    H275755   5.363   4.391  13.472  1.4177  1.3111  2.5008
18114TIP3   OH275756   1.084   3.345  16.686  0.1615  0.3926  0.6549
18114TIP3    H175757   1.067   3.306  16.771 -1.8205  0.4451  0.3223
18114TIP3    H275758   1.077   3.439  16.701  0.0685  0.4116  0.4960
18115TIP3   OH275759   0.416   0.905  15.334  0.2670  0.1741  0.3910
18115TIP3    H175760   0.337   0.855  15.353  0.3844  0.1911  0.9368
18115TIP3    H275761   0.412   0.980  15.394  0.9150 -0.0608  0.7308
18116TIP3   OH275762   3.401   0.076  16.153  0.4732 -0.0707 -0.4159
18116TIP3    H175763   3.339   0.011  16.120  0.2412 -0.6222  1.0387
18116TIP3    H275764   3.365   0.160  16.124  0.4553 -0.5374 -1.8041
18117TIP3   OH275765   4.355   5.074   3.011  0.1772 -0.3972 -0.3060
18117TIP3    H175766   4.307   5.040   3.087  0.3203 -2.9767 -1.2650
18117TIP3    H275767   4.288   5.089   2.945  0.4288 -2.1588 -1.0062
18118TIP3   OH275768   4.685   3.512   5.795  0.8472  0.2723 -0.1354
18118TIP3    H175769   4.729   3.429   5.775  0.9755  0.1398  0.6579
18118TIP3    H275770   4.664   3.506   5.888 -0.4641  0.5249 -0.4034
18119TIP3   OH275771   6.330   5.355  16.282 -0.4167 -0.6997  0.4016
18119TIP3    H175772   6.405   5.333  16.227 -0.6358 -0.1461 -0.1295
18119TIP3    H275773   6.342   5.448  16.303 -1.5656 -0.2807 -0.6804
18120TIP3   OH275774   1.703   0.065   5.473 -0.0245 -0.0765 -0.2495
18120TIP3    H175775   1.783   0.116   5.485  0.1622 -0.1346 -1.1963
18120TIP3    H275776   1.646   0.122   5.421 -0.3190 -0.3197 -0.1931
18121TIP3   OH275777   6.754   4.225  14.932 -0.2738  0.2226  0.7597
18121TIP3    H175778   6.724   4.216  15.023  4.0713 -0.1723  2.3994
18121TIP3    H275779   6.740   4.138  14.894 -0.2252 -0.2512  1.7738
18122TIP3   OH275780   5.381   4.822   2.334  0.2029 -0.4483  0.1161
18122TIP3    H175781   5.404   4.848   2.245  1.0951 -0.6529  0.2751
18122TIP3    H275782   5.461   4.838   2.385 -0.4552  0.1515  0.9873
18123TIP3   OH275783   5.595   1.177  17.204  0.2914 -0.0069 -0.3717
18123TIP3    H175784   5.651   1.244  17.244 -1.3851  0.0021  2.1276
18123TIP3    H275785   5.550   1.222  17.133  1.2381  0.7608 -0.5010
18124TIP3   OH275786   2.497   5.377   4.262  0.0107 -0.2048 -0.0733
18124TIP3    H175787   2.470   5.443   4.326 -1.2863 -0.7426 -0.0368
18124TIP3    H275788   2.456   5.404   4.180 -0.0824 -0.6590 -0.1829
18125TIP3   OH275789   5.453   5.692  12.366 -0.2722 -0.2188 -0.2157
18125TIP3    H175790   5.539   5.720  12.398 -0.4034 -1.5889  1.4737
18125TIP3    H275791   5.433   5.753  12.294  1.7037  0.6640 -0.0771
18126TIP3   OH275792   2.358   5.368   4.665  0.3000 -0.2489 -0.0774
18126TIP3    H175793   2.439   5.356   4.714  0.8321 -1.1374 -1.1346
18126TIP3    H275794   2.370   5.315   4.586 -1.3219 -0.4270 -0.2351
18127TIP3   OH275795   5.804   2.043   1.344 -0.5088 -0.5007  0.2110
18127TIP3    H175796   5.849   1.959   1.346 -0.1622 -0.3213  0.0030
18127TIP3    H275797   5.712   2.020   1.325 -0.7681 -0.9642  1.8332
18128TIP3   OH275798   5.151   5.039   3.540 -0.3224 -0.0651 -0.3474
18128TIP3    H175799   5.221   4.994   3.491  0.3873 -0.7285  1.1977
18128TIP3    H275800   5.195   5.114   3.581 -0.1832 -1.1188  1.5579
18129TIP3   OH275801   5.426   2.138  15.113 -0.0882  0.1779  0.3024
18129TIP3    H175802   5.452   2.098  15.196  0.2557 -1.1536 -0.4142
18129TIP3    H275803   5.334   2.113  15.102  0.5165 -1.7401 -0.8377
18130TIP3   OH275804   5.005   5.886   5.325 -0.4184  0.6069 -0.0422
18130TIP3    H175805   5.009   5.873   5.420 -0.7030  0.8210  0.0003
18130TIP3    H275806   5.039   5.975   5.312  0.6850  0.1639 -0.2480
18131TIP3   OH275807   2.412   6.207   2.668 -0.5263 -0.8999  0.0008
18131TIP3    H175808   2.340   6.250   2.713  0.5701  0.3558  0.6014
18131TIP3    H275809   2.387   6.210   2.575 -0.5632  0.8951  0.0422
18132TIP3   OH275810   4.580   0.982   4.915 -0.3265 -0.0816 -0.7978
18132TIP3    H175811   4.671   1.011   4.923 -0.4396  0.8338 -2.3538
18132TIP3    H275812   4.579   0.895   4.955  1.1162  0.0990 -0.3052
18133TIP3   OH275813   5.735   3.344  14.052  0.4698  0.1371 -0.0297
18133TIP3    H175814   5.640   3.338  14.064  0.5822 -1.1081  0.4540
18133TIP3    H275815   5.748   3.334  13.957  0.1695 -0.8404  0.0200
18134TIP3   OH275816   6.428   5.427  14.934  0.1075  0.8364 -0.4859
18134TIP3    H175817   6.523   5.427  14.925  0.2685 -0.1310  0.8253
18134TIP3    H275818   6.403   5.335  14.925 -0.3965  0.7202  1.5691
18135TIP3   OH275819   2.930   4.762  11.063 -0.3980  0.2754 -0.5145
18135TIP3    H175820   2.986   4.777  10.986 -0.3101  0.1888 -0.4680
18135TIP3    H275821   2.991   4.760  11.137 -0.3777 -0.4460 -0.5350
18136TIP3   OH275822   1.055   2.320   0.721 -0.0316  0.3101 -0.5110
18136TIP3    H175823   0.971   2.289   0.687 -0.2422  1.6169 -1.2662
18136TIP3    H275824   1.093   2.244   0.765 -2.4777  0.1744  1.5851
18137TIP3   OH275825   0.967   4.938   4.176 -0.1063 -0.0153  0.1772
18137TIP3    H175826   0.923   4.994   4.111  0.1173 -0.3582 -0.2759
18137TIP3    H275827   0.969   4.852   4.135 -0.7002 -0.4317  0.9905
18138TIP3   OH275828   1.896   5.140   0.144 -0.3703 -0.3019  0.5458
18138TIP3    H175829   1.966   5.174   0.200 -0.6504 -1.3511  1.5592
18138TIP3    H275830   1.818   5.189   0.170  0.1866  1.8938 -1.5614
18139TIP3   OH275831   5.960   4.320  13.498 -0.1012  0.3517 -0.4646
18139TIP3    H175832   5.960   4.272  13.581  0.8326  1.4694  0.2171
18139TIP3    H275833   6.000   4.259  13.435  0.6198  0.0457  0.2671
18140TIP3   OH275834   0.912   5.144   0.733 -0.8528 -0.0340 -0.0967
18140TIP3    H175835   0.944   5.233   0.748  1.5070 -0.8196 -0.0650
18140TIP3    H275836   0.908   5.135   0.638  0.6090 -0.4164 -0.1418
18141TIP3   OH275837   4.501   0.159  16.910 -0.1312  0.2604  0.2902
18141TIP3    H175838   4.486   0.189  17.000 -1.6146 -0.3654  0.2814
18141TIP3    H275839   4.582   0.203  16.883  0.2471  0.5915  1.8630
18142TIP3   OH275840   2.488   0.030  11.285  0.4965  0.0456  0.1408
18142TIP3    H175841   2.439  -0.053  11.285  1.0975 -0.3364  1.2215
18142TIP3    H275842   2.542   0.025  11.364 -0.4898  2.0952  1.0076
18143TIP3   OH275843   5.591   0.468  14.725  0.6893  0.1836 -0.0353
18143TIP3    H175844   5.573   0.396  14.665  1.1445  0.3565 -0.3858
18143TIP3    H275845   5.633   0.427  14.801 -0.1463 -0.0719  0.3023
18144TIP3   OH275846   0.088   5.094   0.433  0.5478  0.3131  0.4398
18144TIP3    H175847   0.010   5.045   0.456  0.8154 -0.4143 -0.1658
18144TIP3    H275848   0.157   5.056   0.487  1.0744 -1.0639 -1.1320
18145TIP3   OH275849   3.753   2.321   1.844  0.0128 -0.1326 -0.5611
18145TIP3    H175850   3.670   2.280   1.821  0.3570 -0.3612 -1.4319
18145TIP3    H275851   3.813   2.247   1.859  0.4011  0.0362 -1.2492
18146TIP3   OH275852   2.023   4.182   5.222  0.0015  0.5604 -0.2346
18146TIP3    H175853   2.026   4.096   5.181 -0.1523 -0.7132  2.2473
18146TIP3    H275854   2.101   4.227   5.191  2.4340 -2.0782  1.5783
18147TIP3   OH275855   0.765   6.725  17.267  0.0423  0.1189 -0.5608
18147TIP3    H175856   0.711   6.718  17.189 -1.6216  1.5180  0.3996
18147TIP3    H275857   0.803   6.812  17.263 -0.3333  0.3420  0.3350
18148TIP3   OH275858   1.729   4.827  15.684 -0.2918 -0.3155 -0.5394
18148TIP3    H175859   1.636   4.803  15.689 -0.6919  1.2420  0.0729
18148TIP3    H275860   1.738   4.902  15.742  1.4145 -0.5543 -0.4399
18149TIP3   OH275861   2.318   4.816   2.304  0.2885  0.2370 -0.2619
18149TIP3    H175862   2.321   4.844   2.395  3.1022  1.9542 -0.7464
18149TIP3    H275863   2.241   4.760   2.298  0.5373 -0.7367  3.3685
18150TIP3   OH275864   5.986   2.754   4.863  0.5039  0.0959  0.1468
18150TIP3    H175865   5.902   2.791   4.888  1.3488  2.0335  0.2408
18150TIP3    H275866   5.983   2.664   4.896 -1.5991  0.0382 -0.0784
18151TIP3   OH275867   3.072   2.046   0.234 -0.5030  0.7369 -0.3119
18151TIP3    H175868   3.024   1.984   0.288 -0.5095  1.5564  0.6559
18151TIP3    H275869   3.038   2.132   0.261 -0.4736  1.1641 -1.5890
18152TIP3   OH275870   2.948   4.714  16.354  0.1372  0.2158  0.0857
18152TIP3    H175871   2.987   4.629  16.336 -0.7335 -0.2478  0.3435
18152TIP3    H275872   3.023   4.773  16.366  0.7403 -0.4300 -0.4624
18153TIP3   OH275873   1.036   2.618  13.938  0.3477  0.1069  0.0150
18153TIP3    H175874   1.072   2.611  13.850  0.6502  1.3843  0.0205
18153TIP3    H275875   0.988   2.536  13.951  0.7157 -0.3076 -1.1402
18154TIP3   OH275876   1.933   0.993  17.122 -0.0388  0.8842 -0.4227
18154TIP3    H175877   1.860   1.042  17.159  0.1256  1.0359 -0.3023
18154TIP3    H275878   1.898   0.957  17.040 -0.5713  0.0833  0.1438
18155TIP3   OH275879   1.317   5.520   0.483 -0.3837  0.0909 -0.4950
18155TIP3    H175880   1.278   5.593   0.433 -1.3061  0.0910  0.1953
18155TIP3    H275881   1.327   5.554   0.572 -1.6521 -0.8839  0.0529
18156TIP3   OH275882   1.992   0.993  13.780 -0.2583 -0.3764  0.1262
18156TIP3    H175883   2.049   1.005  13.704 -0.7649 -1.0216 -0.3667
18156TIP3    H275884   2.037   0.927  13.833 -0.6014 -0.9846 -0.3284
18157TIP3   OH275885   6.727   0.245   4.793 -0.5978 -0.0301 -0.1203
18157TIP3    H175886   6.760   0.205   4.713 -1.3976  1.3233 -1.1770
18157TIP3    H275887   6.768   0.332   4.795 -1.7724  0.5402  0.1026
18158TIP3   OH275888   3.693   3.103   1.130 -0.1013  0.4119  0.0186
18158TIP3    H175889   3.715   3.013   1.105 -1.2577 -0.2660  1.3320
18158TIP3    H275890   3.768   3.133   1.180 -0.5996 -0.6241  1.4441
18159TIP3   OH275891   2.387   3.689  14.949  0.1177 -0.3526 -0.0914
18159TIP3    H175892   2.443   3.762  14.920 -1.3038  1.6971  1.9567
18159TIP3    H275893   2.308   3.697  14.895  0.0281 -0.4657  0.0225
18160TIP3   OH275894   5.932   2.977   3.922 -0.1188  0.0157  0.3428
18160TIP3    H175895   5.993   3.012   3.987 -0.1791 -1.3591  1.1768
18160TIP3    H275896   5.964   2.888   3.904 -2.0748 -0.9067  1.1250
18161TIP3   OH275897   4.554   5.899   0.789 -0.1053  0.1390 -0.1936
18161TIP3    H175898   4.602   5.981   0.792 -0.3263  0.2501  0.4200
18161TIP3    H275899   4.463   5.925   0.777 -0.1017 -0.0469 -0.6723
18162TIP3   OH275900   5.713   0.348   0.721 -0.5885  0.1291  0.0868
18162TIP3    H175901   5.702   0.331   0.627  2.6595 -1.0780 -0.2141
18162TIP3    H275902   5.755   0.434   0.724  0.2104 -0.2540  0.3119
18163TIP3   OH275903   5.210   1.852  15.423  0.6238 -0.4151  0.0026
18163TIP3    H175904   5.262   1.921  15.465 -0.2308 -0.7233  1.6297
18163TIP3    H275905   5.128   1.851  15.472  0.4191 -2.2333 -0.3309
18164TIP3   OH275906   2.086   4.584   1.024  0.0259  0.6939 -0.0589
18164TIP3    H175907   2.116   4.576   0.934  0.8631  2.3712  0.0315
18164TIP3    H275908   2.160   4.624   1.071 -0.7645  0.8101  1.1404
18165TIP3   OH275909   4.165   3.031  16.179  0.2310  0.3532 -0.4000
18165TIP3    H175910   4.196   2.953  16.133  1.2748  0.8089 -0.4917
18165TIP3    H275911   4.070   3.019  16.185  0.4870 -1.5258  0.6824
18166TIP3   OH275912   0.603   0.363  13.506  0.0327 -0.2211 -0.0546
18166TIP3    H175913   0.689   0.340  13.542  0.7038  0.2132 -1.3029
18166TIP3    H275914   0.623   0.408  13.424 -1.3727  0.8143  0.1331
18167TIP3   OH275915   6.259   6.512   0.888  0.0721  0.2959 -0.4287
18167TIP3    H175916   6.176   6.541   0.850  1.3779  1.3035 -2.6904
18167TIP3    H275917   6.302   6.592   0.915  0.9098 -0.0861 -0.5942
18168TIP3   OH275918   3.498   2.785   3.002 -0.0196 -0.5108 -0.2350
18168TIP3    H175919   3.539   2.701   3.023 -0.6180 -0.7579 -0.0238
18168TIP3    H275920   3.571   2.846   2.992  0.3805 -0.8574  0.4981
18169TIP3   OH275921   2.133   0.522   4.928 -0.1052  0.2160 -0.0062
18169TIP3    H175922   2.189   0.569   4.866  0.8445  0.6861  1.1485
18169TIP3    H275923   2.174   0.435   4.935  0.3750  0.4877  0.6747
18170TIP3   OH275924   4.717   6.551   5.915  0.0128  0.3367 -0.9881
18170TIP3    H175925   4.790   6.590   5.867 -0.1815 -0.0121 -1.5765
18170TIP3    H275926   4.740   6.561   6.007  0.2446  1.3129 -1.1419
18171TIP3   OH275927   3.474   4.687   2.708 -0.3889 -0.1081  0.1848
18171TIP3    H175928   3.467   4.621   2.638  0.3594 -0.3864  0.3550
18171TIP3    H275929   3.424   4.651   2.780 -2.7576  1.0350 -0.7934
18172TIP3   OH275930   0.873   6.471   3.507  0.5382 -0.3312 -0.2015
18172TIP3    H175931   0.842   6.433   3.590 -1.0165  1.0037 -0.1097
18172TIP3    H275932   0.968   6.464   3.511  0.4099 -1.7700  0.9677
18173TIP3   OH275933   4.202   2.990  14.457  0.5375  0.6968  0.1376
18173TIP3    H175934   4.236   2.912  14.500 -0.5677  1.1311  1.9418
18173TIP3    H275935   4.270   3.057  14.470  1.4002  0.1229 -1.2451
18174TIP3   OH275936   0.574   2.980  10.526  0.3093 -0.1451 -0.6209
18174TIP3    H175937   0.524   2.997  10.606  0.0106 -0.4277 -0.7444
18174TIP3    H275938   0.632   3.056  10.517  2.1196 -1.1871  1.2196
18175TIP3   OH275939   4.502   1.975  14.232 -0.6483 -0.7852  0.1316
18175TIP3    H175940   4.438   2.008  14.169 -0.1385 -1.8519 -1.0060
18175TIP3    H275941   4.499   2.037  14.305 -1.1155  0.6335 -1.0342
18176TIP3   OH275942   6.603   4.246   3.796 -0.2799 -0.2972  0.1349
18176TIP3    H175943   6.653   4.327   3.783  0.5670 -0.8114  0.1513
18176TIP3    H275944   6.558   4.260   3.880  0.3989 -0.1122  0.4752
18177TIP3   OH275945   6.205   0.775   2.494  0.1055  0.4887 -1.0256
18177TIP3    H175946   6.163   0.694   2.522 -0.6417  0.6465 -1.6539
18177TIP3    H275947   6.147   0.845   2.525  1.3462  0.8740  0.5795
18178TIP3   OH275948   3.040   2.178  13.975  0.2518  0.0557 -0.0019
18178TIP3    H175949   2.988   2.236  14.031 -1.6222  0.1114 -1.7050
18178TIP3    H275950   3.018   2.204  13.886  2.9626 -0.1996 -0.8320
18179TIP3   OH275951   2.631   0.630  14.001 -0.1298  0.0466  0.1216
18179TIP3    H175952   2.614   0.631  13.907 -0.5017 -1.4308  0.1493
18179TIP3    H275953   2.723   0.657  14.009 -0.0046 -0.1182 -0.6837
18180TIP3   OH275954   3.749   4.264  14.371  0.1069  0.2999 -0.4916
18180TIP3    H175955   3.761   4.179  14.412  1.0477 -0.9680 -3.1885
18180TIP3    H275956   3.680   4.250  14.306  1.0149  1.2683 -1.7156
18181TIP3   OH275957   3.436   3.455   2.034 -0.2051 -0.2219  0.6391
18181TIP3    H175958   3.384   3.513   1.979  0.7530 -0.4881 -0.5990
18181TIP3    H275959   3.526   3.466   2.002  0.1320 -1.6484  1.0189
18182TIP3   OH275960   4.742   5.281  12.982  0.7192  0.4422 -0.2158
18182TIP3    H175961   4.715   5.363  13.023  1.0184  0.4130  0.0419
18182TIP3    H275962   4.796   5.308  12.907 -0.5821  0.5216 -1.1590
18183TIP3   OH275963   5.652   5.283   0.063  0.0258  0.0156  0.2970
18183TIP3    H175964   5.681   5.226   0.135 -0.4341  1.8172  1.9876
18183TIP3    H275965   5.589   5.230   0.015 -0.0704 -1.0559  1.5404
18184TIP3   OH275966   1.705   5.931  11.166  0.2901  0.5310  0.0231
18184TIP3    H175967   1.618   5.901  11.141 -0.2015  0.6414  1.4992
18184TIP3    H275968   1.765   5.871  11.120 -0.5863 -0.1745 -0.2267
18185TIP3   OH275969   0.312   3.241   0.541 -0.1464  0.3482 -0.3601
18185TIP3    H175970   0.335   3.167   0.485 -0.3758  0.3502 -0.4571
18185TIP3    H275971   0.371   3.311   0.513  1.3520 -0.3120  0.9596
18186TIP3   OH275972   2.049   2.876  17.076  0.0274 -0.3367 -0.5531
18186TIP3    H175973   2.128   2.843  17.119  0.2644  1.1635  0.2358
18186TIP3    H275974   2.070   2.873  16.983  0.9548 -0.1510 -0.3658
18187TIP3   OH275975   2.843   3.814  15.367  0.1460  0.7457 -0.5733
18187TIP3    H175976   2.899   3.740  15.344 -0.0824  1.2897 -3.1286
18187TIP3    H275977   2.757   3.791  15.331 -0.2167  1.7572 -0.3755
18188TIP3   OH275978   4.868   6.305  17.150 -0.2315  0.3481  0.6371
18188TIP3    H175979   4.864   6.216  17.185  0.8895 -0.8857 -2.1113
18188TIP3    H275980   4.781   6.320  17.113 -0.2045  0.1284  0.4848
18189TIP3   OH275981   2.185   6.154  14.437 -0.1092 -0.2155  0.3117
18189TIP3    H175982   2.277   6.127  14.430 -0.3086 -2.3085  3.5003
18189TIP3    H275983   2.188   6.234  14.490 -0.1007  0.3271 -0.4920
18190TIP3   OH275984   4.757   0.476   4.523 -0.0804  0.2014  0.3508
18190TIP3    H175985   4.842   0.431   4.530  0.7773  1.8301  0.9338
18190TIP3    H275986   4.778   0.562   4.487 -1.2558  1.1855  1.8603
18191TIP3   OH275987   0.155   6.384  14.694  0.2203  0.4637  0.2444
18191TIP3    H175988   0.195   6.341  14.618  0.3591  0.4348  0.3310
18191TIP3    H275989   0.094   6.447  14.657  1.4921  1.6350  0.0643
18192TIP3   OH275990   1.507   2.867  14.072 -0.2810 -0.2729 -0.0751
18192TIP3    H175991   1.523   2.909  13.987  1.8344 -1.2679 -0.2354
18192TIP3    H275992   1.416   2.838  14.068 -1.1804  2.3861 -0.7545
18193TIP3   OH275993   2.054   5.145   4.715  0.1050 -0.0452  0.2189
18193TIP3    H175994   2.015   5.058   4.729  1.8978 -0.8455  0.5772
18193TIP3    H275995   2.021   5.172   4.629  2.1720 -2.7009 -1.6187
18194TIP3   OH275996   3.187   1.071   5.076 -0.0142  0.1924  0.5153
18194TIP3    H175997   3.249   1.100   5.010  1.2355  0.3598  1.7194
18194TIP3    H275998   3.176   0.977   5.059 -1.0934  0.5534 -0.9976
18195TIP3   OH275999   2.309   2.263   0.873  0.2603 -0.4474 -0.3430
18195TIP3    H176000   2.396   2.229   0.896 -0.2651 -1.3118  0.4755
18195TIP3    H276001   2.269   2.283   0.958  0.1932  1.3801 -0.7734
18196TIP3   OH276002   3.244   2.647  13.607  0.1098 -0.0223  0.4833
18196TIP3    H176003   3.171   2.686  13.559  1.5143  0.3593 -1.4933
18196TIP3    H276004   3.221   2.554  13.614 -0.8582  0.2134  0.4697
18197TIP3   OH276005   4.430   2.820   2.435  0.3862 -0.0448  0.5481
18197TIP3    H176006   4.464   2.837   2.523 -0.2478  1.3005  0.5548
18197TIP3    H276007   4.339   2.793   2.449  0.6784 -1.1826  0.3715
18198TIP3   OH276008   2.464   4.583   1.569 -0.1106 -0.4055  0.0620
18198TIP3    H176009   2.378   4.540   1.568 -0.2344 -0.1593 -1.6103
18198TIP3    H276010   2.461   4.645   1.497  0.9203  0.7594  0.9893
18199TIP3   OH276011   5.167   1.803   5.361  0.1762  0.4022 -0.5850
18199TIP3    H176012   5.175   1.838   5.450 -0.1186  0.7217 -0.6858
18199TIP3    H276013   5.073   1.791   5.348  0.2190  0.3492 -0.8540
18200TIP3   OH276014   5.731   5.000   1.250  0.0026  0.2506  0.0749
18200TIP3    H176015   5.813   5.048   1.259  0.7532 -1.1369  0.9268
18200TIP3    H276016   5.693   4.999   1.337  0.7771 -1.9636  0.4571
18201TIP3   OH276017   0.446   3.250  15.547  0.1581 -0.3707 -0.5184
18201TIP3    H176018   0.386   3.298  15.491  1.1352  2.5491  0.7050
18201TIP3    H276019   0.512   3.215  15.488 -0.9797 -0.8450 -1.5411
18202TIP3   OH276020   6.058   1.278  11.909  0.4357  0.3435  0.3688
18202TIP3    H176021   5.973   1.278  11.864  0.4845  1.8845  0.1935
18202TIP3    H276022   6.112   1.216  11.860 -0.0818  0.6311 -0.5971
18203TIP3   OH276023   2.226   1.964  12.577 -0.8039  0.3504  0.3417
18203TIP3    H176024   2.292   2.033  12.572 -1.8642  1.5274  1.8223
18203TIP3    H276025   2.161   1.988  12.510 -1.4756  1.1552  1.2616
18204TIP3   OH276026   2.222   6.158   1.752  0.3222 -0.5253 -0.2430
18204TIP3    H176027   2.141   6.200   1.779  0.7631  1.4970 -1.7740
18204TIP3    H276028   2.253   6.111   1.829 -1.4575  0.0188  0.8456
18205TIP3   OH276029   1.217   2.433  13.997  0.2129  0.4432  0.0309
18205TIP3    H176030   1.129   2.415  13.964  0.1100  1.4509 -0.2902
18205TIP3    H276031   1.215   2.525  14.022  0.6490  0.0210  1.7427
18206TIP3   OH276032   6.729   1.541   6.208  0.4139  0.2302  0.2231
18206TIP3    H176033   6.754   1.621   6.254  0.8699 -0.1311  0.6224
18206TIP3    H276034   6.650   1.512   6.253  1.4039 -0.6573  1.4749
18207TIP3   OH276035   0.382   0.904   6.175  0.3751 -0.1624  0.3247
18207TIP3    H176036   0.351   0.911   6.085  1.7427 -1.0846 -0.2490
18207TIP3    H276037   0.412   0.813   6.183  1.2250  0.1972  1.3845
18208TIP3   OH276038   0.310   2.665  11.041 -0.1330 -0.7141 -0.0077
18208TIP3    H176039   0.325   2.572  11.022  1.2479 -0.2203 -1.6325
18208TIP3    H276040   0.375   2.710  10.987 -2.6044  1.3384 -1.4553
18209TIP3   OH276041   1.384   4.183   0.943  0.0609 -0.0440  0.1746
18209TIP3    H176042   1.425   4.110   0.898 -0.6621 -0.5388  0.2894
18209TIP3    H276043   1.393   4.257   0.883 -1.3832 -0.8170 -1.0873
18210TIP3   OH276044   1.180   2.784  11.089 -0.2305 -0.0758 -0.6638
18210TIP3    H176045   1.103   2.799  11.144  0.1946 -0.9063  0.1803
18210TIP3    H276046   1.147   2.792  10.999 -0.6017  3.0810 -0.3875
18211TIP3   OH276047   0.551   0.588   5.736  0.4742 -0.0068 -0.0349
18211TIP3    H176048   0.609   0.512   5.744  2.0679  1.0038 -1.3113
18211TIP3    H276049   0.530   0.592   5.643 -0.6514  0.3821  0.2290
18212TIP3   OH276050   3.308   2.942   4.173 -0.4209  0.1308 -0.5833
18212TIP3    H176051   3.335   2.854   4.146  0.0983  0.3990 -0.9709
18212TIP3    H276052   3.262   2.977   4.096 -0.9191  0.0819 -0.3132
18213TIP3   OH276053   4.850   5.101   0.769  0.9452 -0.1887 -0.6439
18213TIP3    H176054   4.780   5.046   0.734  0.6692  0.4843 -1.1731
18213TIP3    H276055   4.884   5.052   0.844 -0.2452 -0.4263 -0.2328
18214TIP3   OH276056   5.073   4.027   5.134  0.2614 -0.4535  0.0102
18214TIP3    H176057   5.015   3.978   5.193  0.8790  1.3402  2.2484
18214TIP3    H276058   5.160   4.018   5.173  0.7588  0.5182 -0.8256
18215TIP3   OH276059   5.617   1.786  13.209  0.0994 -0.0615 -0.1754
18215TIP3    H176060   5.540   1.762  13.158 -1.0430 -0.1881  1.5399
18215TIP3    H276061   5.583   1.831  13.286  1.8276  1.1496 -0.0452
18216TIP3   OH276062   5.922   4.096   3.865  0.3326  0.3406 -0.2372
18216TIP3    H176063   6.018   4.097   3.869  0.3445  0.2640 -0.4505
18216TIP3    H276064   5.903   4.065   3.776  0.1091  0.1615 -0.1261
18217TIP3   OH276065   4.861   6.033   2.723 -0.2577  0.4083 -0.2611
18217TIP3    H176066   4.795   6.071   2.665  0.6268  0.2134 -1.4247
18217TIP3    H276067   4.836   5.941   2.729 -0.8456  0.6000  0.3821
18218TIP3   OH276068   2.961   5.585  14.595 -0.4709 -0.8119  0.0557
18218TIP3    H176069   2.903   5.509  14.601 -1.2044 -0.3627 -1.0170
18218TIP3    H276070   2.934   5.642  14.667 -1.9204 -0.2798 -0.8363
18219TIP3   OH276071   3.646   0.315  16.990 -0.1277 -0.5637 -0.5710
18219TIP3    H176072   3.735   0.322  16.955 -0.1189 -2.1633 -0.9383
18219TIP3    H276073   3.651   0.354  17.077  1.5039 -2.6361  0.3465
18220TIP3   OH276074   3.658   5.156   5.547 -0.0940  0.2777  0.2338
18220TIP3    H176075   3.628   5.247   5.545  1.1847  0.7563 -3.1385
18220TIP3    H276076   3.753   5.162   5.543 -0.0178 -1.0899 -2.3968
18221TIP3   OH276077   1.955   0.133  15.866  0.6868 -0.2524 -0.1384
18221TIP3    H176078   1.973   0.052  15.817  0.3082 -0.5771  0.2525
18221TIP3    H276079   1.864   0.125  15.893  1.4983 -1.2463  2.7168
18222TIP3   OH276080   3.798   1.420  14.493 -0.2367 -0.5377  0.0428
18222TIP3    H176081   3.718   1.385  14.454 -0.2488 -1.2101  0.6487
18222TIP3    H276082   3.776   1.436  14.584 -0.3005  1.3323 -0.2598
18223TIP3   OH276083   2.791   2.981   4.364  0.0008  0.3643  0.3136
18223TIP3    H176084   2.703   2.963   4.330  0.2391 -0.3059  0.0434
18223TIP3    H276085   2.827   2.895   4.384  0.9218  0.5626 -0.4098
18224TIP3   OH276086   4.065   4.717   3.099 -0.2121 -0.2987 -0.5723
18224TIP3    H176087   4.004   4.742   3.169  1.0636 -0.5003  0.6686
18224TIP3    H276088   4.027   4.638   3.060  0.2860 -1.7531  1.6749
18225TIP3   OH276089   4.437   3.501   4.417  0.3468  0.2931  0.5537
18225TIP3    H176090   4.396   3.463   4.495 -1.7515  0.2762 -0.4755
18225TIP3    H276091   4.461   3.427   4.362  0.8355  0.3354  0.7050
18226TIP3   OH276092   2.682   4.713   6.200 -0.2111  0.4399 -0.2074
18226TIP3    H176093   2.776   4.727   6.217 -0.1321  0.2335 -0.4694
18226TIP3    H276094   2.642   4.717   6.286 -0.0350  1.0843 -0.1482
18227TIP3   OH276095   0.080   4.277  16.779 -0.4862  0.0124  0.2451
18227TIP3    H176096   0.057   4.335  16.851 -0.7497 -0.4246  0.5189
18227TIP3    H276097   0.117   4.200  16.821 -2.3395 -1.0386  0.0353
18228TIP3   OH276098   4.379   1.477   5.354 -0.3186  0.2926 -0.5457
18228TIP3    H176099   4.329   1.436   5.283 -0.8864  0.5594 -0.3070
18228TIP3    H276100   4.377   1.413   5.425  0.0642  0.1160 -0.6934
18229TIP3   OH276101   6.004   5.968   2.313  0.2324  0.4246  0.2294
18229TIP3    H176102   6.082   5.914   2.325 -0.1595 -0.3884 -0.7287
18229TIP3    H276103   6.037   6.049   2.274  0.8133  0.8659  1.5852
18230TIP3   OH276104   0.160   5.142  12.858 -0.1033  0.3752  0.0438
18230TIP3    H176105   0.200   5.057  12.878  0.2016  0.7300  0.9765
18230TIP3    H276106   0.227   5.188  12.807  0.4544  0.7217  1.0553
18231TIP3   OH276107   0.659   5.127   4.961  0.5287 -0.5447  0.6268
18231TIP3    H176108   0.667   5.152   5.053 -0.0481 -0.2559  0.6038
18231TIP3    H276109   0.589   5.184   4.927  0.8419 -0.5454 -0.0230
18232TIP3   OH276110   3.792   1.626  15.417 -0.0736  0.3552  0.3843
18232TIP3    H176111   3.784   1.542  15.372  1.4093 -0.0419  0.8107
18232TIP3    H276112   3.839   1.681  15.355 -2.0849  1.3144 -0.3981
18233TIP3   OH276113   0.180   4.653  12.826 -0.4902  0.1722  0.0245
18233TIP3    H176114   0.097   4.694  12.804 -0.1237  1.1072  0.3318
18233TIP3    H276115   0.198   4.595  12.751 -2.1755 -1.3011  0.6874
18234TIP3   OH276116   5.839   4.253   4.762  0.2044 -0.2624 -0.5251
18234TIP3    H176117   5.796   4.334   4.791 -1.9767 -1.3641 -0.4904
18234TIP3    H276118   5.915   4.245   4.818 -0.2454  1.1192  0.3337
18235TIP3   OH276119   6.603   1.843   1.865 -0.2879 -0.2212  0.6948
18235TIP3    H176120   6.674   1.801   1.914 -0.3313  1.6180  2.4467
18235TIP3    H276121   6.549   1.886   1.932 -1.3410  0.9467 -0.8296
18236TIP3   OH276122   5.821   5.665  15.297 -0.2401  0.1846 -0.4455
18236TIP3    H176123   5.766   5.601  15.342  0.1657 -2.3950 -3.2140
18236TIP3    H276124   5.907   5.623  15.293  0.6927  1.9950 -0.3279
18237TIP3   OH276125   4.268   3.966   1.276  0.1425 -0.4830 -0.1530
18237TIP3    H176126   4.186   3.972   1.227  0.6618  0.0642 -0.9987
18237TIP3    H276127   4.336   3.967   1.208  0.8220 -3.7487  0.3120
18238TIP3   OH276128   2.685   5.594  11.522  0.1933  0.3824  0.3327
18238TIP3    H176129   2.601   5.635  11.500  0.6476  1.3979  0.4288
18238TIP3    H276130   2.731   5.661  11.573  0.0925 -1.0288  2.3934
18239TIP3   OH276131   3.761   3.965  12.877  0.0915 -0.4102 -0.0861
18239TIP3    H176132   3.849   3.942  12.906  1.0428  1.1873 -1.5257
18239TIP3    H276133   3.713   3.981  12.958  2.1644  2.2237  0.7570
18240TIP3   OH276134   4.759   4.227   4.815  0.5169  0.2318  0.6349
18240TIP3    H176135   4.841   4.185   4.840  0.2771  0.1877  1.3661
18240TIP3    H276136   4.692   4.180   4.863  0.1218  0.6667  0.5193
18241TIP3   OH276137   2.999   5.324   2.734  0.0138  0.0670  0.6048
18241TIP3    H176138   3.075   5.273   2.705 -1.0754 -1.4402  0.2968
18241TIP3    H276139   2.995   5.397   2.672  0.1717 -0.8323 -0.4970
18242TIP3   OH276140   3.053   2.787  12.220 -1.2102  0.5818  0.2473
18242TIP3    H176141   3.098   2.872  12.225 -0.0691 -0.0885  2.0294
18242TIP3    H276142   2.961   2.810  12.210 -0.9290  2.0339  0.7334
18243TIP3   OH276143   4.070   5.497   3.744  0.1019 -0.5441  0.5216
18243TIP3    H176144   3.994   5.440   3.753  0.4224 -0.7924  1.9115
18243TIP3    H276145   4.140   5.453   3.792  0.6228  0.5426  0.8081
18244TIP3   OH276146   6.499   4.092   5.994 -0.1882  0.3242  0.3083
18244TIP3    H176147   6.540   4.149   5.929  0.3528  0.3493  0.6685
18244TIP3    H276148   6.430   4.147   6.033 -1.1805  0.0053 -0.8986
18245TIP3   OH276149   5.068   6.064  16.034  0.7809 -0.1787  0.3030
18245TIP3    H176150   5.109   5.982  16.006 -1.4889 -0.7543 -1.7308
18245TIP3    H276151   5.132   6.132  16.012  1.0811 -1.0859 -1.8692
18246TIP3   OH276152   3.928   3.135   5.118  0.0525  0.2346  0.9715
18246TIP3    H176153   3.927   3.225   5.084  1.0614  0.7547  2.2251
18246TIP3    H276154   4.021   3.114   5.126 -0.1825 -0.8706  0.8221
18247TIP3   OH276155   0.512   3.886  12.693 -0.1106  0.4577  0.1643
18247TIP3    H176156   0.424   3.902  12.659 -0.1386  1.6567  0.7431
18247TIP3    H276157   0.501   3.881  12.788  0.2646 -0.7731  0.1614
18248TIP3   OH276158   3.488   0.316   4.133  0.1290  0.6407 -0.0622
18248TIP3    H176159   3.466   0.226   4.108 -1.8125  1.1274 -0.3185
18248TIP3    H276160   3.549   0.346   4.065 -0.4899  0.0326 -0.9094
18249TIP3   OH276161   2.456   0.086   6.439 -0.1635 -0.6135  0.1005
18249TIP3    H176162   2.476   0.036   6.359 -2.8194  0.9452 -1.7374
18249TIP3    H276163   2.502   0.169   6.428  0.0547 -0.6729  0.5599
18250TIP3   OH276164   0.043   0.541  14.146 -0.3459 -0.4942 -0.5608
18250TIP3    H176165   0.026   0.469  14.208  1.1154  0.4734  1.0572
18250TIP3    H276166   0.081   0.498  14.070 -1.1085 -1.6096 -0.3462
18251TIP3   OH276167   1.081   3.254  13.543 -0.4095 -0.0881  0.2604
18251TIP3    H176168   1.081   3.322  13.611  1.6668 -0.9610  1.2297
18251TIP3    H276169   1.013   3.193  13.571 -0.3913  0.1696  0.9048
18252TIP3   OH276170   5.760   6.145   3.044 -0.9524  0.3870 -0.9294
18252TIP3    H176171   5.756   6.060   3.089  0.0682  0.1242 -1.3163
18252TIP3    H276172   5.705   6.134   2.967 -0.5560 -0.0400 -1.1549
18253TIP3   OH276173   3.981   2.691  16.731  0.0777  0.4812  0.1137
18253TIP3    H176174   4.011   2.666  16.818 -0.5526  2.0451  0.8124
18253TIP3    H276175   3.886   2.699  16.739  0.0907  1.4290 -0.4871
18254TIP3   OH276176   3.871   3.431  13.402  0.1144 -0.3727 -0.1545
18254TIP3    H176177   3.827   3.361  13.450 -0.7768 -1.0901 -1.9117
18254TIP3    H276178   3.800   3.485  13.367  0.7495  0.4445 -0.2203
18255TIP3   OH276179   0.207   1.591  13.962 -0.0047 -0.1748  0.4751
18255TIP3    H176180   0.254   1.508  13.966 -1.9080 -1.3013  4.0112
18255TIP3    H276181   0.267   1.655  13.999  1.1249 -0.0594 -1.4096
18256TIP3   OH276182   2.079   0.605   4.340 -0.1299 -0.2055 -0.2070
18256TIP3    H176183   2.173   0.617   4.350  0.2256 -2.4715 -0.3838
18256TIP3    H276184   2.061   0.635   4.250  0.7794 -1.5256 -0.8543
18257TIP3   OH276185   1.728   3.680   4.074  0.2034 -0.6157 -0.1322
18257TIP3    H176186   1.644   3.637   4.090  0.2553 -0.6763 -0.0186
18257TIP3    H276187   1.793   3.611   4.086  0.2692 -0.5679 -0.2165
18258TIP3   OH276188   3.706   2.684  14.422 -1.0744 -0.6158  1.0398
18258TIP3    H176189   3.696   2.688  14.327 -0.9496 -0.0453  1.0445
18258TIP3    H276190   3.799   2.671  14.436 -0.4516  2.8187  1.1023
18259TIP3   OH276191   2.201   2.298  11.936 -0.0645 -0.4271  0.8557
18259TIP3    H176192   2.150   2.274  11.859  1.0215 -0.6287  0.1708
18259TIP3    H276193   2.149   2.366  11.979 -1.0225 -0.8157  0.3355
18260TIP3   OH276194   0.138   0.133  15.764 -0.6592 -1.0364 -0.1302
18260TIP3    H176195   0.147   0.090  15.679 -1.5688 -0.1051 -0.7088
18260TIP3    H276196   0.135   0.227  15.744  2.7840 -0.4658  1.1967
18261TIP3   OH276197   3.279   0.958  13.856  0.7791 -0.2238  0.1865
18261TIP3    H176198   3.191   0.924  13.843  0.8410  0.1834 -1.4272
18261TIP3    H276199   3.336   0.898  13.808  1.2697  0.1007  0.3534
18262TIP3   OH276200   1.723   0.680   1.003 -0.3360  0.2562  0.7295
18262TIP3    H176201   1.715   0.772   0.980  1.2717  0.2101 -0.1657
18262TIP3    H276202   1.710   0.633   0.920  1.5832 -0.1333  0.6063
18263TIP3   OH276203   5.582   1.659  12.566 -0.2062 -0.0041 -0.6396
18263TIP3    H176204   5.496   1.621  12.547 -0.6968  1.0517 -0.5838
18263TIP3    H276205   5.610   1.617  12.647 -1.5359  1.0093  0.3891
18264TIP3   OH276206   4.289   1.223  15.532 -0.4498 -0.1859 -0.0966
18264TIP3    H176207   4.232   1.287  15.490 -0.0127 -0.4143 -1.0630
18264TIP3    H276208   4.365   1.217  15.474 -0.5088 -1.6274 -0.0416
18265TIP3   OH276209   5.522   2.747   5.879 -0.6045  0.1398 -0.1551
18265TIP3    H176210   5.487   2.835   5.895  0.4464  0.2704  1.5728
18265TIP3    H276211   5.595   2.761   5.819 -0.4383  0.4452  0.1165
18266TIP3   OH276212   3.537   4.675   1.307  0.5680 -0.4206  0.3612
18266TIP3    H176213   3.615   4.627   1.337  1.1919  0.1969 -0.2343
18266TIP3    H276214   3.515   4.634   1.224  2.0324  1.2469 -0.9361
18267TIP3   OH276215   6.190   5.358  12.153  0.3839 -1.0202 -0.2292
18267TIP3    H176216   6.251   5.301  12.106  0.3698 -0.4464 -0.9518
18267TIP3    H276217   6.223   5.359  12.243  2.6374  0.8443 -0.9657
18268TIP3   OH276218   6.132   5.441   4.224 -0.2070 -0.0401  0.2832
18268TIP3    H176219   6.167   5.529   4.239 -2.9642  1.5052 -1.5401
18268TIP3    H276220   6.205   5.392   4.186  0.6190  2.3734 -1.4608
18269TIP3   OH276221   4.329   0.862  16.885 -0.1120 -0.3835  0.3064
18269TIP3    H176222   4.399   0.927  16.893 -0.8349  0.3720  0.6590
18269TIP3    H276223   4.299   0.871  16.795  1.2448 -1.7836 -0.3233
18270TIP3   OH276224   2.498   1.846  12.021  0.7584  0.5292 -0.3293
18270TIP3    H176225   2.472   1.923  11.970  2.0044  0.8731 -0.4885
18270TIP3    H276226   2.491   1.875  12.112  0.7025  0.6486 -0.3698
18271TIP3   OH276227   2.070   0.287   0.538 -0.1530  0.2105 -0.3643
18271TIP3    H176228   2.062   0.382   0.543 -3.2236  0.2051 -2.3999
18271TIP3    H276229   1.980   0.255   0.538  0.7733 -2.7208  0.1089
18272TIP3   OH276230   4.879   4.405   4.628  0.8097 -0.1185  0.3098
18272TIP3    H176231   4.830   4.345   4.684  0.1401  0.0240 -0.1111
18272TIP3    H276232   4.859   4.377   4.539 -0.1321  1.1979  0.0817
18273TIP3   OH276233   2.034   1.818   4.602  0.0877 -0.6693 -0.0180
18273TIP3    H176234   2.067   1.774   4.524  1.3654  0.7972 -0.3346
18273TIP3    H276235   2.110   1.861   4.640 -1.2313  2.1091 -0.2718
18274TIP3   OH276236   0.499   0.799  12.556 -0.2741 -0.0764 -0.9170
18274TIP3    H176237   0.452   0.718  12.535  2.5903 -1.4802 -2.6127
18274TIP3    H276238   0.559   0.775  12.626 -0.4424  1.0272 -0.3739
18275TIP3   OH276239   0.374   4.586   1.756  0.1725 -0.4687  0.3642
18275TIP3    H176240   0.296   4.599   1.810  0.4945  0.2657  0.6791
18275TIP3    H276241   0.404   4.498   1.777 -0.4368 -0.6621  0.4210
18276TIP3   OH276242   5.095   1.749  16.418 -0.1375 -0.1245  0.3011
18276TIP3    H176243   5.074   1.840  16.396  0.0597  0.3967  2.1036
18276TIP3    H276244   5.045   1.732  16.498  0.6559 -1.2641  0.5758
18277TIP3   OH276245   5.507   3.822  13.344 -0.1870 -0.5576 -0.1361
18277TIP3    H176246   5.508   3.740  13.393 -0.1969 -0.8381 -0.5914
18277TIP3    H276247   5.596   3.831  13.310 -0.5079 -1.0395 -1.1387
18278TIP3   OH276248   6.131   0.613  15.108  0.4895 -0.0303 -0.1128
18278TIP3    H176249   6.196   0.561  15.154  1.6422  0.7025 -0.8431
18278TIP3    H276250   6.047   0.589  15.148  1.0172 -2.1101 -0.1625
18279TIP3   OH276251   1.147   0.110   1.706  0.2219 -0.2868  0.1251
18279TIP3    H176252   1.214   0.047   1.681  0.6784  0.6598 -1.1939
18279TIP3    H276253   1.197   0.188   1.732 -0.3451 -0.1600  0.8716
18280TIP3   OH276254   4.413   0.904  12.617  0.5628  0.1771 -0.5536
18280TIP3    H176255   4.389   0.982  12.566 -0.5098 -0.4196 -0.9914
18280TIP3    H276256   4.462   0.850  12.556 -1.6952 -1.0617 -1.3941
18281TIP3   OH276257   6.510   1.006  16.976  0.5637  0.2765 -0.2495
18281TIP3    H176258   6.477   1.004  16.886 -0.4957  0.6785  0.1093
18281TIP3    H276259   6.431   1.017  17.029  1.1555 -0.1632  0.7413
18282TIP3   OH276260   5.178   2.326   6.227  0.1478 -0.1975 -0.1287
18282TIP3    H176261   5.244   2.282   6.174  0.6527  0.2838  0.1022
18282TIP3    H276262   5.203   2.418   6.227  0.5020 -0.2627  1.4293
18283TIP3   OH276263   1.639   4.936   3.522  0.1852 -0.0399 -0.7149
18283TIP3    H176264   1.621   4.842   3.524  1.8329 -0.4058 -1.5867
18283TIP3    H276265   1.604   4.966   3.438  1.6567 -0.3412 -1.4598
18284TIP3   OH276266   2.705   1.079   3.653  0.2252 -0.0451 -0.2964
18284TIP3    H176267   2.767   1.052   3.585  0.7320  2.0388 -0.7139
18284TIP3    H276268   2.627   1.106   3.606 -1.2760 -2.9690  0.2399
18285TIP3   OH276269   1.152   2.075   3.926  0.0963  1.1476 -0.5877
18285TIP3    H176270   1.090   2.019   3.879 -0.2129  0.0716  1.0210
18285TIP3    H276271   1.237   2.050   3.891  0.0747 -1.1768  0.8227
18286TIP3   OH276272   3.865   1.662  12.461 -0.0315  0.0259 -0.4849
18286TIP3    H176273   3.829   1.622  12.382 -0.1231  1.6870 -1.3321
18286TIP3    H276274   3.936   1.604  12.488 -2.0100 -2.2658  0.0815
18287TIP3   OH276275   2.415   6.700   2.371 -0.0471 -0.3298  0.1084
18287TIP3    H176276   2.457   6.634   2.426  0.9767  1.7008  1.9019
18287TIP3    H276277   2.396   6.772   2.430 -0.6238  1.2326 -1.8661
18288TIP3   OH276278   1.202   1.969   5.476  0.5861 -0.3484 -0.6962
18288TIP3    H176279   1.137   2.019   5.427 -0.3324 -0.7179  0.1055
18288TIP3    H276280   1.277   1.963   5.417 -0.2328 -0.2030 -1.7886
18289TIP3   OH276281   5.665   1.362   0.416 -0.0053 -0.1998  0.0786
18289TIP3    H176282   5.588   1.419   0.420  1.0898  1.2561  1.2496
18289TIP3    H276283   5.629   1.274   0.406 -1.7681  0.5900 -1.0251
18290TIP3   OH276284   0.430   0.506   4.187  0.5563 -0.1330 -0.6644
18290TIP3    H176285   0.487   0.580   4.211  0.0236  0.0784 -0.0320
18290TIP3    H276286   0.407   0.466   4.271  0.5979 -0.8442 -0.9883
18291TIP3   OH276287   1.739   1.018   3.215  0.3141 -0.2433  0.3535
18291TIP3    H176288   1.810   1.054   3.162 -0.7211  0.9648 -0.2561
18291TIP3    H276289   1.703   1.093   3.261 -2.9155 -0.0503 -2.1260
18292TIP3   OH276290   4.254   2.335  11.382 -0.1286 -0.2360  0.1582
18292TIP3    H176291   4.214   2.254  11.411 -0.5790  0.6048  2.0136
18292TIP3    H276292   4.298   2.312  11.300 -0.1161 -2.3751  0.7064
18293TIP3   OH276293   3.766   1.512   2.129  0.4377 -0.6553  0.4000
18293TIP3    H176294   3.823   1.554   2.194  0.7614  1.9317 -1.4004
18293TIP3    H276295   3.680   1.510   2.169  0.6462  0.8194  0.9604
18294TIP3   OH276296   4.223   5.192  16.906 -0.3598  0.0845 -0.3220
18294TIP3    H176297   4.285   5.213  16.975 -1.3243 -0.5654  0.7868
18294TIP3    H276298   4.247   5.103  16.878 -1.8661 -0.9342  1.4148
18295TIP3   OH276299   5.682   5.616  12.662  0.1102 -0.3229  0.5026
18295TIP3    H176300   5.606   5.562  12.680  1.0812 -1.8891  0.1445
18295TIP3    H276301   5.716   5.640  12.748 -1.7788  1.9834  0.7119
18296TIP3   OH276302   4.996   4.380  12.561  0.2621 -0.1919  0.4002
18296TIP3    H176303   4.985   4.474  12.569  0.6137 -0.2725  2.8335
18296TIP3    H276304   5.074   4.368  12.507  0.2993  0.9223  0.2008
18297TIP3   OH276305   5.920   5.144  11.683 -0.1978  0.1119  0.4885
18297TIP3    H176306   5.990   5.183  11.737 -0.9719  2.6896 -0.2239
18297TIP3    H276307   5.848   5.130  11.744  0.3561 -1.0324  0.9088
18298TIP3   OH276308   5.277   2.193  13.160  0.3165  0.5534 -0.4049
18298TIP3    H176309   5.211   2.129  13.184  1.0426  0.5492  1.7691
18298TIP3    H276310   5.358   2.160  13.197  1.1352  1.6596 -1.1146
18299TIP3   OH276311   4.457   1.927   6.797 -0.5459  0.2509 -0.1723
18299TIP3    H176312   4.412   1.876   6.729 -2.0319 -0.9009  1.5622
18299TIP3    H276313   4.404   2.006   6.807 -1.3955 -0.4129  0.8310
18300TIP3   OH276314   1.539   3.335  12.044  0.4002 -0.5661 -0.0061
18300TIP3    H176315   1.524   3.313  11.952 -0.0042 -0.2443 -0.0182
18300TIP3    H276316   1.624   3.379  12.044 -0.1446  0.5274 -0.4086
18301TIP3   OH276317   4.416   0.040  12.683  0.6918 -0.0112 -0.4698
18301TIP3    H176318   4.343  -0.010  12.645  1.9481 -0.1729 -2.9316
18301TIP3    H276319   4.409   0.026  12.777 -1.4772 -1.3588 -0.7659
18302TIP3   OH276320   3.116   1.468   5.572  0.3641  0.9576 -0.3586
18302TIP3    H176321   3.137   1.561   5.586 -0.9231  1.1747  0.3625
18302TIP3    H276322   3.185   1.436   5.515  0.2698  2.6477 -1.5266
18303TIP3   OH276323   2.683   5.591   4.069  0.1133 -0.7895 -0.1397
18303TIP3    H176324   2.650   5.672   4.108  1.2669 -1.3492  2.2162
18303TIP3    H276325   2.711   5.616   3.981  2.1240  1.8841  1.0900
18304TIP3   OH276326   5.350   4.894   0.479 -0.5318  0.7212  0.2938
18304TIP3    H176327   5.259   4.863   0.480  0.2835 -1.8770 -0.1160
18304TIP3    H276328   5.374   4.892   0.386  0.2338  0.4844  0.4972
18305TIP3   OH276329   2.111   0.066   3.180 -0.1088 -0.1325 -0.3960
18305TIP3    H176330   2.201   0.071   3.212 -0.1417  1.2124 -0.4510
18305TIP3    H276331   2.111   0.118   3.100 -1.7180  3.2918  1.5755
18306TIP3   OH276332   6.330   5.269   2.903  0.1676 -0.5197 -0.3242
18306TIP3    H176333   6.402   5.253   2.964 -0.2725  2.3099  1.1037
18306TIP3    H276334   6.369   5.256   2.816  2.2011  0.1976  0.4291
18307TIP3   OH276335   0.979   0.298   5.328  0.1169  0.4195  0.5419
18307TIP3    H176336   1.053   0.349   5.295  1.0279  0.2497  2.1973
18307TIP3    H276337   1.009   0.207   5.326 -1.5868 -0.2469 -2.6378
18308TIP3   OH276338   0.381   4.946  13.625  0.6010  0.6324 -0.1868
18308TIP3    H176339   0.370   5.010  13.695  1.3226 -0.9788  1.4503
18308TIP3    H276340   0.372   4.861  13.667 -0.6786 -0.4075 -2.3579
18309TIP3   OH276341   1.943   2.059  15.537  0.3403 -0.3470 -0.3178
18309TIP3    H176342   2.020   2.021  15.580 -0.1529  0.5325  1.4330
18309TIP3    H276343   1.881   2.074  15.608 -2.0284 -2.2677 -1.8232
18310TIP3   OH276344   0.294   1.799  15.321  0.5217 -0.5766 -0.2689
18310TIP3    H176345   0.205   1.764  15.326  0.3450 -0.2203 -0.8700
18310TIP3    H276346   0.314   1.802  15.227 -0.6453  3.8088 -0.5648
18311TIP3   OH276347   6.756   5.375  11.924  0.3315  0.3149 -0.3549
18311TIP3    H176348   6.825   5.313  11.900 -0.5051 -0.2174 -1.4692
18311TIP3    H276349   6.675   5.323  11.922 -0.3171  1.3233 -0.7854
18312TIP3   OH276350   0.901   4.786   2.673  0.8122  0.4203 -0.2277
18312TIP3    H176351   0.980   4.747   2.636  0.3839  0.8698 -1.6615
18312TIP3    H276352   0.913   4.880   2.661  0.1878  0.5093 -0.1531
18313TIP3   OH276353   4.454   0.163  14.656 -0.3416 -0.3899 -0.1595
18313TIP3    H176354   4.461   0.258  14.647  1.5114 -0.4371  0.5062
18313TIP3    H276355   4.448   0.131  14.565  1.1413  0.2382 -0.5012
18314TIP3   OH276356   3.794   1.397  12.044  0.7400  0.6907  0.1460
18314TIP3    H176357   3.875   1.382  11.995 -0.5626  2.0918 -2.6327
18314TIP3    H276358   3.724   1.372  11.984 -0.9859 -1.1988  2.7393
18315TIP3   OH276359   4.320   6.106   5.705  0.1215  0.9019 -0.1285
18315TIP3    H176360   4.288   6.140   5.789 -0.8149 -1.0274  0.3413
18315TIP3    H276361   4.245   6.062   5.667  1.6772 -2.3932  0.2496
18316TIP3   OH276362   2.513   5.040  13.538 -1.0206 -0.3880  0.2499
18316TIP3    H176363   2.575   5.112  13.528  0.2866 -1.4512  0.4124
18316TIP3    H276364   2.476   5.053  13.626  2.0060 -1.9332  1.9066
18317TIP3   OH276365   1.591   3.617   2.652  0.1481 -0.2221  0.0784
18317TIP3    H176366   1.634   3.540   2.690 -1.2123 -0.2477  1.6675
18317TIP3    H276367   1.643   3.691   2.681 -0.2952 -0.3248  1.1533
18318TIP3   OH276368   5.167   2.041   3.631 -0.0918  0.1875 -0.1617
18318TIP3    H176369   5.160   2.011   3.721  0.9502 -0.3212 -0.2250
18318TIP3    H276370   5.239   1.989   3.594 -2.1735 -1.5330 -2.0783
18319TIP3   OH276371   0.467   4.074  15.103  0.5515 -0.1029 -0.2996
18319TIP3    H176372   0.372   4.067  15.108  0.5866 -1.1984 -0.9173
18319TIP3    H276373   0.500   3.987  15.125  1.4106  0.2323 -0.1892
18320TIP3   OH276374   0.270   4.865   1.459 -0.7172 -0.1991  0.1151
18320TIP3    H176375   0.281   4.803   1.387 -0.1413  1.6787 -1.4900
18320TIP3    H276376   0.181   4.898   1.449 -0.4828  0.4017 -0.0360
18321TIP3   OH276377   6.578   4.485  11.145  0.0235  0.2377 -0.2188
18321TIP3    H176378   6.604   4.444  11.228  0.7904 -0.7802 -0.9462
18321TIP3    H276379   6.651   4.467  11.086 -1.4059 -0.8501 -1.7192
18322TIP3   OH276380   3.953   1.805  17.274 -0.2938 -0.9329  0.5551
18322TIP3    H176381   3.863   1.778  17.293 -0.9366  1.6319  1.5865
18322TIP3    H276382   3.983   1.846  17.355  0.0495  2.4938 -1.1381
18323TIP3   OH276383   2.958   5.708   1.338  0.0329  0.2296  0.4602
18323TIP3    H176384   2.905   5.730   1.415 -0.4953  0.6339 -0.0158
18323TIP3    H276385   2.915   5.631   1.300 -0.4590  0.8080 -0.1622
18324TIP3   OH276386   3.732   1.744   2.578  0.2531 -0.3879 -0.0239
18324TIP3    H176387   3.800   1.687   2.612  0.4332 -0.5757 -0.6963
18324TIP3    H276388   3.774   1.794   2.508 -0.4028 -0.8011 -0.7195
18325TIP3   OH276389   3.991   5.530   1.021  0.1630  0.2496 -0.5904
18325TIP3    H176390   3.994   5.444   0.979  0.9862 -0.0390  0.0385
18325TIP3    H276391   4.019   5.514   1.111 -0.1002  1.1085 -0.3485
18326TIP3   OH276392   3.899   1.572  16.548  0.3907 -0.4143 -0.0642
18326TIP3    H176393   3.853   1.634  16.492  0.5399 -2.0923 -2.2077
18326TIP3    H276394   3.866   1.589  16.636 -0.9270  1.4195 -0.8536
18327TIP3   OH276395   2.920   5.035   0.865  0.2530  0.8907  0.8643
18327TIP3    H176396   3.005   5.015   0.825 -0.4457  0.2448 -0.3285
18327TIP3    H276397   2.943   5.078   0.948  1.7474  2.4167 -0.2631
18328TIP3   OH276398   6.519   4.205   4.376  0.1078  0.1720  0.2465
18328TIP3    H176399   6.580   4.212   4.450  0.5424  0.5509 -0.1441
18328TIP3    H276400   6.432   4.216   4.415  0.2397 -0.8830  0.8868
18329TIP3   OH276401   4.789   4.992  11.970  0.1373  0.0499  0.5719
18329TIP3    H176402   4.856   4.930  11.942  2.0589  0.5673  3.5688
18329TIP3    H276403   4.725   4.938  12.017  0.0080 -0.0667  0.2657
18330TIP3   OH276404   1.566   5.404   3.052 -0.2169 -0.2096 -0.3214
18330TIP3    H176405   1.571   5.332   2.990 -0.7364 -0.5277  0.0003
18330TIP3    H276406   1.568   5.363   3.138 -1.7326  0.0518 -0.1374
18331TIP3   OH276407   1.434   4.013  16.712  0.4706 -0.0100 -0.0404
18331TIP3    H176408   1.503   3.952  16.739  0.9195  0.5331  0.0352
18331TIP3    H276409   1.479   4.095  16.694 -0.0304  0.0885 -0.9068
18332TIP3   OH276410   3.479   3.656   0.563  0.1031  0.3807 -0.3245
18332TIP3    H176411   3.435   3.704   0.633  0.0875 -0.6344  0.3941
18332TIP3    H276412   3.412   3.597   0.529  0.1586  0.7496 -1.0957
18333TIP3   OH276413   5.190   4.348   3.929  0.0468 -0.0193 -0.1769
18333TIP3    H176414   5.099   4.377   3.941 -1.0347 -2.5641 -1.3571
18333TIP3    H276415   5.221   4.330   4.017 -0.9184  0.0814  0.2020
18334TIP3   OH276416   3.264   6.621  15.626  0.6612  0.2235  0.2938
18334TIP3    H176417   3.259   6.532  15.590 -0.0804  0.3048  0.1693
18334TIP3    H276418   3.337   6.619  15.688  0.8769 -0.3751  0.0205
18335TIP3   OH276419   2.578   2.315   3.398 -0.4580 -0.0373 -0.0676
18335TIP3    H176420   2.556   2.391   3.345  0.3883 -0.0082 -0.3902
18335TIP3    H276421   2.496   2.265   3.404 -0.8487  0.5511 -0.4114
18336TIP3   OH276422   1.745   2.384  11.617 -0.1784 -0.4269 -0.3901
18336TIP3    H176423   1.746   2.426  11.531  0.7759 -0.2779 -0.3144
18336TIP3    H276424   1.657   2.401  11.651  0.1177  1.3346 -0.4463
18337TIP3   OH276425   3.389   1.865  15.545 -0.0804 -0.0372 -0.2751
18337TIP3    H176426   3.408   1.949  15.503 -1.1405  0.0361 -0.6333
18337TIP3    H276427   3.307   1.879  15.591 -0.4532 -0.9776 -0.6302
18338TIP3   OH276428   5.211   5.017  14.795 -0.4224  0.2454  0.2552
18338TIP3    H176429   5.166   5.017  14.880 -0.7824  1.0231  0.0789
18338TIP3    H276430   5.141   5.031  14.731 -0.3351 -1.5844 -0.2983
18339TIP3   OH276431   2.083   4.283   3.148  0.0489 -0.6809 -0.0042
18339TIP3    H176432   2.151   4.305   3.212 -0.5018 -0.4870  0.5205
18339TIP3    H276433   2.122   4.305   3.064 -0.0624  1.2776  0.4197
18340TIP3   OH276434   1.740   5.242  11.987 -0.5078  0.1227 -0.2666
18340TIP3    H176435   1.822   5.194  11.990 -0.1099  0.7990  2.4977
18340TIP3    H276436   1.735   5.276  11.898  1.2094 -1.5446 -1.0615
18341TIP3   OH276437   4.820   5.258   4.741 -0.4142  0.1330  0.2131
18341TIP3    H176438   4.788   5.211   4.664 -2.1797 -1.0949  1.6038
18341TIP3    H276439   4.816   5.350   4.717  1.3018 -0.2540 -1.9335
18342TIP3   OH276440   4.005   4.614  16.492  0.3033  0.0896  0.1025
18342TIP3    H176441   4.059   4.620  16.572 -0.3758  0.8561  0.5184
18342TIP3    H276442   3.994   4.705  16.464 -0.9782 -0.0259  0.1756
18343TIP3   OH276443   2.888   4.796   1.222 -0.6376  0.4138  0.0187
18343TIP3    H176444   2.941   4.732   1.176 -1.1728 -0.0499  0.0319
18343TIP3    H276445   2.798   4.779   1.192 -1.1636 -0.6310  2.0197
18344TIP3   OH276446   2.562   1.258   6.299 -0.3476  0.5368 -0.4322
18344TIP3    H176447   2.654   1.280   6.309 -0.0216 -1.0123  0.4741
18344TIP3    H276448   2.529   1.255   6.389 -0.9122 -0.2828 -0.6546
18345TIP3   OH276449   4.694   3.579  16.459 -0.7339 -0.5009  0.6315
18345TIP3    H176450   4.744   3.508  16.418  1.1305  0.5235  1.0755
18345TIP3    H276451   4.691   3.555  16.552  0.2197  0.1763  0.8418
18346TIP3   OH276452   6.349   5.523  15.592  0.6315 -0.1571  0.5612
18346TIP3    H176453   6.428   5.505  15.645 -0.0455  0.7867  1.9547
18346TIP3    H276454   6.373   5.599  15.539  0.3029  0.9086  1.8791
18347TIP3   OH276455   2.798   6.059   1.985  0.0045 -0.7872 -0.2172
18347TIP3    H176456   2.829   6.091   2.069 -1.3048  0.3737 -0.1295
18347TIP3    H276457   2.873   6.068   1.926 -0.0255  1.6821  0.0291
18348TIP3   OH276458   6.425   0.806  10.928  0.0065  0.0769 -0.1201
18348TIP3    H176459   6.364   0.853  10.871  0.1201 -0.8708 -1.0397
18348TIP3    H276460   6.374   0.732  10.961 -0.1174  0.6984  1.1896
18349TIP3   OH276461   1.195   5.343  12.840  0.1979 -0.1528 -0.1424
18349TIP3    H176462   1.166   5.367  12.928  1.8157  0.0802  0.3576
18349TIP3    H276463   1.114   5.320  12.793 -0.9171  1.7389  0.7494
18350TIP3   OH276464   5.271   3.703   5.556 -0.1264  0.0089  0.1310
18350TIP3    H176465   5.183   3.685   5.522 -0.5769 -0.7782  1.5912
18350TIP3    H276466   5.305   3.616   5.578  1.5172  0.1829 -1.4919
18351TIP3   OH276467   2.875   3.120  17.286  0.1291 -0.1377 -0.0171
18351TIP3    H176468   2.858   3.149  17.197  1.2853  0.5835 -0.0282
18351TIP3    H276469   2.830   3.185  17.341  2.1107  1.3721 -0.0557
18352TIP3   OH276470   2.328   1.207   1.345  0.2189  0.1495 -0.7808
18352TIP3    H176471   2.286   1.174   1.266  0.1715 -1.7911 -0.0047
18352TIP3    H276472   2.328   1.132   1.405  0.6733  1.4279  0.8883
18353TIP3   OH276473   6.342   5.609   2.811  0.2723 -0.5009  0.1929
18353TIP3    H176474   6.371   5.519   2.822  1.6323 -0.0115  0.9068
18353TIP3    H276475   6.247   5.603   2.802  0.4644 -2.1112 -1.2408
18354TIP3   OH276476   2.228   4.859  13.925 -0.0086 -0.8367 -0.1734
18354TIP3    H176477   2.176   4.922  13.873  0.7978  0.1665  0.2024
18354TIP3    H276478   2.178   4.848  14.006  1.3918  1.9437  1.2171
18355TIP3   OH276479   4.244   6.080   0.388 -0.2181  0.3280 -0.5244
18355TIP3    H176480   4.306   6.142   0.350  1.3022  0.7790  2.3992
18355TIP3    H276481   4.290   5.996   0.388 -1.0895 -0.1823 -1.6649
18356TIP3   OH276482   2.432   6.610  13.079  0.2140 -0.5964 -0.2838
18356TIP3    H176483   2.369   6.657  13.134  2.4340  0.0479  1.8594
18356TIP3    H276484   2.435   6.522  13.116  2.5574  0.1488  1.5593
18357TIP3   OH276485   1.209   3.086  14.808  0.0915  0.7347 -0.4910
18357TIP3    H176486   1.156   3.166  14.814  0.9844  1.3141 -0.2337
18357TIP3    H276487   1.260   3.097  14.729 -0.1774  0.1605 -0.7520
18358TIP3   OH276488   4.445   3.370   2.082 -0.1047 -0.2414 -0.0516
18358TIP3    H176489   4.396   3.340   2.159  0.2338  0.5924  0.5020
18358TIP3    H276490   4.506   3.299   2.064 -0.3531 -0.5527  0.3017
18359TIP3   OH276491   3.994   5.444   2.209 -0.5054 -0.6511 -0.1818
18359TIP3    H176492   3.909   5.475   2.240 -0.1092 -0.3969  0.6899
18359TIP3    H276493   4.052   5.519   2.220  1.0945 -2.1965  4.4005
18360TIP3   OH276494   3.637   3.122  16.989  0.2649  0.4063  0.5566
18360TIP3    H176495   3.704   3.056  16.975  0.9426  1.1164  0.3884
18360TIP3    H276496   3.594   3.096  17.071 -0.4349 -1.0253 -0.2226
18361TIP3   OH276497   2.534   4.141   1.906 -0.1002  0.2355 -0.3951
18361TIP3    H176498   2.522   4.058   1.952  1.5086  0.5919  0.7509
18361TIP3    H276499   2.539   4.207   1.975  0.2213  1.0833 -1.2006
18362TIP3   OH276500   2.742   3.157   5.755 -0.3081 -0.2166 -0.1441
18362TIP3    H176501   2.827   3.117   5.774 -0.8066 -2.6901 -2.4320
18362TIP3    H276502   2.682   3.120   5.820 -0.3783 -1.7871 -1.0601
18363TIP3   OH276503   5.730   5.719  10.855 -0.6214  0.0754  0.0656
18363TIP3    H176504   5.641   5.705  10.886 -0.6313  1.2121  0.5922
18363TIP3    H276505   5.727   5.802  10.809 -0.0423 -0.3718 -0.8124
18364TIP3   OH276506   0.562   6.746   4.494 -0.0081 -0.3104  0.4057
18364TIP3    H176507   0.523   6.814   4.549 -1.7992  0.2196 -1.3890
18364TIP3    H276508   0.486   6.699   4.459  1.0592 -0.6193 -1.5745
18365TIP3   OH276509   2.686   2.591   4.789 -0.6493  0.8377 -0.1467
18365TIP3    H176510   2.747   2.594   4.715  1.2499 -0.2581  1.2890
18365TIP3    H276511   2.672   2.497   4.804  0.7189  0.9203  2.1478
18366TIP3   OH276512   5.627   1.950   3.180  0.1131  0.2972  0.0499
18366TIP3    H176513   5.604   1.859   3.163  0.1002  0.4448 -0.7785
18366TIP3    H276514   5.650   1.986   3.094 -0.2230  1.1728  0.3064
18367TIP3   OH276515   1.035   3.783  17.325 -0.2532 -0.0411  0.7448
18367TIP3    H176516   0.968   3.825  17.378 -0.5464 -1.6871  1.7647
18367TIP3    H276517   1.118   3.804  17.368 -0.3513 -0.0821  0.9541
18368TIP3   OH276518   1.532   2.012  12.018  0.0634  0.6411  1.2079
18368TIP3    H176519   1.510   1.939  11.961  2.6132 -0.9730  2.1144
18368TIP3    H276520   1.458   2.019  12.079 -0.6711 -0.4964  0.4662
18369TIP3   OH276521   1.578   6.608  13.057  0.4129  0.0787 -0.1783
18369TIP3    H176522   1.644   6.677  13.053  0.5089 -0.0359 -0.8212
18369TIP3    H276523   1.585   6.565  12.971 -1.4910  0.9797 -0.8344
18370TIP3   OH276524   4.307   2.187   5.606  0.0759 -0.5751 -0.1454
18370TIP3    H176525   4.254   2.124   5.557 -0.9132  0.4587 -0.4592
18370TIP3    H276526   4.244   2.237   5.657  0.9115 -0.3029  0.6520
18371TIP3   OH276527   0.987   0.260   4.210 -0.4336 -0.0558 -0.1900
18371TIP3    H176528   1.010   0.246   4.302 -2.7080  0.2325  0.4843
18371TIP3    H276529   1.069   0.244   4.162  0.2038 -2.9295  1.5974
18372TIP3   OH276530   6.055   1.697  15.857  0.1389  0.4688 -0.6857
18372TIP3    H176531   6.124   1.642  15.896 -0.2213  0.9696  0.6889
18372TIP3    H276532   5.998   1.635  15.812 -0.5913 -0.4140  1.3309
18373TIP3   OH276533   2.018   1.709   1.825 -0.2844 -0.2591 -0.3501
18373TIP3    H176534   2.015   1.748   1.912 -2.8312  1.2714 -1.0089
18373TIP3    H276535   1.930   1.675   1.811 -0.2585  0.4295 -2.6712
18374TIP3   OH276536   4.260   6.511   3.405 -0.4724 -0.0045  0.7245
18374TIP3    H176537   4.248   6.517   3.310 -1.7830 -1.6153  0.7586
18374TIP3    H276538   4.236   6.598   3.437  0.2679  0.6598 -0.4089
18375TIP3   OH276539   5.650   2.687  15.154 -0.6650  0.4082  0.1120
18375TIP3    H176540   5.697   2.765  15.125 -0.0349  0.3893  1.0750
18375TIP3    H276541   5.692   2.661  15.235 -1.2948 -0.5608  0.1500
18376TIP3   OH276542   2.630   1.920   3.973  0.1626  0.2370 -0.3121
18376TIP3    H176543   2.629   1.945   4.066 -1.3633 -0.5073 -0.0972
18376TIP3    H276544   2.659   1.829   3.973 -1.7386 -0.4004 -0.3532
18377TIP3   OH276545   0.123   5.580   1.996  0.0046  0.9892  0.4083
18377TIP3    H176546   0.111   5.516   1.925 -0.8400  0.0434  1.3722
18377TIP3    H276547   0.107   5.665   1.954  0.1664  0.5017 -0.6773
18378TIP3   OH276548   1.348   5.700  15.625 -0.4792 -0.3299 -0.6275
18378TIP3    H176549   1.352   5.789  15.591 -0.9014 -0.0750 -0.0372
18378TIP3    H276550   1.440   5.674  15.636 -0.1072  1.8711  3.8103
18379TIP3   OH276551   1.711   4.380  15.868  0.6275 -0.5481 -0.2658
18379TIP3    H176552   1.763   4.359  15.945  0.0874  0.8499  0.5235
18379TIP3    H276553   1.743   4.466  15.840 -1.5014  0.5672  0.5175
18380TIP3   OH276554   5.027   5.553   3.114  0.6354  0.2831 -0.3687
18380TIP3    H176555   5.014   5.638   3.157 -1.2260 -1.4775  3.0152
18380TIP3    H276556   5.117   5.530   3.136  0.3569  0.3276  0.9212
18381TIP3   OH276557   2.780   6.472  12.518  0.7551  0.4304  0.0714
18381TIP3    H176558   2.804   6.401  12.458 -0.3049  0.1169 -0.0026
18381TIP3    H276559   2.736   6.536  12.462 -0.3478  0.0791  0.5102
18382TIP3   OH276560   2.396   5.400   6.425 -0.2823 -1.7042  0.1347
18382TIP3    H176561   2.331   5.460   6.389 -0.5081 -1.6475  0.6359
18382TIP3    H276562   2.480   5.438   6.399 -0.4376 -1.5500 -0.1503
18383TIP3   OH276563   2.348   1.383  12.197 -0.1163  0.0951  0.4109
18383TIP3    H176564   2.431   1.342  12.175  0.3158  1.2685 -0.2697
18383TIP3    H276565   2.353   1.400  12.291  0.9345  1.2159  0.1796
18384TIP3   OH276566   4.588   5.214   0.453 -0.0932  0.4129  0.2237
18384TIP3    H176567   4.536   5.251   0.381 -0.2563  0.3288  0.2975
18384TIP3    H276568   4.673   5.195   0.414 -0.0746  0.6741  0.1341
18385TIP3   OH276569   4.056   3.150   5.513  0.1246 -0.1159  0.0824
18385TIP3    H176570   4.040   3.224   5.454 -1.8993 -0.9326 -0.4920
18385TIP3    H276571   4.033   3.183   5.600 -0.1572  0.1240 -0.0811
18386TIP3   OH276572   4.996   0.457  13.590 -0.4313 -0.2054 -0.5492
18386TIP3    H176573   5.006   0.471  13.496 -2.9854  0.7356 -0.7579
18386TIP3    H276574   5.004   0.362  13.601  2.6946 -0.1327 -1.2241
18387TIP3   OH276575   4.046   0.066   2.446 -0.1182 -0.4206  0.2738
18387TIP3    H176576   4.056  -0.023   2.480  2.0176 -0.8235 -1.1787
18387TIP3    H276577   4.082   0.122   2.514 -1.3460 -0.6387  1.1409
18388TIP3   OH276578   2.929   2.831  14.658 -0.0994  0.0214 -0.0133
18388TIP3    H176579   2.882   2.870  14.584  1.2030 -0.3353 -1.0803
18388TIP3    H276580   2.914   2.737  14.650  0.3956 -0.0554 -0.0859
18389TIP3   OH276581   0.690   2.104  12.907 -0.0929 -0.1475 -0.7627
18389TIP3    H176582   0.660   2.193  12.888  0.2125  0.1485  0.1155
18389TIP3    H276583   0.760   2.088  12.843  0.1742  0.4212 -0.6173
18390TIP3   OH276584   5.207   5.298  15.845  0.6037 -0.2990  0.5856
18390TIP3    H176585   5.234   5.293  15.753  1.1975 -1.2626  0.8044
18390TIP3    H276586   5.119   5.260  15.846  0.3454  0.2789  0.3235
18391TIP3   OH276587   1.905   1.234  16.030  0.3556 -0.0359  0.0548
18391TIP3    H176588   1.933   1.164  15.972 -0.5655 -0.3767  0.0125
18391TIP3    H276589   1.906   1.313  15.975 -1.8373 -0.5736 -0.8468
18392TIP3   OH276590   2.562   3.008   2.824 -0.0131 -0.1177  0.8157
18392TIP3    H176591   2.549   2.972   2.736 -1.0367  2.8576 -0.3867
18392TIP3    H276592   2.636   2.960   2.859  1.0216 -0.8027 -2.0514
18393TIP3   OH276593   6.168   1.342  11.596  0.0505  0.3869  0.1219
18393TIP3    H176594   6.235   1.274  11.604 -0.0200  0.3386  0.3003
18393TIP3    H276595   6.213   1.423  11.620 -0.1929  0.2257  1.1384
18394TIP3   OH276596   1.243   3.329   2.060 -0.1004 -0.2142 -0.0621
18394TIP3    H176597   1.276   3.398   2.003 -2.5932  2.2919  1.2877
18394TIP3    H276598   1.155   3.310   2.028 -1.2965  0.7646  2.3544
18395TIP3   OH276599   5.248   6.272   4.052  0.4377  0.2575  0.3667
18395TIP3    H176600   5.274   6.199   3.996  1.6156  0.1665  0.9864
18395TIP3    H276601   5.297   6.347   4.017 -2.6956  1.4477 -1.9103
18396TIP3   OH276602   4.039   6.503  11.753  0.6583 -0.5983  0.3711
18396TIP3    H176603   4.032   6.501  11.657  0.9703 -0.8010  0.3506
18396TIP3    H276604   4.024   6.594  11.777  1.6942 -0.3250  0.0381
18397TIP3   OH276605   1.999   0.178  13.127  0.3149 -0.3254  0.1963
18397TIP3    H176606   1.982   0.087  13.151  1.7127 -0.0714  2.4356
18397TIP3    H276607   1.966   0.186  13.038 -2.8062 -2.1566  1.0375
18398TIP3   OH276608   3.781   3.196   4.607  0.0952  0.2100 -0.4197
18398TIP3    H176609   3.839   3.126   4.636 -1.3862 -0.2137  1.7300
18398TIP3    H276610   3.840   3.264   4.575  1.6463 -1.1389 -0.5614
18399TIP3   OH276611   6.125   0.627   4.512 -0.7825 -0.2153 -0.4323
18399TIP3    H176612   6.191   0.655   4.576 -0.9198 -1.4384  0.2615
18399TIP3    H276613   6.126   0.696   4.446  0.6460  0.1768 -0.0356
18400TIP3   OH276614   0.574   5.323  16.050  0.0524  0.7517 -0.0327
18400TIP3    H176615   0.586   5.294  16.141 -0.7631  0.3587 -0.0406
18400TIP3    H276616   0.551   5.416  16.058 -0.0838  0.7023  0.1665
18401TIP3   OH276617   1.989   0.814   4.518  0.4805  0.2465 -0.9139
18401TIP3    H176618   2.035   0.890   4.481  1.1675 -0.0009 -0.5870
18401TIP3    H276619   2.019   0.740   4.466  0.6254  0.0506 -0.5561
18402TIP3   OH276620   5.707   2.005   2.907  0.0272 -0.1068 -0.3564
18402TIP3    H176621   5.658   2.060   2.847  3.2556  0.8378 -2.3629
18402TIP3    H276622   5.721   1.923   2.859 -0.9928 -1.0407  0.8698
18403TIP3   OH276623   3.095   3.123  15.864 -0.0039 -0.2862 -0.1214
18403TIP3    H176624   3.090   3.027  15.855 -0.9944 -0.0824 -2.5795
18403TIP3    H276625   3.014   3.147  15.909  0.7918 -0.6420  1.5888
18404TIP3   OH276626   3.087   2.335  12.172  0.2730 -0.2206 -0.3538
18404TIP3    H176627   3.001   2.310  12.204  0.4552  0.6934  0.9105
18404TIP3    H276628   3.070   2.402  12.106  0.0305  1.4100  1.2700
18405TIP3   OH276629   6.305   0.743  15.482  0.2274  0.4767 -0.1896
18405TIP3    H176630   6.241   0.756  15.411  0.8409 -0.0898 -0.8648
18405TIP3    H276631   6.366   0.816  15.472  0.2441  0.4662 -0.1658
18406TIP3   OH276632   3.510   1.205   6.117  0.5550  0.0894 -0.4355
18406TIP3    H176633   3.545   1.232   6.202 -1.5549 -0.1365  0.5656
18406TIP3    H276634   3.529   1.111   6.112  1.3450  0.2460 -0.5866
18407TIP3   OH276635   4.240   6.752  13.866 -0.1991 -0.1657  0.3680
18407TIP3    H176636   4.188   6.700  13.927 -0.6452 -1.6698 -1.2290
18407TIP3    H276637   4.175   6.800  13.814  0.1189  0.1555  0.2628
18408TIP3   OH276638   2.558   4.315  16.089  0.3130  0.0529 -0.3341
18408TIP3    H176639   2.594   4.237  16.132 -0.3219  0.0874  0.2853
18408TIP3    H276640   2.560   4.294  15.996  3.5672  0.7386 -0.5307
18409TIP3   OH276641   2.450   0.272   0.174 -0.2954 -0.5067  0.5526
18409TIP3    H176642   2.520   0.230   0.125 -1.1463 -0.3948 -0.8172
18409TIP3    H276643   2.490   0.349   0.214  0.6070 -1.0578  0.7474
18410TIP3   OH276644   6.235   5.976   4.416 -0.3649 -0.0078 -0.2303
18410TIP3    H176645   6.291   6.017   4.482  0.5079 -0.9539 -0.3537
18410TIP3    H276646   6.162   5.940   4.467  0.9150 -1.8153  0.4589
18411TIP3   OH276647   4.163   2.073  17.240  0.4382 -0.0617 -0.3684
18411TIP3    H176648   4.257   2.061  17.225  0.1291 -1.7465 -1.1496
18411TIP3    H276649   4.122   2.051  17.157 -0.6167  1.6245 -0.3318
18412TIP3   OH276650   4.863   4.914  12.449 -0.1543  0.0052 -0.4380
18412TIP3    H176651   4.853   5.008  12.437  0.2475 -0.1412 -2.0708
18412TIP3    H276652   4.956   4.903  12.470  0.0916 -0.1283 -1.5416
18413TIP3   OH276653   2.161   2.295   0.331 -0.1361 -0.2849  0.7339
18413TIP3    H176654   2.186   2.266   0.243  0.4237 -2.4918  1.5657
18413TIP3    H276655   2.068   2.315   0.324 -0.2359 -1.0216 -0.2295
18414TIP3   OH276656   3.417   3.351  14.555  0.0354  0.4634 -0.1005
18414TIP3    H176657   3.475   3.311  14.619 -1.0455  0.6546  1.0535
18414TIP3    H276658   3.329   3.324  14.582 -0.3851 -0.8011 -2.4825
18415TIP3   OH276659   5.448   6.265   2.199 -0.4906  0.6651 -0.0028
18415TIP3    H176660   5.437   6.306   2.113  0.6525  3.7785  1.1979
18415TIP3    H276661   5.360   6.264   2.237 -1.0604 -1.0129 -1.2221
18416TIP3   OH276662   2.642   2.355  14.973  0.1149  0.2809  0.3146
18416TIP3    H176663   2.609   2.411  14.903 -0.9873  0.4194  0.9254
18416TIP3    H276664   2.661   2.272  14.931 -1.9069 -0.0980  0.0957
18417TIP3   OH276665   2.984   6.697  12.141  0.1432  0.6995 -0.1553
18417TIP3    H176666   2.971   6.628  12.206 -0.0086 -0.7668 -1.6707
18417TIP3    H276667   2.898   6.737  12.131 -0.1921 -0.0869 -0.5321
18418TIP3   OH276668   1.813   4.850   3.864  0.9317 -0.6021 -0.4320
18418TIP3    H176669   1.857   4.767   3.880 -0.2598 -1.1300  0.2348
18418TIP3    H276670   1.722   4.835   3.890  0.9509  1.2977  1.0040
18419TIP3   OH276671   3.078   6.403   0.245  0.8255  0.0104 -0.3054
18419TIP3    H176672   3.145   6.471   0.252  0.5753  0.1516  0.7560
18419TIP3    H276673   3.031   6.426   0.165 -0.4573  2.2037  0.9787
18420TIP3   OH276674   6.369   2.180   5.738 -0.1302 -0.4720 -0.1408
18420TIP3    H176675   6.291   2.187   5.794 -1.4218  0.9841 -1.9568
18420TIP3    H276676   6.434   2.235   5.781 -0.3642 -1.0161  0.9630
18421TIP3   OH276677   5.331   4.141   3.341 -0.0753  0.6543  0.0360
18421TIP3    H176678   5.264   4.097   3.393 -0.2788  0.0886 -0.6867
18421TIP3    H276679   5.346   4.224   3.386  0.8945 -0.4608  1.8920
18422TIP3   OH276680   0.305   0.903   3.275  0.4214 -0.0396 -0.3713
18422TIP3    H176681   0.342   0.978   3.229 -0.7941  0.6657 -0.2589
18422TIP3    H276682   0.288   0.935   3.364  0.8157 -0.7584 -0.0248
18423TIP3   OH276683   6.212   0.560   3.351 -0.0266 -0.2433 -0.4102
18423TIP3    H176684   6.232   0.526   3.264  0.0526 -0.8679 -0.1480
18423TIP3    H276685   6.156   0.495   3.391  1.7439 -1.0856  0.8385
18424TIP3   OH276686   0.193   6.497  13.598 -0.2329  0.0375 -0.2930
18424TIP3    H176687   0.260   6.531  13.539  1.7996 -0.3484  1.6529
18424TIP3    H276688   0.174   6.409  13.565  3.2294 -1.4740  1.2577
18425TIP3   OH276689   4.735   6.600   6.750 -0.0468 -0.0993 -0.5906
18425TIP3    H176690   4.738   6.688   6.787 -0.3646  0.1324 -1.0959
18425TIP3    H276691   4.815   6.593   6.698 -0.3618  0.1547 -1.1169
18426TIP3   OH276692   0.103   4.562   1.578 -0.5818 -0.4690 -0.4249
18426TIP3    H176693   0.091   4.621   1.652  1.0497 -2.0512  1.1903
18426TIP3    H276694   0.044   4.488   1.596  0.7640 -1.4654  0.0128
18427TIP3   OH276695   1.922   2.229  15.969 -0.0445  0.0953 -0.3426
18427TIP3    H176696   1.879   2.258  16.049  3.7384  1.6882  1.3347
18427TIP3    H276697   1.967   2.148  15.993  1.8961  1.0733 -0.4637
18428TIP3   OH276698   4.880   6.024   0.261 -0.2046  0.3894 -0.4435
18428TIP3    H176699   4.789   6.003   0.281 -0.0363  0.6174  0.6598
18428TIP3    H276700   4.887   6.118   0.277  0.3589  0.2658  0.1066
18429TIP3   OH276701   4.007   2.899   5.400 -0.2609  0.4902  0.2352
18429TIP3    H176702   4.004   2.993   5.419 -0.2618  1.2269 -2.8482
18429TIP3    H276703   4.079   2.890   5.338 -1.0601 -1.3533 -0.4907
18430TIP3   OH276704   4.955   2.802  16.392 -0.4305  0.3428 -0.3306
18430TIP3    H176705   4.949   2.720  16.342 -0.1543 -0.4304  0.8590
18430TIP3    H276706   5.049   2.817  16.401 -0.3184 -1.2724  2.5963
18431TIP3   OH276707   1.134   1.756  13.968 -0.6074  0.0920  0.2938
18431TIP3    H176708   1.212   1.775  14.020 -0.4884  1.7539 -0.4394
18431TIP3    H276709   1.062   1.761  14.031 -0.0695 -3.3407  1.3980
18432TIP3   OH276710   4.166   2.472   0.329 -1.0162  0.0705 -0.9375
18432TIP3    H176711   4.179   2.505   0.418  1.8293  0.1214 -1.3100
18432TIP3    H276712   4.073   2.490   0.311 -1.5751  0.4479  1.8231
18433TIP3   OH276713   6.513   1.370  14.648 -0.6705  0.2725  0.5336
18433TIP3    H176714   6.605   1.372  14.620 -0.8692  1.7949 -0.1069
18433TIP3    H276715   6.503   1.285  14.689  0.9010 -0.1343  0.1614
18434TIP3   OH276716   2.538   6.363  13.268  0.5499 -0.1236 -0.2454
18434TIP3    H176717   2.473   6.321  13.211  1.1991  0.1432 -1.2142
18434TIP3    H276718   2.621   6.321  13.245  0.6158 -1.1097  1.6210
18435TIP3   OH276719   6.529   2.606   6.778 -0.1378 -0.6822  0.3633
18435TIP3    H176720   6.435   2.590   6.779 -0.3299  0.4112  0.3537
18435TIP3    H276721   6.556   2.585   6.689 -0.6436  0.4591 -0.0770
18436TIP3   OH276722   2.040   6.684  12.790  0.5920  0.2748 -0.3483
18436TIP3    H176723   2.041   6.637  12.707  1.5194  1.3315 -0.9720
18436TIP3    H276724   2.066   6.619  12.855  1.4423 -0.1824 -1.1259
18437TIP3   OH276725   6.473   1.016  14.547  0.1452 -0.4193  0.1153
18437TIP3    H176726   6.480   1.079  14.617  0.4754 -1.5803  1.1604
18437TIP3    H276727   6.400   1.048  14.493  1.3063  1.6863 -0.3256
18438TIP3   OH276728   5.814   5.345   2.572 -0.0482 -0.1253 -0.0533
18438TIP3    H176729   5.889   5.381   2.525 -0.0588  1.1520  0.8844
18438TIP3    H276730   5.740   5.399   2.545 -0.3822 -0.4983  0.0974
18439TIP3   OH276731   1.335   5.392  16.881  0.1290 -0.1840  0.1162
18439TIP3    H176732   1.307   5.304  16.854 -0.5400  0.1252 -0.2122
18439TIP3    H276733   1.254   5.438  16.902  0.2114  1.1609 -2.1946
18440TIP3   OH276734   1.406   5.102  16.467  0.3043  0.7959  0.0261
18440TIP3    H176735   1.374   5.014  16.485 -1.1431  1.3823  0.5197
18440TIP3    H276736   1.499   5.091  16.448 -0.1581 -1.0151 -1.4627
18441TIP3   OH276737   4.914   2.450   5.696  0.5258  0.2161  0.1650
18441TIP3    H176738   4.916   2.431   5.790 -1.3729 -0.2320  0.1472
18441TIP3    H276739   5.007   2.456   5.672  1.0960 -1.0359  1.7941
18442TIP3   OH276740   6.678   2.091   0.001  0.4372  0.4047 -0.0680
18442TIP3    H176741   6.609   2.126   0.057 -2.8781 -2.8617 -1.6894
18442TIP3    H276742   6.658   2.124  -0.086  2.9968  1.9675 -0.1783
18443TIP3   OH276743   5.944   1.022  11.178  0.5310  0.3237  0.3497
18443TIP3    H176744   6.023   0.985  11.139  0.8499  2.9444 -1.7480
18443TIP3    H276745   5.876   1.010  11.111  0.0304  1.1713  0.6929
18444TIP3   OH276746   3.442   3.363  13.806  0.2945  0.0863  0.5377
18444TIP3    H176747   3.494   3.442  13.821 -0.0909  0.3994  0.2218
18444TIP3    H276748   3.365   3.373  13.862  0.2254 -0.0480  0.4681
18445TIP3   OH276749   0.373   0.369  13.672  0.1567 -0.1830  0.3028
18445TIP3    H176750   0.444   0.351  13.610 -0.7756 -1.6180 -0.3810
18445TIP3    H276751   0.396   0.317  13.749 -0.6188 -1.4211 -0.2786
18446TIP3   OH276752   0.848   6.170  15.950 -0.4084  0.1860  0.2338
18446TIP3    H176753   0.775   6.157  16.011 -0.4253 -1.2104 -0.0543
18446TIP3    H276754   0.887   6.083  15.940  2.4115  1.1519  1.7212
18447TIP3   OH276755   4.475   3.985  15.611  0.6324  0.0558  0.7264
18447TIP3    H176756   4.431   3.901  15.597  1.3228  0.2178 -3.5684
18447TIP3    H276757   4.407   4.050  15.594  1.0768  0.3230 -0.0538
18448TIP3   OH276758   3.107   2.542  15.777 -0.0987 -0.5766 -0.2905
18448TIP3    H176759   3.157   2.536  15.858 -0.5519  0.9776  0.1432
18448TIP3    H276760   3.162   2.499  15.711  1.1931 -0.0927  0.4388
18449TIP3   OH276761   1.216   0.152   3.538  0.3351 -0.0426  0.2810
18449TIP3    H176762   1.182   0.114   3.457 -0.2784  1.4057 -0.1699
18449TIP3    H276763   1.289   0.208   3.511  1.5662 -1.2388  0.9894
18450TIP3   OH276764   2.831   6.395   1.276 -0.2371 -0.7088 -0.1971
18450TIP3    H176765   2.754   6.407   1.220 -0.1758  4.7773  0.3781
18450TIP3    H276766   2.894   6.459   1.244  1.3407 -0.0602  3.6778
18451TIP3   OH276767   2.082   3.763   1.904  0.4067  0.3529 -0.3129
18451TIP3    H176768   2.138   3.791   1.832 -0.6628  1.4682 -0.7499
18451TIP3    H276769   1.995   3.755   1.865  0.2264 -1.3477  0.3496
18452TIP3   OH276770   5.459   0.227   4.504 -0.0069  0.0916  0.6486
18452TIP3    H176771   5.546   0.267   4.498  0.2843 -0.6945 -1.0692
18452TIP3    H276772   5.469   0.158   4.569  0.6837 -0.0170  0.4371
18453TIP3   OH276773   4.267   2.469   0.073 -0.1074  0.5355  0.1035
18453TIP3    H176774   4.211   2.474   0.150  0.5720  2.2719  0.5192
18453TIP3    H276775   4.302   2.557   0.062 -0.0616  0.3082 -2.1087
18454TIP3   OH276776   6.019   0.030  10.458  0.0649  0.2807  0.0865
18454TIP3    H176777   5.986   0.071  10.378 -0.9377 -0.8840 -0.1226
18454TIP3    H276778   5.974   0.077  10.529  0.0699  0.5472 -0.0855
18455TIP3   OH276779   3.037   0.694   5.617 -0.2636 -0.7247  0.0986
18455TIP3    H176780   3.131   0.712   5.607  0.0389 -2.4198 -0.3598
18455TIP3    H276781   2.999   0.779   5.637  1.1400  0.2882 -1.3048
18456TIP3   OH276782   4.499   2.187   0.842  0.4395 -0.2608 -0.0144
18456TIP3    H176783   4.529   2.098   0.826  0.3516 -0.2722 -0.1171
18456TIP3    H276784   4.548   2.241   0.779  0.6480 -0.2088  0.1908
18457TIP3   OH276785   2.390   6.321  14.287 -0.6201  0.5738  0.3948
18457TIP3    H176786   2.380   6.299  14.380 -0.8629 -0.5164  0.1323
18457TIP3    H276787   2.304   6.356  14.262 -0.1668  2.0630  0.8712
18458TIP3   OH276788   0.142   1.273  13.799  0.1001 -0.3524 -0.5154
18458TIP3    H176789   0.138   1.240  13.889 -0.0174 -0.3677 -0.5274
18458TIP3    H276790   0.225   1.320  13.795 -0.8979  1.5558  0.2460
18459TIP3   OH276791   5.890   5.330  12.539 -0.0538 -0.2665  0.4156
18459TIP3    H176792   5.906   5.237  12.553  1.2034  0.2387  3.2099
18459TIP3    H276793   5.968   5.362  12.495 -0.1491 -0.4168  0.1417
18460TIP3   OH276794   5.981   1.025   6.598 -0.3294 -0.0409 -0.7845
18460TIP3    H176795   5.913   1.083   6.563  0.7421  0.2831 -2.4432
18460TIP3    H276796   6.062   1.055   6.556  0.8138 -0.5777  0.9478
18461TIP3   OH276797   3.667   5.575   0.418  0.0728 -0.2273 -0.9178
18461TIP3    H176798   3.614   5.579   0.498 -0.5421  0.5250 -1.3483
18461TIP3    H276799   3.603   5.583   0.347  0.3804 -2.8982 -1.5826
18462TIP3   OH276800   5.926   3.755   3.882  0.0989 -0.1866 -0.3470
18462TIP3    H176801   5.866   3.778   3.811  2.4909 -0.2797 -2.5455
18462TIP3    H276802   5.955   3.839   3.918 -0.1288 -0.1009 -0.3645
18463TIP3   OH276803   4.955   0.823   3.029  0.6396  0.3409  0.0502
18463TIP3    H176804   4.981   0.907   2.990  1.4303  0.1938  0.2366
18463TIP3    H276805   4.941   0.766   2.953 -1.3901  1.0205 -0.1561
18464TIP3   OH276806   2.887   4.667   2.608 -0.5346  0.0932  0.2355
18464TIP3    H176807   2.887   4.724   2.685  0.5328 -0.9021  0.9966
18464TIP3    H276808   2.796   4.637   2.601 -0.6858  0.3547  0.9861
18465TIP3   OH276809   5.312   0.514   3.318  0.3302  0.1782 -0.3946
18465TIP3    H176810   5.372   0.520   3.392 -1.3998  3.6164  0.9520
18465TIP3    H276811   5.330   0.592   3.266 -2.3358  0.9444 -0.3501
18466TIP3   OH276812   5.388   0.314  12.297 -0.7317  0.2384 -0.3763
18466TIP3    H176813   5.315   0.337  12.240 -0.0126 -0.3982 -1.5725
18466TIP3    H276814   5.397   0.390  12.356 -1.9839  0.5551 -0.5726
18467TIP3   OH276815   5.640   2.349   4.155 -0.7898  0.8007 -0.0669
18467TIP3    H176816   5.717   2.362   4.211  0.1163  0.7289 -1.2417
18467TIP3    H276817   5.593   2.432   4.158  0.0545  1.3084 -0.3550
18468TIP3   OH276818   1.205   3.293  15.974 -0.0722  0.3371 -0.3022
18468TIP3    H176819   1.196   3.319  16.066 -1.5206 -0.3560 -0.2093
18468TIP3    H276820   1.221   3.199  15.977 -0.3340  0.2755 -0.7511
18469TIP3   OH276821   5.199   5.787  12.649 -0.4540 -0.6357 -0.0854
18469TIP3    H176822   5.219   5.711  12.595  1.3617 -0.1742 -0.1397
18469TIP3    H276823   5.130   5.758  12.708 -0.4174 -2.0464 -0.7133
18470TIP3   OH276824   5.788   1.529   6.520 -0.3962  0.6425 -0.1145
18470TIP3    H176825   5.795   1.608   6.572  0.4026 -0.3582  1.3727
18470TIP3    H276826   5.836   1.549   6.439  0.8499  1.2936  0.7433
18471TIP3   OH276827   5.516   0.123  15.947  0.1184  0.4591  0.0289
18471TIP3    H176828   5.594   0.088  15.990  0.5453  0.0461 -1.0515
18471TIP3    H276829   5.447   0.116  16.013  1.1316  1.4667  1.2428
18472TIP3   OH276830   4.364   5.385  14.079 -0.1745  0.1937  0.1905
18472TIP3    H176831   4.436   5.423  14.030 -0.9270  0.2808 -0.8751
18472TIP3    H276832   4.285   5.417  14.035 -0.8491 -1.0394  0.4555
18473TIP3   OH276833   0.632   1.904  15.195  0.6667 -0.2094  0.5347
18473TIP3    H176834   0.580   1.971  15.239  2.2578 -0.0155  2.2464
18473TIP3    H276835   0.570   1.862  15.135 -0.7544  1.7367  0.5448
18474TIP3   OH276836   6.338   3.867  14.969 -0.5169 -0.3024  0.0061
18474TIP3    H176837   6.334   3.895  14.878 -0.5735 -1.0022 -0.2163
18474TIP3    H276838   6.395   3.790  14.968 -0.0352  0.0314  0.6572
18475TIP3   OH276839   2.084   3.842   5.921 -0.3164 -0.5574 -0.2782
18475TIP3    H176840   2.059   3.797   5.840  0.2825  0.7559 -1.2279
18475TIP3    H276841   2.063   3.934   5.905 -0.4538 -0.3089  1.1817
18476TIP3   OH276842   6.183   4.317   6.228 -0.4037  0.8927  0.1377
18476TIP3    H176843   6.180   4.407   6.260 -2.7225  0.6854  0.7006
18476TIP3    H276844   6.212   4.265   6.303 -0.3001  1.0327  0.1940
18477TIP3   OH276845   5.286   4.315  16.395 -0.1827  0.0427 -0.2671
18477TIP3    H176846   5.300   4.346  16.484  0.1378 -1.5838  0.2888
18477TIP3    H276847   5.319   4.225  16.395 -1.4108 -0.4654 -1.6649
18478TIP3   OH276848   1.374   6.151  15.857  0.2112  0.1206 -0.4407
18478TIP3    H176849   1.334   6.149  15.944 -2.6243  0.0059 -1.6386
18478TIP3    H276850   1.427   6.232  15.856  2.2955 -1.0679  2.0875
18479TIP3   OH276851   3.646   5.295   0.443 -0.3768  0.1886 -0.0310
18479TIP3    H176852   3.589   5.273   0.518  2.9241 -1.3514  2.2979
18479TIP3    H276853   3.657   5.390   0.449 -2.1926  0.4419 -0.2012
18480TIP3   OH276854   4.375   4.662   0.630 -0.3540  0.4076 -0.3667
18480TIP3    H176855   4.322   4.586   0.652  0.9380 -0.0313  1.5590
18480TIP3    H276856   4.340   4.732   0.685  0.6555  0.2425  0.5389
18481TIP3   OH276857   3.290   3.733  12.406 -1.0334  0.3425  1.1481
18481TIP3    H176858   3.334   3.818  12.404  1.5329 -0.8591 -1.3387
18481TIP3    H276859   3.267   3.716  12.315 -2.4701 -1.1999  1.7430
18482TIP3   OH276860   5.344   5.668   3.539 -0.3553 -0.1085 -0.0548
18482TIP3    H176861   5.252   5.648   3.519 -0.8397  1.2422  0.6798
18482TIP3    H276862   5.350   5.764   3.531  0.9393 -0.1548  0.1206
18483TIP3   OH276863   3.892   5.084   5.005 -0.2098 -0.3389 -0.7684
18483TIP3    H176864   3.898   5.141   5.082 -1.0465 -1.2349  0.0014
18483TIP3    H276865   3.960   5.115   4.946 -0.6591  1.4636 -0.3935
18484TIP3   OH276866   5.791   3.394  13.579  0.5078  0.0216  0.4439
18484TIP3    H176867   5.862   3.340  13.615 -0.8867 -0.5773  2.4733
18484TIP3    H276868   5.790   3.373  13.486  1.2191 -2.0563  0.8487
18485TIP3   OH276869   5.130   3.303  13.992 -0.8181 -0.5358 -0.0571
18485TIP3    H176870   5.101   3.236  14.054 -0.6107 -1.1020 -0.5590
18485TIP3    H276871   5.051   3.326  13.943 -1.4029  1.2502  1.6047
18486TIP3   OH276872   2.876   4.998   2.671  0.8142  0.0434  0.2586
18486TIP3    H176873   2.862   4.932   2.739 -0.1921 -1.6949 -1.5351
18486TIP3    H276874   2.952   4.966   2.622 -0.6254 -0.6959 -1.5891
18487TIP3   OH276875   4.352   2.193   4.459 -0.3035  0.2012  0.5280
18487TIP3    H176876   4.393   2.264   4.409 -0.5626  0.3651  0.5486
18487TIP3    H276877   4.356   2.117   4.401  1.4227 -0.1916  1.0832
18488TIP3   OH276878   5.739   2.634   1.102  0.4147 -0.0734 -0.2638
18488TIP3    H176879   5.788   2.601   1.177 -0.2573 -0.2327  0.1207
18488TIP3    H276880   5.670   2.569   1.088 -1.9250  1.8199  1.4996
18489TIP3   OH276881   1.311   1.754  12.441  0.0834 -0.5092 -0.7256
18489TIP3    H176882   1.396   1.794  12.424  0.0205  0.0574  0.2061
18489TIP3    H276883   1.320   1.664  12.412  2.0543 -1.4205  2.2235
18490TIP3   OH276884   2.331   6.163   3.467  0.0609 -0.0695  0.5050
18490TIP3    H176885   2.365   6.238   3.516  1.1536  0.8248 -1.5253
18490TIP3    H276886   2.388   6.090   3.492  0.5624  0.3570  0.6238
18491TIP3   OH276887   3.257   5.756   2.434 -0.1159  0.5580  0.4298
18491TIP3    H176888   3.302   5.684   2.390 -0.1194  0.9680 -0.2517
18491TIP3    H276889   3.326   5.804   2.480 -0.0169  0.5254  0.3129
18492TIP3   OH276890   1.476   5.103  15.174 -0.0171  0.4653  0.0043
18492TIP3    H176891   1.567   5.077  15.161  0.7315  0.6954  3.6004
18492TIP3    H276892   1.425   5.027  15.147  1.2825  0.0014 -1.2748
18493TIP3   OH276893   3.135   2.880   5.637  0.0152 -0.0588 -0.0959
18493TIP3    H176894   3.160   2.907   5.725 -2.5572 -1.6026  1.2473
18493TIP3    H276895   3.097   2.958   5.597  0.8301  0.5473  0.2867
18494TIP3   OH276896   3.423   5.472   2.556  0.8390  0.3720 -0.2783
18494TIP3    H176897   3.504   5.502   2.596  1.5132 -0.8537 -0.6599
18494TIP3    H276898   3.445   5.460   2.464  0.1414  0.3065 -0.4423
18495TIP3   OH276899   5.206   3.207   4.045 -0.1685  0.3922 -0.0628
18495TIP3    H176900   5.145   3.204   4.119  0.2429  0.8619  0.3031
18495TIP3    H276901   5.278   3.151   4.071  0.4944  1.4184  0.3798
18496TIP3   OH276902   6.707   5.374   5.596 -0.7111 -0.1104  0.7686
18496TIP3    H176903   6.742   5.321   5.668 -0.0887 -0.7207  0.0471
18496TIP3    H276904   6.765   5.449   5.591 -0.6986 -0.1149  0.8485
18497TIP3   OH276905   1.947   6.275  15.014 -0.3166  0.4520  0.0584
18497TIP3    H176906   1.959   6.206  15.078 -1.9598  0.5590  0.5297
18497TIP3    H276907   1.887   6.237  14.949 -0.5809  1.1429 -0.1132
18498TIP3   OH276908   1.549   4.298   6.913 -0.2518 -0.3429 -0.7037
18498TIP3    H176909   1.597   4.380   6.907  0.3281 -0.6296 -0.0984
18498TIP3    H276910   1.613   4.230   6.890  0.0713 -0.8471  1.4631
18499TIP3   OH276911   1.496   1.373   0.628 -0.1126 -0.1441 -0.0174
18499TIP3    H176912   1.434   1.362   0.555 -1.4291  0.7044  0.9216
18499TIP3    H276913   1.540   1.289   0.634 -1.2320 -0.8165 -0.6935
18500TIP3   OH276914   5.654   2.103   0.142 -0.1071 -0.3552  0.8628
18500TIP3    H176915   5.680   2.183   0.096 -1.4865 -0.0564  0.5536
18500TIP3    H276916   5.626   2.134   0.229  0.2065 -0.6208  1.0609
18501TIP3   OH276917   2.043   2.122  16.493  0.3191  0.3593  0.1828
18501TIP3    H176918   2.098   2.164  16.559  0.5894 -0.0147  0.2002
18501TIP3    H276919   2.073   2.031  16.492  0.2598  0.3429 -0.3867
18502TIP3   OH276920   5.741   2.900  11.779  0.3068 -0.0297  0.5590
18502TIP3    H176921   5.823   2.854  11.763 -0.4096 -0.9024 -0.8320
18502TIP3    H276922   5.720   2.940  11.694 -1.2033 -0.6718  0.6119
18503TIP3   OH276923   3.947   3.925   3.863 -0.0595 -0.4121 -0.2286
18503TIP3    H176924   3.955   3.830   3.874 -0.6914 -0.3779  0.6718
18503TIP3    H276925   4.029   3.960   3.899 -0.3741 -0.5585  0.6649
18504TIP3   OH276926   3.852   5.926   2.545 -0.5759 -0.4209 -0.0323
18504TIP3    H176927   3.932   5.901   2.592  0.5176  1.5944 -0.7270
18504TIP3    H276928   3.793   5.958   2.613  0.4499  1.0889  0.2001
18505TIP3   OH276929   2.254   6.528  13.979  0.4385  0.8796  0.0475
18505TIP3    H176930   2.254   6.608  13.926 -1.3867 -0.7051 -2.6537
18505TIP3    H276931   2.334   6.482  13.954  0.6507  1.1081  0.3097
18506TIP3   OH276932   6.062   0.160  14.299  0.1545  0.3503 -0.5488
18506TIP3    H176933   6.013   0.216  14.239 -0.2219  0.4519 -0.1478
18506TIP3    H276934   5.996   0.103  14.338  0.6291 -0.9463 -1.5536
18507TIP3   OH276935   6.337   6.365  14.693  0.2269 -0.0681 -0.0127
18507TIP3    H176936   6.403   6.360  14.762  1.2986 -1.4561 -1.0738
18507TIP3    H276937   6.364   6.439  14.639  1.5838 -1.2488 -1.0330
18508TIP3   OH276938   1.515   2.623  15.285 -0.2606 -0.4235 -0.6163
18508TIP3    H176939   1.431   2.628  15.332 -0.6293 -3.1188 -0.8543
18508TIP3    H276940   1.574   2.678  15.337 -1.8455  0.5571  0.2429
18509TIP3   OH276941   0.213   6.703  14.424 -0.5069  0.3683  0.1344
18509TIP3    H176942   0.234   6.781  14.476  0.7388  1.5394 -1.9790
18509TIP3    H276943   0.122   6.683  14.447 -0.1565  1.0374  2.4049
18510TIP3   OH276944   0.093   0.768   4.729  0.3920 -0.0827  0.5010
18510TIP3    H176945   0.173   0.794   4.774 -0.5351 -1.4470  3.1740
18510TIP3    H276946   0.023   0.816   4.774 -0.4189  0.5294 -1.2966
18511TIP3   OH276947   3.130   1.143   5.783  0.2293 -0.3010 -1.0624
18511TIP3    H176948   3.225   1.140   5.796  0.0952  0.2114  0.1103
18511TIP3    H276949   3.105   1.231   5.809 -0.6309 -0.5798 -0.9253
18512TIP3   OH276950   3.666   0.917   2.786 -0.1930 -0.1181 -0.1381
18512TIP3    H176951   3.683   0.823   2.789 -0.3527 -0.2280 -1.6645
18512TIP3    H276952   3.705   0.946   2.703 -1.3123  0.9095 -0.3410
18513TIP3   OH276953   5.093   0.611  14.023 -0.0412 -0.1540  0.3293
18513TIP3    H176954   5.180   0.597  13.984  0.6670 -0.0317  1.7971
18513TIP3    H276955   5.108   0.675  14.092 -1.6970  1.4500 -0.6926
18514TIP3   OH276956   0.177   6.273   0.237 -0.0422 -0.4472 -0.1057
18514TIP3    H176957   0.263   6.232   0.234 -0.0105 -0.6103  1.7638
18514TIP3    H276958   0.183   6.337   0.308 -0.1844  2.7014 -2.6970
18515TIP3   OH276959   5.406   2.838   4.381  0.0637 -0.1560  0.1354
18515TIP3    H176960   5.454   2.920   4.396 -0.0968  0.1418 -0.8776
18515TIP3    H276961   5.465   2.769   4.411  0.1569  0.3303  1.1097
18516TIP3   OH276962   6.745   1.330  14.475 -0.2923  0.0480  0.0540
18516TIP3    H176963   6.822   1.383  14.495  0.0147 -0.8889  1.5091
18516TIP3    H276964   6.779   1.241  14.468 -0.7786 -0.0337 -2.4494
18517TIP3   OH276965   2.306   5.579   1.475 -0.5223  0.3526  0.3132
18517TIP3    H176966   2.358   5.652   1.510  0.6457 -0.6872  0.7944
18517TIP3    H276967   2.370   5.523   1.431 -1.3408 -0.6171  0.3353
18518TIP3   OH276968   0.044   6.729   1.125 -0.2955  0.1333 -0.1533
18518TIP3    H176969   0.019   6.672   1.198 -1.4789 -0.0529 -0.6795
18518TIP3    H276970   0.138   6.713   1.113 -0.5153 -1.4086 -0.0248
18519TIP3   OH276971   4.419   4.025   3.217 -0.2161 -0.5124 -0.3570
18519TIP3    H176972   4.393   4.008   3.127 -0.3838  1.4565 -0.7197
18519TIP3    H276973   4.383   4.111   3.237 -0.1061 -0.8578  1.5811
18520TIP3   OH276974   5.683   6.575  15.956  0.2074  0.0403 -0.0965
18520TIP3    H176975   5.770   6.598  15.924 -0.1388  2.7309  0.6244
18520TIP3    H276976   5.624   6.606  15.887 -0.2645  0.7088  0.5868
18521TIP3   OH276977   3.681   5.046  14.800 -0.5134  0.2866  0.2578
18521TIP3    H176978   3.607   5.106  14.787 -0.6145 -0.0334 -0.8112
18521TIP3    H276979   3.650   4.963  14.762  0.4360  0.1810 -0.3154
18522TIP3   OH276980   1.167   3.421   0.537  0.0755 -0.1989  0.2102
18522TIP3    H176981   1.187   3.484   0.606  0.6873  1.0810 -1.0707
18522TIP3    H276982   1.107   3.358   0.578 -1.9505  2.1578  1.1129
18523TIP3   OH276983   5.947   3.937   1.156  0.4925  0.1286  0.2255
18523TIP3    H176984   5.999   3.912   1.233  0.1850 -0.4404  0.2542
18523TIP3    H276985   5.919   3.853   1.119  0.1288  0.4205 -0.1535
18524TIP3   OH276986   1.665   6.137  13.518  0.1878  0.1151 -0.1701
18524TIP3    H176987   1.570   6.151  13.522  0.1145  0.0844 -1.3498
18524TIP3    H276988   1.693   6.190  13.443  0.8868 -0.9731 -0.6990
18525TIP3   OH276989   5.897   6.657   0.069  0.7330 -0.3165  0.0493
18525TIP3    H176990   5.905   6.689  -0.021 -2.4148  3.8679  0.9209
18525TIP3    H276991   5.957   6.712   0.120 -0.2674  0.0443  0.8864
18526TIP3   OH276992   5.093   1.052   4.595  0.3822 -0.7788 -0.4048
18526TIP3    H176993   5.130   0.969   4.625  0.0631 -1.4232 -1.7095
18526TIP3    H276994   5.157   1.118   4.622 -0.0348 -1.2380  1.9105
18527TIP3   OH276995   0.585   4.294  12.706  0.1213 -0.7498 -0.3238
18527TIP3    H176996   0.648   4.333  12.645  0.4525 -0.8816 -0.0672
18527TIP3    H276997   0.524   4.247  12.649 -0.5919  0.5389 -0.6869
18528TIP3   OH276998   4.047   6.577   4.553 -0.0121  0.3975  0.1171
18528TIP3    H176999   3.958   6.598   4.525  0.3579 -0.7444 -2.1600
18528TIP3    H277000   4.036   6.523   4.631 -1.2143  1.6237  0.8345
18529TIP3   OH277001   3.415   2.185   4.537 -0.4398  0.4397  0.2550
18529TIP3    H177002   3.510   2.194   4.543 -0.6424  2.8467  1.1952
18529TIP3    H277003   3.400   2.142   4.453  1.4504  0.8836 -0.3541
18530TIP3   OH277004   1.206   0.001   4.586  0.0708  0.5929  0.0952
18530TIP3    H177005   1.178  -0.089   4.603  0.7596  0.2827 -0.3324
18530TIP3    H277006   1.260  -0.006   4.507 -1.3410  1.6674 -1.0146
18531TIP3   OH277007   5.208   4.710  15.811 -0.2715 -0.2833 -0.3619
18531TIP3    H177008   5.154   4.753  15.877 -0.5556  1.3636 -1.6114
18531TIP3    H277009   5.236   4.780  15.752  2.0072 -1.3156 -0.6231
18532TIP3   OH277010   4.127   0.090   4.620 -0.2310 -0.1403  0.1022
18532TIP3    H177011   4.201   0.103   4.680 -0.0757 -0.0270 -0.1107
18532TIP3    H277012   4.091   0.004   4.644 -2.0416  1.1034  2.3833
18533TIP3   OH277013   2.852   3.094   1.905  0.0091 -0.2093 -0.2210
18533TIP3    H177014   2.825   3.152   1.833 -0.1390  0.8692  0.6831
18533TIP3    H277015   2.779   3.033   1.914 -0.6236  0.5585 -0.0412
18534TIP3   OH277016   1.857   5.074   1.827  1.1525 -0.7892 -0.1554
18534TIP3    H177017   1.816   5.021   1.894  0.1649 -0.3127 -0.3681
18534TIP3    H277018   1.822   5.041   1.744  1.0365 -0.2453 -0.3287
18535TIP3   OH277019   6.288   0.606  11.535 -0.4275  0.0348  0.6240
18535TIP3    H177020   6.279   0.636  11.444 -0.4705  0.0764  0.6418
18535TIP3    H277021   6.383   0.601  11.548 -0.4218 -0.0830  0.5400
18536TIP3   OH277022   4.404   3.915  13.980 -0.2186  0.6818 -0.1924
18536TIP3    H177023   4.448   3.993  14.012 -1.1100  0.5662  1.4706
18536TIP3    H277024   4.410   3.920  13.885  2.7904  0.9503 -0.0799
18537TIP3   OH277025   6.754   4.194   4.537 -0.1604 -0.5366  0.6229
18537TIP3    H177026   6.815   4.266   4.522  0.7032 -1.5030 -0.7555
18537TIP3    H277027   6.766   4.172   4.630  0.7081  0.0757  0.6669
18538TIP3   OH277028   6.001   5.751   5.653 -0.2764  0.8914  0.2310
18538TIP3    H177029   5.971   5.793   5.572 -1.0562  0.7483  0.4366
18538TIP3    H277030   5.960   5.665   5.651  1.7188 -0.0997 -0.4382
18539TIP3   OH277031   0.912   4.260  15.445 -0.2905 -0.4068 -0.0211
18539TIP3    H177032   0.838   4.229  15.392 -0.7929  2.8872 -1.5207
18539TIP3    H277033   0.888   4.239  15.535 -1.3363 -2.5622 -0.7331
18540TIP3   OH277034   2.466   3.779  14.624 -0.2735  0.3324  0.4097
18540TIP3    H177035   2.403   3.707  14.613 -0.1308  0.3478 -0.6764
18540TIP3    H277036   2.412   3.855  14.647 -0.5608  0.1478  0.3572
18541TIP3   OH277037   0.546   4.626  13.425 -0.1467  0.5325 -0.3613
18541TIP3    H177038   0.632   4.587  13.406  0.4983  1.3825  0.6616
18541TIP3    H277039   0.555   4.662  13.513 -1.4592  0.9374 -0.3685
18542TIP3   OH277040   5.368   6.453  12.453 -0.0292  0.1628 -0.9848
18542TIP3    H177041   5.339   6.480  12.540  1.9459  0.4308 -0.3686
18542TIP3    H277042   5.303   6.387  12.426 -1.1503  0.6885  0.2950
18543TIP3   OH277043   1.088   1.470  13.889 -0.2713 -0.7094 -0.0043
18543TIP3    H177044   1.147   1.395  13.890 -0.9080 -1.4205 -3.3440
18543TIP3    H277045   1.139   1.542  13.927  1.1962 -2.2628  1.0777
18544TIP3   OH277046   6.506   2.257   6.480 -0.1184 -0.2118  0.0062
18544TIP3    H177047   6.534   2.209   6.403 -2.0423 -0.5778 -0.5120
18544TIP3    H277048   6.564   2.227   6.550  1.3002 -0.2709 -1.1471
18545TIP3   OH277049   5.676   2.463  11.822 -0.1648  0.1145 -0.0528
18545TIP3    H177050   5.699   2.523  11.893 -0.8317  1.0468 -0.6002
18545TIP3    H277051   5.735   2.487  11.751 -0.6862  0.3905 -0.3986
18546TIP3   OH277052   1.398   1.833  13.611 -0.0815 -0.0751 -0.3157
18546TIP3    H177053   1.398   1.872  13.698 -1.6546 -0.1631 -0.2438
18546TIP3    H277054   1.327   1.769  13.612  0.9844 -1.3324 -1.1494
18547TIP3   OH277055   2.131   1.021   4.346  0.3003  0.1233  0.5084
18547TIP3    H177056   2.150   0.960   4.275 -1.2763  1.0537 -0.7752
18547TIP3    H277057   2.197   1.090   4.335 -0.5312  0.7645 -0.7190
18548TIP3   OH277058   4.000   5.493   4.349  0.1791 -0.2569 -0.1832
18548TIP3    H177059   3.925   5.498   4.409  0.1568  0.1048 -0.2375
18548TIP3    H277060   4.072   5.463   4.404  0.3456  0.8158  0.2035
18549TIP3   OH277061   6.381   6.606   5.493 -0.0117 -0.1917  0.2261
18549TIP3    H177062   6.406   6.698   5.496  0.3162 -0.2507 -0.5222
18549TIP3    H277063   6.289   6.605   5.522 -0.7927  0.6930 -1.9788
18550TIP3   OH277064   6.746   2.049   5.352  0.0592 -0.0509  0.3800
18550TIP3    H177065   6.745   2.106   5.275 -2.7346 -0.9057 -0.3321
18550TIP3    H277066   6.718   2.105   5.424 -0.7682 -0.0472  0.0647
18551TIP3   OH277067   3.530   6.201   3.070 -0.1578 -0.3029 -0.3035
18551TIP3    H177068   3.568   6.259   3.003  1.9431 -3.4289 -2.0852
18551TIP3    H277069   3.436   6.206   3.055  0.0517  1.5392 -1.3246
18552TIP3   OH277070   2.144   5.103   4.960 -0.4480  0.1573 -0.4372
18552TIP3    H177071   2.236   5.078   4.951 -0.2977  0.1140  0.9181
18552TIP3    H277072   2.125   5.153   4.881  0.4936 -0.5419 -1.1342
18553TIP3   OH277073   4.032   3.895  16.997 -0.3695  0.2070  0.5709
18553TIP3    H177074   4.100   3.958  16.975  0.1674  0.2720  2.2642
18553TIP3    H277075   4.055   3.864  17.085 -2.1069 -0.3325  0.8813
18554TIP3   OH277076   5.435   2.981  16.179 -0.1461 -0.2711  0.2157
18554TIP3    H177077   5.501   2.959  16.246 -0.9093  0.3535  1.2037
18554TIP3    H277078   5.442   3.076  16.170  0.7447 -0.4652 -1.4794
18555TIP3   OH277079   0.009   5.416   5.080 -0.2899 -0.2151  0.0254
18555TIP3    H177080   0.081   5.400   5.141 -0.8915 -2.7959  0.1584
18555TIP3    H277081  -0.059   5.457   5.133  0.3146  0.3842  0.3550
18556TIP3   OH277082   0.045   0.305  13.848 -0.2523  0.9466  0.1138
18556TIP3    H177083  -0.001   0.323  13.766 -1.9448 -1.3544  0.4735
18556TIP3    H277084   0.137   0.303  13.823 -0.7605 -0.3005 -1.9016
18557TIP3   OH277085   2.262   1.669  15.545 -0.5217  0.2270  0.2996
18557TIP3    H177086   2.351   1.690  15.572  0.7940 -2.5843 -1.3016
18557TIP3    H277087   2.221   1.631  15.623 -0.3118  1.4356  1.0166
18558TIP3   OH277088   1.168   3.066  10.607  0.1817  0.4985 -0.4841
18558TIP3    H177089   1.078   3.032  10.606  0.3758 -0.0265 -1.6953
18558TIP3    H277090   1.167   3.139  10.545  0.6228  0.3897 -0.6241
18559TIP3   OH277091   0.790   5.429   3.316  0.4368 -0.6444  0.1880
18559TIP3    H177092   0.695   5.419   3.316  0.4589 -0.8746  0.2442
18559TIP3    H277093   0.823   5.339   3.322  0.6927 -0.8175 -2.6271
18560TIP3   OH277094   3.609   3.954  13.821  0.3198 -0.1762  0.0919
18560TIP3    H177095   3.570   3.869  13.803 -1.2373  0.0816  1.9325
18560TIP3    H277096   3.674   3.966  13.751 -1.7100 -1.3965 -2.1281
18561TIP3   OH277097   1.669   4.098   0.702 -0.1322 -0.1366 -0.0276
18561TIP3    H177098   1.577   4.078   0.682 -0.2517  1.6162 -1.4984
18561TIP3    H277099   1.673   4.194   0.704  1.4751 -0.1880  1.0686
18562TIP3   OH277100   2.265   4.866  10.868  0.2258  0.4277  0.0291
18562TIP3    H177101   2.229   4.840  10.952 -0.4694  2.6444  0.4745
18562TIP3    H277102   2.189   4.892  10.816  0.7207 -0.1336 -1.0170
18563TIP3   OH277103   4.626   2.924   5.740  0.0289 -0.0819 -0.3135
18563TIP3    H177104   4.583   2.964   5.815  0.0979 -0.4598 -0.0658
18563TIP3    H277105   4.708   2.971   5.731  0.4374 -0.6395  0.4250
18564TIP3   OH277106   2.885   0.702   4.095 -0.2060 -0.0023 -0.6254
18564TIP3    H177107   2.805   0.754   4.090 -0.6547 -0.7673 -1.9761
18564TIP3    H277108   2.856   0.612   4.090  0.7259 -0.2997 -0.8864
18565TIP3   OH277109   6.054   5.409  17.371 -0.0089 -0.1846 -1.2225
18565TIP3    H177110   6.075   5.469  17.299  0.8886  0.1076 -0.7418
18565TIP3    H277111   5.986   5.352  17.336 -2.2166  2.2136 -1.1467
18566TIP3   OH277112   2.469   3.084  16.233  0.2388  0.2782  0.6083
18566TIP3    H177113   2.444   3.033  16.309  0.2515 -0.9142 -0.1651
18566TIP3    H277114   2.511   3.021  16.174  0.3248  1.1891 -0.3397
18567TIP3   OH277115   3.436   2.764   4.697 -0.4277 -0.4418  0.0350
18567TIP3    H177116   3.392   2.847   4.715 -1.8041 -1.6197  2.8251
18567TIP3    H277117   3.371   2.712   4.651 -1.2875 -1.4042  2.1853
18568TIP3   OH277118   0.911   2.322   0.402 -0.1424 -0.3658 -0.1306
18568TIP3    H177119   0.931   2.230   0.416 -2.0442 -0.9251 -0.7843
18568TIP3    H277120   0.835   2.322   0.343 -1.0565  1.5659  0.9251
18569TIP3   OH277121   4.232   0.869   1.796  0.1924 -0.0231  0.3765
18569TIP3    H177122   4.279   0.910   1.724  0.2994 -0.3612  0.2575
18569TIP3    H277123   4.300   0.847   1.860  0.1993 -0.5405  0.1904
18570TIP3   OH277124   1.032   0.057  16.394  0.3425  0.1955  0.0312
18570TIP3    H177125   1.106  -0.004  16.396  0.3897  0.2747  1.7902
18570TIP3    H277126   0.968   0.015  16.337  0.6235 -1.2207  0.7126
18571TIP3   OH277127   2.156   5.768  13.536  0.2695 -0.1508 -0.3789
18571TIP3    H177128   2.163   5.697  13.599 -1.0733 -0.4409 -0.5171
18571TIP3    H277129   2.144   5.725  13.452  3.6297  0.2020 -1.1582
18572TIP3   OH277130   5.481   0.563   1.344  0.5261  0.5319  0.2354
18572TIP3    H177131   5.553   0.584   1.404 -0.4970  1.2963  1.2232
18572TIP3    H277132   5.423   0.507   1.395 -0.0535  0.6959 -0.2413
18573TIP3   OH277133   0.476   5.571  12.771  0.4198 -0.1381  0.5092
18573TIP3    H177134   0.442   5.487  12.741 -0.1290  0.1340  0.3625
18573TIP3    H277135   0.516   5.609  12.693 -2.1532  1.1559 -0.2996
18574TIP3   OH277136   2.052   0.806  11.564 -0.0403 -0.3612  0.1276
18574TIP3    H177137   2.065   0.810  11.658 -0.0452  0.9169  0.0972
18574TIP3    H277138   2.127   0.757  11.531 -0.1038 -0.9181  0.7993
18575TIP3   OH277139   0.030   1.182   4.518  0.1920 -0.1609  0.3876
18575TIP3    H177140   0.091   1.181   4.591 -0.0036  0.0552  0.5577
18575TIP3    H277141  -0.009   1.269   4.521 -0.1170 -0.2925  0.2785
18576TIP3   OH277142   4.477   2.047   5.396  0.3150 -0.5584 -0.0362
18576TIP3    H177143   4.437   2.037   5.309 -0.0128  0.6021 -0.0452
18576TIP3    H277144   4.511   2.137   5.396 -0.6072 -0.1733  1.3933
18577TIP3   OH277145   5.766   2.424   2.340  0.4510  0.0856  0.3235
18577TIP3    H177146   5.704   2.377   2.283  0.8947 -2.4034  1.7286
18577TIP3    H277147   5.717   2.499   2.372 -0.2941  0.7409 -2.1166
18578TIP3   OH277148   4.224   4.255   4.718  0.0810  0.3720  0.1881
18578TIP3    H177149   4.176   4.210   4.787  0.8401 -0.3218  0.2838
18578TIP3    H277150   4.285   4.188   4.684  0.1181  0.8690 -0.7490
18579TIP3   OH277151   3.687   1.579  12.703  0.4454 -0.2191 -0.6308
18579TIP3    H177152   3.655   1.524  12.632  0.2569  1.2656 -1.7454
18579TIP3    H277153   3.607   1.615  12.742  0.6136  0.7705 -1.1734
18580TIP3   OH277154   5.577   3.587  15.662  0.1496  0.7381  0.3477
18580TIP3    H177155   5.662   3.629  15.651  1.2767 -0.9379  2.0735
18580TIP3    H277156   5.597   3.498  15.690 -2.1849  0.0669  0.1172
18581TIP3   OH277157   2.447   6.040   6.289  0.2833  0.1576 -0.3614
18581TIP3    H177158   2.378   6.072   6.347  1.4698  1.0519  0.5985
18581TIP3    H277159   2.427   5.947   6.277 -0.7900  0.2885  0.3159
18582TIP3   OH277160   0.368   6.297  16.018 -0.0852 -0.3759  0.1500
18582TIP3    H177161   0.294   6.237  16.027 -1.8905  1.8628  1.2712
18582TIP3    H277162   0.348   6.369  16.077  1.8814  1.4542 -1.2536
18583TIP3   OH277163   5.569   4.794   0.873 -0.5509  0.4644  0.2263
18583TIP3    H177164   5.524   4.864   0.920 -1.7374  0.8451 -1.3613
18583TIP3    H277165   5.662   4.815   0.881 -0.8894  2.3200 -0.3208
18584TIP3   OH277166   5.358   1.116   4.180  0.4782 -0.5909 -0.4982
18584TIP3    H177167   5.421   1.171   4.135  1.0753 -1.1598 -0.3603
18584TIP3    H277168   5.321   1.174   4.248  0.1365  0.0285 -1.1992
18585TIP3   OH277169   0.481   0.559  14.395 -0.1300  0.2777  0.4239
18585TIP3    H177170   0.559   0.526  14.440  1.3678  1.6155 -0.9975
18585TIP3    H277171   0.460   0.641  14.440 -0.5124  0.0825  0.6016
18586TIP3   OH277172   1.019   3.720  12.409 -0.2552 -0.2490  0.2505
18586TIP3    H177173   1.017   3.668  12.330 -2.3818  0.3599 -0.1810
18586TIP3    H277174   1.011   3.657  12.480 -0.7841 -0.6604 -0.1673
18587TIP3   OH277175   4.570   0.160   2.664 -0.3352 -0.4746 -0.2918
18587TIP3    H177176   4.634   0.166   2.735 -1.0537 -2.0623  0.5496
18587TIP3    H277177   4.604   0.219   2.596  0.7872  0.4815  1.0375
18588TIP3   OH277178   4.041   5.995   6.810  0.3855 -0.3271  0.9107
18588TIP3    H177179   3.977   6.042   6.757  3.0546  2.8777  0.1638
18588TIP3    H277180   4.051   6.049   6.889  2.9428  0.0452  0.4376
18589TIP3   OH277181   2.305   5.494  16.277  0.0900 -0.0712 -0.0792
18589TIP3    H177182   2.392   5.458  16.296 -0.1930  0.5664  2.9460
18589TIP3    H277183   2.323   5.575  16.229  1.0494 -0.8511 -1.0933
18590TIP3   OH277184   1.909   6.016   4.407  0.4721  1.1061  0.0783
18590TIP3    H177185   1.946   6.099   4.438  0.0934  1.3915 -0.2270
18590TIP3    H277186   1.833   6.042   4.355  0.2520  0.5566  0.1258
18591TIP3   OH277187   6.731   5.925   1.246  0.3972  0.1169  0.4172
18591TIP3    H177188   6.724   5.844   1.197  0.1485  0.4762 -0.1581
18591TIP3    H277189   6.649   5.932   1.293  0.3002  0.1712  0.2425
18592TIP3   OH277190   1.465   3.856   0.397  0.1586  0.0007  0.1777
18592TIP3    H177191   1.400   3.797   0.359  0.7522  0.1002 -1.0602
18592TIP3    H277192   1.413   3.925   0.439 -0.5465 -1.4191  1.7353
18593TIP3   OH277193   1.358   4.690   4.606  0.4411  0.1451  0.2478
18593TIP3    H177194   1.268   4.670   4.630  0.9162 -1.7117  0.6147
18593TIP3    H277195   1.405   4.691   4.690  0.8196  0.9098  0.0404
18594TIP3   OH277196   1.562   1.272  13.588  0.0972 -0.1898 -0.3491
18594TIP3    H177197   1.504   1.335  13.546 -0.7973 -1.9802 -1.9510
18594TIP3    H277198   1.635   1.261  13.527  2.2269  1.9323  1.5783
18595TIP3   OH277199   1.516   3.051  14.310  0.3545  0.4194 -0.5893
18595TIP3    H177200   1.569   2.974  14.292 -0.6396 -0.3742 -0.2714
18595TIP3    H277201   1.430   3.031  14.273 -0.5546  0.4357  1.3745
18596TIP3   OH277202   1.294   0.927   2.157  0.4345  0.2312 -0.1354
18596TIP3    H177203   1.258   0.995   2.100 -0.2341 -1.3789 -1.7885
18596TIP3    H277204   1.245   0.936   2.239 -1.1395  0.4575 -1.0492
18597TIP3   OH277205   1.013   1.587   2.490 -0.0868  0.0537  0.2390
18597TIP3    H177206   1.001   1.650   2.562 -0.4960  0.2925 -0.0343
18597TIP3    H277207   1.085   1.622   2.438 -0.4100  0.3735  0.0057
18598TIP3   OH277208   0.426   0.906  13.635  0.8350 -0.2901 -0.1170
18598TIP3    H177209   0.369   0.830  13.619  0.6577 -0.5062  1.3597
18598TIP3    H277210   0.457   0.893  13.725  0.6102  1.5217  0.2494
18599TIP3   OH277211   4.726   1.196   0.262 -0.0391 -0.1280 -0.0183
18599TIP3    H177212   4.712   1.227   0.173 -0.0702  1.1323  0.4032
18599TIP3    H277213   4.655   1.134   0.278  0.9445 -1.7389 -1.4470
18600TIP3   OH277214   5.421   6.049   1.215  0.3528  0.2305  0.3687
18600TIP3    H177215   5.349   6.094   1.259  0.6359  1.3060 -0.2400
18600TIP3    H277216   5.440   5.974   1.271 -1.6613 -0.4391  0.2049
18601TIP3   OH277217   0.981   4.755   2.129 -0.1148  0.3079  0.1620
18601TIP3    H177218   0.951   4.781   2.216  2.5497 -1.4330  1.7608
18601TIP3    H277219   1.036   4.828   2.099 -0.8306  0.8000  0.0335
18602TIP3   OH277220   6.378   3.083  17.249 -0.4432  0.5895  0.2715
18602TIP3    H177221   6.443   3.124  17.191 -0.3858 -0.1933 -0.2365
18602TIP3    H277222   6.366   3.147  17.320  1.2444  0.5660  0.6432
18603TIP3   OH277223   0.751   0.555  11.683  0.0694  0.0738 -0.0040
18603TIP3    H177224   0.760   0.532  11.591 -1.0338  1.5636 -0.5229
18603TIP3    H277225   0.773   0.648  11.688  1.2971 -0.2448  1.4619
18604TIP3   OH277226   2.096   4.486   3.608 -0.3351  0.5716  0.5277
18604TIP3    H177227   2.159   4.510   3.676  0.7122  1.1594 -0.6003
18604TIP3    H277228   2.038   4.423   3.650  1.1879 -0.2292  1.5296
18605TIP3   OH277229   5.986   0.351  15.791 -0.1752  1.0727 -0.3703
18605TIP3    H177230   6.077   0.330  15.769 -0.0325 -0.4091  1.4218
18605TIP3    H277231   5.973   0.439  15.755  2.1682  1.5928 -0.1553
18606TIP3   OH277232   5.346   4.263  11.084 -0.1446  0.4067  0.3169
18606TIP3    H177233   5.347   4.276  11.179  0.6897 -0.0802  0.3876
18606TIP3    H277234   5.394   4.181  11.071  1.7447  1.5927 -0.6628
18607TIP3   OH277235   5.641   5.091  12.654  0.0182  0.0832  0.3817
18607TIP3    H177236   5.713   5.122  12.709 -0.0874  0.7809  0.1307
18607TIP3    H277237   5.601   5.020  12.705  0.9009 -0.3441  0.5117
18608TIP3   OH277238   5.352   5.321  16.546  0.3977 -0.2067 -0.0730
18608TIP3    H177239   5.391   5.307  16.459  1.2043 -1.7946  0.5081
18608TIP3    H277240   5.391   5.403  16.577  2.5117 -1.1951  0.0309
18609TIP3   OH277241   1.312   4.101  16.315 -0.0304  0.0057  0.3711
18609TIP3    H177242   1.268   4.078  16.397  0.8616 -0.6924  0.6790
18609TIP3    H277243   1.290   4.193  16.300 -0.7749 -0.0604  1.0214
18610TIP3   OH277244   5.727   4.230   6.847 -0.1041 -0.9591 -0.4198
18610TIP3    H177245   5.800   4.169   6.838  0.8590  0.3988 -2.6426
18610TIP3    H277246   5.734   4.288   6.771 -1.3263  1.5392  1.2223
18611TIP3   OH277247   3.178   4.604   3.183 -0.6477  0.6691  0.2279
18611TIP3    H177248   3.170   4.686   3.135 -1.2585 -0.0195 -0.8903
18611TIP3    H277249   3.205   4.540   3.117 -0.2210 -0.0468  1.0741
18612TIP3   OH277250   0.362   3.311  12.393 -0.5711 -0.7987  0.6472
18612TIP3    H177251   0.324   3.227  12.367 -2.1181  0.3966 -1.1665
18612TIP3    H277252   0.425   3.331  12.324  1.3670 -1.3681  2.1382
18613TIP3   OH277253   1.302   1.469   0.436 -0.2808 -0.1822  0.2624
18613TIP3    H177254   1.232   1.481   0.500  0.6783  0.5541  1.2331
18613TIP3    H277255   1.332   1.558   0.417  1.3036 -0.5374  0.9488
18614TIP3   OH277256   0.345   2.049   3.076  0.7106  0.6257  0.3299
18614TIP3    H177257   0.279   2.117   3.081 -0.0342 -0.0440 -0.1913
18614TIP3    H277258   0.299   1.973   3.040  1.0505 -0.7586  2.6163
18615TIP3   OH277259   0.694   1.936  14.802  0.1467  0.1752 -0.4212
18615TIP3    H177260   0.716   2.024  14.772 -1.2182  0.4338 -0.7426
18615TIP3    H277261   0.647   1.897  14.728  1.5843 -1.1969 -0.6651
18616TIP3   OH277262   2.016   5.034  15.258  0.1769 -0.2481 -0.0139
18616TIP3    H177263   1.977   5.120  15.274  0.8750  0.3596 -1.3950
18616TIP3    H277264   2.053   5.008  15.342  0.5855  1.1485  0.2639
18617TIP3   OH277265   6.471   6.286  17.125 -0.0515 -0.1038  0.1229
18617TIP3    H177266   6.515   6.363  17.089  3.3539 -2.4254 -1.2826
18617TIP3    H277267   6.385   6.285  17.085  0.5541  1.9286 -1.3628
18618TIP3   OH277268   1.097   6.360   1.241  0.1460 -0.2442  0.2089
18618TIP3    H177269   1.131   6.282   1.285 -0.1749 -0.2651  0.4231
18618TIP3    H277270   1.057   6.326   1.161 -1.4914 -0.5258  1.0932
18619TIP3   OH277271   1.282   5.961   3.547 -0.5073  0.0448  0.2886
18619TIP3    H177272   1.261   5.897   3.479  1.0380 -0.7110  0.4568
18619TIP3    H277273   1.300   6.042   3.500 -2.3178  0.3558  0.0568
18620TIP3   OH277274   6.630   6.646  14.223 -0.4664  0.2277  0.0779
18620TIP3    H177275   6.720   6.643  14.191 -0.4545 -0.1582  0.1391
18620TIP3    H277276   6.598   6.733  14.198  0.5844  1.1928  1.8359
18621TIP3   OH277277   1.974   5.132   5.452  0.2728  0.0339 -0.6360
18621TIP3    H177278   2.026   5.211   5.463  1.5066 -0.9873  1.3548
18621TIP3    H277279   2.009   5.092   5.372 -0.1272  1.2640 -1.4632
18622TIP3   OH277280   4.852   3.368  17.362 -0.1200 -0.3156  0.3946
18622TIP3    H177281   4.799   3.300  17.404 -1.4043  0.2574 -0.2165
18622TIP3    H277282   4.872   3.430  17.433  1.1838 -1.3651  0.9846
18623TIP3   OH277283   2.933   0.212  15.100 -0.5192  0.3005 -0.2772
18623TIP3    H177284   2.882   0.131  15.100 -1.1032  0.6598 -0.8832
18623TIP3    H277285   2.898   0.263  15.174  0.5060 -0.3856  0.7180
18624TIP3   OH277286   4.973   5.438  14.368  0.0903  0.9208  0.3832
18624TIP3    H177287   4.883   5.436  14.400  0.1620 -2.2295  0.7718
18624TIP3    H277288   4.971   5.387  14.287  1.4827  0.9998  0.2648
18625TIP3   OH277289   0.349   5.039   2.873 -0.1621  0.0447  0.4332
18625TIP3    H177290   0.266   5.006   2.838  0.1706 -0.4234  0.0922
18625TIP3    H277291   0.361   4.991   2.955  1.1611 -1.9872 -0.8567
18626TIP3   OH277292   3.679   5.241  16.157  0.6635  0.6324  0.5012
18626TIP3    H177293   3.703   5.160  16.111  1.0273 -0.0935  1.9197
18626TIP3    H277294   3.602   5.273  16.109  2.0254  0.8688 -1.6861
18627TIP3   OH277295   5.860   1.716  13.337 -0.5774 -0.3441  0.1540
18627TIP3    H177296   5.882   1.805  13.362  1.6336 -0.2250 -1.8865
18627TIP3    H277297   5.780   1.724  13.286  0.6294  0.8124 -1.6623
18628TIP3   OH277298   0.098   6.704   0.738  0.6863  0.1275  0.2048
18628TIP3    H177299   0.098   6.611   0.761  0.8380  0.2974  0.9264
18628TIP3    H277300   0.010   6.734   0.761  0.7927  0.2663  0.4383
18629TIP3   OH277301   4.944   2.108  16.590  0.1498 -0.3084 -0.3624
18629TIP3    H177302   4.964   2.169  16.661  0.7789 -1.0354  0.1061
18629TIP3    H277303   5.030   2.077  16.562 -0.1861 -3.3884  1.5696
18630TIP3   OH277304   2.044   2.443  14.854 -0.3203  0.1910 -0.1723
18630TIP3    H177305   2.071   2.391  14.779 -0.4838  1.6289 -1.2721
18630TIP3    H277306   1.951   2.459  14.840 -0.6835 -0.6874  1.0826
18631TIP3   OH277307   2.813   1.939  11.456 -0.0191  0.3132  0.3069
18631TIP3    H177308   2.822   1.991  11.376 -0.1449  0.5585  0.4515
18631TIP3    H277309   2.719   1.923  11.465  0.0239  0.0207  0.2367
18632TIP3   OH277310   4.415   3.813   6.363 -0.7868  0.6382  0.4500
18632TIP3    H177311   4.364   3.792   6.441 -2.2139 -0.6299 -0.7777
18632TIP3    H277312   4.426   3.909   6.367  0.9368  0.4672  3.1967
18633TIP3   OH277313   4.738   5.589  15.645 -0.0304  0.4136  0.2234
18633TIP3    H177314   4.703   5.672  15.614  1.0197  1.6146  2.0176
18633TIP3    H277315   4.831   5.593  15.624  0.4987  0.8117  2.3888
18634TIP3   OH277316   2.627   1.457  15.931  0.4416 -0.1906 -0.0539
18634TIP3    H177317   2.539   1.491  15.943  0.2989 -0.2512 -0.8971
18634TIP3    H277318   2.657   1.436  16.020 -0.4249 -0.2604  0.2304
18635TIP3   OH277319   1.901   5.583  16.934  0.6287  0.1511 -0.5876
18635TIP3    H177320   1.812   5.612  16.952  0.6942  0.8936 -1.4195
18635TIP3    H277321   1.943   5.580  17.020 -0.3055 -0.5976 -0.1447
18636TIP3   OH277322   5.772   4.417  15.751  0.6505  0.2118  0.4211
18636TIP3    H177323   5.765   4.329  15.715 -3.1581  0.5643 -0.1487
18636TIP3    H277324   5.774   4.405  15.845  0.5362 -0.5114  0.3339
18637TIP3   OH277325   3.751   0.430   4.057  0.0725 -0.3243  0.4983
18637TIP3    H177326   3.799   0.402   3.979  1.4829  0.5646  1.0108
18637TIP3    H277327   3.813   0.420   4.129 -0.3326  1.2801  1.1263
18638TIP3   OH277328   5.068   0.246   2.602  0.0310  0.1960  0.4002
18638TIP3    H177329   4.999   0.200   2.650 -0.4561  1.6307  1.1222
18638TIP3    H277330   5.021   0.309   2.548  0.7420  0.7681  0.4380
18639TIP3   OH277331   0.591   5.674   2.826  0.2954 -0.3969  0.3943
18639TIP3    H177332   0.623   5.759   2.858  0.3364  0.0730 -0.8300
18639TIP3    H277333   0.511   5.695   2.778 -0.0276 -1.1417  0.5939
18640TIP3   OH277334   6.327   3.031  15.948  0.2376  0.8142 -0.2819
18640TIP3    H177335   6.419   3.006  15.960 -0.3856 -1.2610  0.5706
18640TIP3    H277336   6.309   3.092  16.020  0.3681 -0.5507  0.9533
18641TIP3   OH277337   3.061   0.213  11.926 -0.0259  0.4934 -0.4441
18641TIP3    H177338   2.982   0.255  11.960 -1.6799 -1.5665 -1.5518
18641TIP3    H277339   3.132   0.273  11.950 -1.9725  2.7452 -0.0009
18642TIP3   OH277340   6.103   3.972  15.128 -0.7223  0.0073  0.2284
18642TIP3    H177341   6.104   3.904  15.195  0.6345 -1.9788 -1.6808
18642TIP3    H277342   6.173   3.947  15.068 -0.3889  2.9519 -0.7476
18643TIP3   OH277343   1.879   1.109  16.478 -0.7872 -0.3921 -0.1174
18643TIP3    H177344   1.930   1.173  16.529  1.5942 -0.0726 -2.6313
18643TIP3    H277345   1.862   1.038  16.539  0.6823  0.5486  1.5054
18644TIP3   OH277346   1.196   3.363  16.240  0.3038  0.4306  0.3000
18644TIP3    H177347   1.178   3.308  16.317 -1.0279 -0.6850 -0.7562
18644TIP3    H277348   1.196   3.453  16.274  0.4022 -0.0739  1.7025
18645TIP3   OH277349   1.792   0.165   2.048  0.8201 -0.3543 -0.4504
18645TIP3    H177350   1.883   0.137   2.053  1.1088  0.7083  1.4178
18645TIP3    H277351   1.741   0.084   2.053  1.6577 -0.8269  1.3466
18646TIP3   OH277352   1.047   6.677  14.818  0.0732  0.0099  0.5340
18646TIP3    H177353   1.109   6.743  14.849  0.6041  0.5927 -1.5985
18646TIP3    H277354   0.964   6.724  14.808  0.3185  0.2403 -0.4772
18647TIP3   OH277355   2.687   3.147   4.787 -0.0327  0.2181  0.0556
18647TIP3    H177356   2.677   3.233   4.827  0.1432  0.8531 -1.2075
18647TIP3    H277357   2.761   3.157   4.727 -0.4255 -0.6283 -0.5889
18648TIP3   OH277358   5.643   4.435  13.575  0.2144  0.3428 -0.2241
18648TIP3    H177359   5.688   4.405  13.654  1.0014  0.1969 -0.7076
18648TIP3    H277360   5.574   4.493  13.606  0.5503  0.3286  0.5639
18649TIP3   OH277361   3.191   0.121  13.018  0.0871  0.4484 -0.1161
18649TIP3    H177362   3.243   0.066  12.959 -0.5095  1.2775 -1.4801
18649TIP3    H277363   3.234   0.114  13.103  0.0379 -2.0779 -0.2413
18650TIP3   OH277364   1.739   0.011  14.233  0.0115 -0.1726  0.3846
18650TIP3    H177365   1.684   0.089  14.222 -1.3128 -0.9692  1.1121
18650TIP3    H277366   1.733  -0.009  14.327  0.4992 -1.0186  0.2446
18651TIP3   OH277367   1.271   1.192   2.892  0.5362  0.2155 -0.2023
18651TIP3    H177368   1.271   1.270   2.837 -1.7250  0.1514 -0.4000
18651TIP3    H277369   1.348   1.202   2.948  2.4319  0.7255 -2.6889
18652TIP3   OH277370   6.254   4.127  13.752 -0.2620 -0.2936  0.5220
18652TIP3    H177371   6.268   4.193  13.819 -1.9112  0.2269  0.4061
18652TIP3    H277372   6.180   4.075  13.785 -0.0494 -1.0491 -0.1489
18653TIP3   OH277373   6.433   6.630  17.231  0.1437  0.1044 -0.3210
18653TIP3    H177374   6.445   6.580  17.150 -1.6505 -0.2403 -0.4204
18653TIP3    H277375   6.352   6.596  17.268 -2.3641  4.1639 -1.3834
18654TIP3   OH277376   1.261   3.809  15.749 -0.5330 -0.5126  0.0856
18654TIP3    H177377   1.268   3.715  15.732 -1.3008 -0.3853 -1.0673
18654TIP3    H277378   1.351   3.840  15.748 -0.3189 -1.1224 -0.2345
18655TIP3   OH277379   4.994   0.805  12.824  0.2750  0.2015  0.4382
18655TIP3    H177380   5.078   0.759  12.825  0.9719  1.4061  1.6761
18655TIP3    H277381   4.979   0.830  12.915 -1.2589  0.3337  0.1823
18656TIP3   OH277382   1.007   0.387  13.072 -0.3797  0.0035  0.0269
18656TIP3    H177383   1.100   0.369  13.053 -0.1760  1.4160 -0.4058
18656TIP3    H277384   0.992   0.345  13.157  1.0018  0.7996  0.7015
18657TIP3   OH277385   1.932   4.499  15.606 -0.1751  0.5727 -0.7325
18657TIP3    H177386   2.016   4.540  15.584  0.2451  0.3942  0.4227
18657TIP3    H277387   1.941   4.409  15.576 -0.2977  0.7805 -1.4044
18658TIP3   OH277388   0.721   1.670   3.065 -0.9505  0.2188 -0.4753
18658TIP3    H177389   0.730   1.730   3.140  2.4486 -1.3373  0.5787
18658TIP3    H277390   0.690   1.588   3.104 -0.9983 -0.0566 -1.0888
18659TIP3   OH277391   0.860   1.166  11.191  0.0053 -0.0350  0.8871
18659TIP3    H177392   0.875   1.260  11.191 -0.5238  0.0541  1.1256
18659TIP3    H277393   0.901   1.135  11.272 -1.3727  0.2591  1.7209
18660TIP3   OH277394   1.227   4.388  13.114 -0.4917  0.2654  0.5669
18660TIP3    H177395   1.225   4.476  13.150  1.2071  0.5915 -0.0491
18660TIP3    H277396   1.320   4.372  13.094 -0.8651 -1.3652 -0.0335
18661TIP3   OH277397   6.523   3.182  13.801 -0.1280  0.4767  0.2841
18661TIP3    H177398   6.495   3.133  13.877  2.3929  1.7801  2.2241
18661TIP3    H277399   6.599   3.134  13.768 -0.3919  0.6537 -0.6166
18662TIP3   OH277400   1.090   5.333   4.596  0.2299 -0.2986  0.3579
18662TIP3    H177401   1.084   5.348   4.690  0.2884  0.3507  0.2632
18662TIP3    H277402   1.180   5.304   4.582  0.3540  0.0279  0.4533
18663TIP3   OH277403   4.157   6.475  16.803 -0.5922 -0.3493  0.4582
18663TIP3    H177404   4.113   6.547  16.757  0.4822  0.6718  0.9624
18663TIP3    H277405   4.250   6.487  16.782 -0.2857 -0.9130  1.4571
18664TIP3   OH277406   4.602   4.566   1.977  0.1056 -0.4682  0.4251
18664TIP3    H177407   4.679   4.513   1.956 -0.9140 -1.4386 -1.1390
18664TIP3    H277408   4.634   4.656   1.980  1.4727 -0.9437  0.8191
18665TIP3   OH277409   3.347   1.942   3.482 -0.0180 -0.1651 -0.4471
18665TIP3    H177410   3.300   1.953   3.564  0.0245  3.4582 -0.7499
18665TIP3    H277411   3.311   1.861   3.444 -1.4527 -0.8519  2.1587
18666TIP3   OH277412   1.125   6.278   4.847  0.2018  0.5173 -0.1028
18666TIP3    H177413   1.116   6.216   4.920  1.0771 -0.3237 -0.6829
18666TIP3    H277414   1.153   6.224   4.773 -0.1993  1.4319 -0.9456
18667TIP3   OH277415   2.740   5.350   5.117 -0.5850 -0.2175  0.6316
18667TIP3    H177416   2.734   5.431   5.065  0.9997 -0.9877 -0.8750
18667TIP3    H277417   2.710   5.375   5.204  0.4257  2.1745  0.3813
18668TIP3   OH277418   6.079   4.903   5.595  0.1247 -0.4204 -0.1495
18668TIP3    H177419   6.086   4.854   5.677  1.8366  1.6635  1.0418
18668TIP3    H277420   6.163   4.890   5.552 -0.1532 -0.1744 -0.7785
18669TIP3   OH277421   2.098   0.265   4.243  0.2348 -0.1252 -0.8247
18669TIP3    H177422   2.090   0.245   4.336  3.0692  2.2708  0.1034
18669TIP3    H277423   2.017   0.312   4.222 -0.2653 -0.3215  0.5550
18670TIP3   OH277424   2.760   0.731  11.126 -0.1503 -0.0715  0.1275
18670TIP3    H177425   2.822   0.659  11.114  0.2641  0.1420  0.9129
18670TIP3    H277426   2.679   0.699  11.086 -0.6859 -1.9690  2.4639
18671TIP3   OH277427   1.704   0.141   1.771 -0.4053 -0.0624 -0.3326
18671TIP3    H177428   1.745   0.187   1.844  0.8386 -0.0687 -1.0040
18671TIP3    H277429   1.610   0.151   1.787 -0.1917 -0.9730  1.8183
18672TIP3   OH277430   3.266   3.850  15.142  0.2896  0.1265  0.0977
18672TIP3    H177431   3.245   3.855  15.235 -0.0279 -1.2021  0.1104
18672TIP3    H277432   3.186   3.877  15.098  0.4585  0.8134  0.2007
18673TIP3   OH277433   0.998   1.247   3.084  0.5186  0.3921 -0.2954
18673TIP3    H177434   0.983   1.304   3.159 -1.0397  0.5172 -0.6714
18673TIP3    H277435   0.971   1.298   3.008  1.1311 -0.0951 -0.8594
18674TIP3   OH277436   0.540   3.288   6.305 -0.0401 -0.0717 -0.5624
18674TIP3    H177437   0.613   3.349   6.297  2.7196 -2.6069  2.4547
18674TIP3    H277438   0.486   3.323   6.376  0.1140  0.1609 -0.5616
18675TIP3   OH277439   3.743   3.880  16.770 -0.0227  0.1256  0.2535
18675TIP3    H177440   3.753   3.975  16.771  0.8416  0.0475  1.7150
18675TIP3    H277441   3.777   3.854  16.684 -2.0623  1.2682 -0.9765
18676TIP3   OH277442   5.579   1.789   2.387  0.4399  0.2316  0.7428
18676TIP3    H177443   5.532   1.793   2.304 -1.8822 -1.2141  1.8776
18676TIP3    H277444   5.548   1.709   2.429  2.4093  0.3026  2.5335
18677TIP3   OH277445   3.851   1.355  15.729  0.0705  0.0532  0.2966
18677TIP3    H177446   3.946   1.353  15.715  0.5399 -0.2697  2.9339
18677TIP3    H277447   3.831   1.447  15.744 -0.3244  0.3136 -1.5604
18678TIP3   OH277448   1.423   0.915  13.230  0.1518  0.2348 -0.1878
18678TIP3    H177449   1.388   0.899  13.317 -1.2570  3.3872 -0.0365
18678TIP3    H277450   1.475   0.995  13.239  0.5699  0.2338 -2.1180
18679TIP3   OH277451   6.027   2.696  16.289  0.0832 -0.3672  0.4593
18679TIP3    H177452   6.041   2.638  16.215 -0.2161 -0.3225  0.3652
18679TIP3    H277453   6.106   2.749  16.294 -0.4366  0.5778 -0.6916
18680TIP3   OH277454   6.195   0.502  15.482 -0.3010 -0.3368 -0.4635
18680TIP3    H177455   6.260   0.572  15.468  1.4992 -1.4373  1.8129
18680TIP3    H277456   6.134   0.539  15.546 -0.5831 -0.1365 -0.8418
18681TIP3   OH277457   1.287   0.019   0.643 -0.5751  0.2948 -0.4524
18681TIP3    H177458   1.318   0.076   0.713  1.7858 -0.1375 -1.0740
18681TIP3    H277459   1.292   0.072   0.563 -0.5246 -0.0947 -0.7124
18682TIP3   OH277460   4.147   1.924  13.614  0.4176  0.4536 -0.5541
18682TIP3    H177461   4.114   1.989  13.676  1.9165 -0.1832  1.0084
18682TIP3    H277462   4.180   1.853  13.669  0.2203 -0.9522 -2.1586
18683TIP3   OH277463   1.307   2.701   4.009 -0.6408 -0.1802 -0.3602
18683TIP3    H177464   1.334   2.791   4.026 -1.1651 -0.3242  1.3646
18683TIP3    H277465   1.257   2.707   3.927 -1.4666  1.2509  0.2151
18684TIP3   OH277466   3.916   0.747   0.450 -0.1501 -0.0611  0.5955
18684TIP3    H177467   3.921   0.841   0.435 -1.3795 -0.3096 -1.8008
18684TIP3    H277468   3.824   0.730   0.470 -0.0184 -0.8196  0.6063
18685TIP3   OH277469   3.641   4.506  12.265  0.4061  0.0251 -0.8138
18685TIP3    H177470   3.719   4.508  12.321 -0.7067 -3.2548  1.1417
18685TIP3    H277471   3.615   4.598  12.258  3.2354  1.0213  0.1417
18686TIP3   OH277472   3.940   0.411   3.272  1.0976  0.0038  0.0434
18686TIP3    H177473   3.909   0.489   3.225 -2.7360 -0.7903  0.9795
18686TIP3    H277474   3.996   0.446   3.341  0.0321  1.9002  0.0283
18687TIP3   OH277475   1.747   3.524   0.698 -0.0765 -0.0806  0.2736
18687TIP3    H177476   1.840   3.543   0.711 -0.3901  0.8173  1.2718
18687TIP3    H277477   1.710   3.605   0.664 -0.7110 -0.0419  1.0202
18688TIP3   OH277478   3.158   3.633   4.194  0.1563 -0.1326  0.7626
18688TIP3    H177479   3.083   3.575   4.183  0.2282 -0.1058  0.1050
18688TIP3    H277480   3.229   3.575   4.221  0.1543 -0.3134  0.3909
18689TIP3   OH277481   0.627   2.011   5.094 -0.5977  0.9500  0.4262
18689TIP3    H177482   0.567   1.965   5.153 -0.0661  1.0782  1.0889
18689TIP3    H277483   0.647   2.093   5.140 -0.1776  1.0562  0.0574
18690TIP3   OH277484   3.391   4.441  16.869  0.4565 -0.0101 -0.0748
18690TIP3    H177485   3.418   4.532  16.862 -0.9212  0.3254 -1.8303
18690TIP3    H277486   3.408   4.417  16.960  2.3605  1.4695  0.0106
18691TIP3   OH277487   0.986   4.366  17.089 -0.2174 -0.1082  0.0978
18691TIP3    H177488   0.977   4.454  17.126 -0.9559 -0.2873  0.3633
18691TIP3    H277489   1.056   4.325  17.141 -0.5474 -0.0116  0.6242
18692TIP3   OH277490   4.873   0.121  17.208 -0.4540  0.1957  0.4567
18692TIP3    H177491   4.955   0.160  17.178 -0.7824 -0.2285 -1.1011
18692TIP3    H277492   4.887   0.026  17.202 -0.1728  0.0420  2.7711
18693TIP3   OH277493   2.263   6.550   2.633  0.1978 -0.3125  0.4732
18693TIP3    H177494   2.203   6.547   2.707 -1.7007  0.8247 -0.9316
18693TIP3    H277495   2.208   6.529   2.557  1.9477 -0.8594 -0.7079
18694TIP3   OH277496   5.342   0.129   1.488 -0.0504 -0.5184 -0.3979
18694TIP3    H177497   5.404   0.056   1.488  2.4823  1.4799 -0.3273
18694TIP3    H277498   5.315   0.137   1.396 -0.2987 -1.4628 -0.4220
18695TIP3   OH277499   1.835   4.120   4.332 -0.0030  0.1611 -1.1873
18695TIP3    H177500   1.798   4.032   4.333  0.1789  0.0818 -1.4336
18695TIP3    H277501   1.892   4.122   4.255  1.0001  0.0791 -0.4735
18696TIP3   OH277502   3.849   0.445   5.138 -0.9491  0.5906  0.4628
18696TIP3    H177503   3.898   0.380   5.189 -0.0367 -0.6438 -1.8451
18696TIP3    H277504   3.772   0.397   5.106 -1.1577  1.1440  0.1192
18697TIP3   OH277505   6.230   3.270   3.519  0.4825  0.0639  0.4075
18697TIP3    H177506   6.313   3.224   3.532 -0.2413 -1.4061  0.1336
18697TIP3    H277507   6.198   3.237   3.435 -0.8073 -0.1048  0.9474
18698TIP3   OH277508   2.273   0.384   5.648  0.2519  0.0072 -0.5496
18698TIP3    H177509   2.367   0.399   5.652  0.2600  0.0603 -0.8746
18698TIP3    H277510   2.263   0.308   5.591  0.1127 -0.1634 -0.3018
18699TIP3   OH277511   4.036   5.521   0.144 -0.2552  0.1459  0.5304
18699TIP3    H177512   4.014   5.598   0.091  0.0264  0.2897  0.6222
18699TIP3    H277513   3.979   5.452   0.110  0.4625  0.0241 -0.4878
18700TIP3   OH277514   1.527   1.419  12.892 -0.3642  0.3305  0.0503
18700TIP3    H177515   1.581   1.386  12.820 -1.8529 -0.0203 -0.9581
18700TIP3    H277516   1.488   1.499  12.858 -1.1134  0.1437  0.4523
18701TIP3   OH277517   3.080   3.938   2.555  0.0624  0.0463 -0.0672
18701TIP3    H177518   3.147   3.892   2.506  1.1157  1.8721 -0.4339
18701TIP3    H277519   3.024   3.977   2.488  0.7621  1.4854  0.1389
18702TIP3   OH277520   3.827   5.914  14.572 -0.1637  0.3693  0.2269
18702TIP3    H177521   3.898   5.853  14.591  0.0358 -0.4921 -2.8085
18702TIP3    H277522   3.790   5.883  14.490 -2.7302  2.0220  0.6433
18703TIP3   OH277523   3.878   2.633  15.742  0.4256 -0.5024  0.1206
18703TIP3    H177524   3.916   2.621  15.830 -0.5641  0.1614  0.6480
18703TIP3    H277525   3.823   2.555  15.730 -1.2018  0.4567  1.0378
18704TIP3   OH277526   1.920   6.530  15.281 -0.0312 -0.0418 -0.1240
18704TIP3    H177527   1.936   6.584  15.204 -1.7094 -0.3776 -0.7356
18704TIP3    H277528   2.005   6.489  15.300  1.0352  1.9730 -0.2493
18705TIP3   OH277529   2.022   0.530   0.892 -0.2230  0.2198 -0.3797
18705TIP3    H177530   2.025   0.438   0.866 -1.2680  0.4687 -1.4941
18705TIP3    H277531   1.973   0.530   0.975  0.6547 -0.3025  0.1594
18706TIP3   OH277532   1.164   0.366  13.423 -0.0179 -0.1200  0.4979
18706TIP3    H177533   1.076   0.334  13.405  0.3857 -0.6670 -0.5714
18706TIP3    H277534   1.213   0.349  13.343  1.3656 -0.8575  1.4456
18707TIP3   OH277535   2.821   2.010   1.328  0.3064 -0.5802 -0.5011
18707TIP3    H177536   2.917   2.009   1.335  0.2239 -0.4883  0.8869
18707TIP3    H277537   2.801   2.095   1.288  0.7019  0.4855  1.4576
18708TIP3   OH277538   4.815   3.096  11.628  0.0917  0.0871 -0.0403
18708TIP3    H177539   4.763   3.168  11.664  1.2780  1.5717 -1.1576
18708TIP3    H277540   4.814   3.111  11.533 -1.7664 -2.8809 -0.6392
18709TIP3   OH277541   5.481   4.648  13.716 -0.1081 -0.4254 -0.5222
18709TIP3    H177542   5.555   4.630  13.773 -0.5585  1.6339  0.8176
18709TIP3    H277543   5.405   4.612  13.762 -0.3123  0.1826 -0.3632
18710TIP3   OH277544   0.411   4.778   5.778  0.3765 -0.3062  0.0282
18710TIP3    H177545   0.344   4.737   5.832  0.1323 -0.1546 -0.1587
18710TIP3    H277546   0.429   4.714   5.709  0.9920 -0.6802  0.5202
18711TIP3   OH277547   6.050   0.279   5.186 -0.1129 -0.6128  0.1875
18711TIP3    H177548   5.993   0.214   5.145 -2.5488  1.1796  0.4639
18711TIP3    H277549   6.076   0.336   5.114  0.6258 -0.9227  0.2073
18712TIP3   OH277550   5.746   4.843  15.770  0.2334 -0.0751  0.1941
18712TIP3    H177551   5.831   4.870  15.734 -0.4504  2.2402  0.1724
18712TIP3    H277552   5.683   4.904  15.731 -1.8797 -3.1985 -1.7130
18713TIP3   OH277553   2.320   2.939  14.250 -0.1667  0.4443 -0.0908
18713TIP3    H177554   2.399   2.973  14.292 -0.6238 -0.9407  2.0586
18713TIP3    H277555   2.249   2.962  14.310 -0.8777 -1.5776 -0.0951
18714TIP3   OH277556   5.776   1.315  14.014  0.0439 -0.0920  0.0810
18714TIP3    H177557   5.866   1.312  14.048  0.3482 -0.0348 -0.6874
18714TIP3    H277558   5.771   1.399  13.970 -0.1219 -0.4415 -0.5778
18715TIP3   OH277559   5.395   1.229   4.440 -0.1946  0.2795  0.2313
18715TIP3    H177560   5.451   1.283   4.385 -1.2324  0.5003 -0.6361
18715TIP3    H277561   5.322   1.286   4.464 -0.4539 -0.2343  0.6885
18716TIP3   OH277562   0.838   1.684   6.257  0.0202  0.0766 -0.3579
18716TIP3    H177563   0.774   1.617   6.232 -0.7467  0.2739  0.9676
18716TIP3    H277564   0.913   1.635   6.290 -1.1178 -0.2154  2.0310
18717TIP3   OH277565   3.939   6.435   2.822  0.5885  0.1222 -0.2976
18717TIP3    H177566   3.937   6.526   2.849 -0.0790  0.4759 -1.4875
18717TIP3    H277567   4.000   6.393   2.883  1.2155  1.4368  0.0058
18718TIP3   OH277568   3.751   2.685   2.477 -0.2695 -0.1122 -0.2425
18718TIP3    H177569   3.740   2.754   2.542 -0.4467  1.2784 -1.6596
18718TIP3    H277570   3.663   2.669   2.443  0.1121  1.2263 -2.0529
18719TIP3   OH277571   5.208   0.268  11.913  0.0210 -0.2070 -0.1115
18719TIP3    H177572   5.268   0.202  11.949  1.0110  1.5263  1.5628
18719TIP3    H277573   5.141   0.278  11.981 -1.0319 -0.6128 -1.0664
18720TIP3   OH277574   6.038   4.414  12.748 -0.0890 -0.1876  0.1195
18720TIP3    H177575   6.060   4.387  12.837  0.6156 -0.4850 -0.1334
18720TIP3    H277576   5.946   4.391  12.737 -0.6206  1.2193  1.2718
18721TIP3   OH277577   2.445   4.214  12.767  0.0969 -0.2486  0.4956
18721TIP3    H177578   2.392   4.254  12.699  0.2091 -4.2032 -2.2842
18721TIP3    H277579   2.381   4.171  12.825  0.0975 -0.5103  0.3050
18722TIP3   OH277580   5.430   3.111  15.522 -0.5305  0.2272  0.2782
18722TIP3    H177581   5.392   3.074  15.601 -0.7494 -0.0782  0.0306
18722TIP3    H277582   5.461   3.035  15.472 -0.8049  0.3905 -0.1390
18723TIP3   OH277583   4.123   1.648   5.059  0.6782  0.4975  0.2693
18723TIP3    H177584   4.128   1.568   5.007  0.2871  1.2024 -0.8778
18723TIP3    H277585   4.087   1.620   5.144  1.2803 -0.6521  0.1604
18724TIP3   OH277586   4.233   1.490   3.454  0.0550 -0.0749 -0.3099
18724TIP3    H177587   4.293   1.532   3.515  1.2290 -2.4450  0.2486
18724TIP3    H277588   4.271   1.507   3.368  0.1948  0.4756 -0.1417
18725TIP3   OH277589   0.216   4.498   0.684 -0.0302 -0.0638  0.3345
18725TIP3    H177590   0.143   4.536   0.635 -0.7531 -0.2775  1.2215
18725TIP3    H277591   0.292   4.549   0.656 -0.8664  1.6810  1.0593
18726TIP3   OH277592   4.920   4.586   3.978  0.4107  0.1188 -0.5623
18726TIP3    H177593   4.868   4.664   3.962  1.6537  0.6897 -2.0339
18726TIP3    H277594   4.893   4.525   3.909 -0.9825 -1.0435  0.9206
18727TIP3   OH277595   2.315   0.952  17.323 -0.4151  0.5881  0.2262
18727TIP3    H177596   2.359   1.031  17.353 -1.2261  0.9246  0.5533
18727TIP3    H277597   2.275   0.915  17.401  1.7179 -1.3540  0.5215
18728TIP3   OH277598   2.513   4.038  11.288 -0.0518 -0.2509 -0.0447
18728TIP3    H177599   2.560   4.074  11.212  0.3014 -1.1083 -0.2446
18728TIP3    H277600   2.509   3.944  11.271 -0.6045 -0.3598  0.6628
18729TIP3   OH277601   6.271   3.272   5.837  0.0854  0.1173  0.2058
18729TIP3    H177602   6.199   3.214   5.862 -0.8920  0.6370 -1.2634
18729TIP3    H277603   6.281   3.332   5.911 -1.3659  0.3848  0.2065
18730TIP3   OH277604   4.807   4.329  11.700 -0.8333 -0.1922  0.7401
18730TIP3    H177605   4.901   4.338  11.688 -0.9001 -1.3812 -0.9710
18730TIP3    H277606   4.793   4.235  11.713 -1.7287  0.0541  1.6642
18731TIP3   OH277607   1.536   5.581  11.407 -0.1870 -0.3924 -0.5574
18731TIP3    H177608   1.513   5.640  11.336  0.1759  2.0490  1.2199
18731TIP3    H277609   1.609   5.530  11.372 -0.1383  0.5884 -2.0014
18732TIP3   OH277610   1.729   2.960   0.231 -0.5811  0.0480  0.2023
18732TIP3    H177611   1.727   2.977   0.137 -1.6196 -0.1684  0.1666
18732TIP3    H277612   1.637   2.964   0.258 -0.4112 -0.9985  1.0019
18733TIP3   OH277613   3.924   5.727  14.871 -0.0049  0.6118  0.1484
18733TIP3    H177614   3.849   5.672  14.896 -0.4134  1.3098  0.4932
18733TIP3    H277615   3.929   5.793  14.940  1.3549  0.1817  0.4963
18734TIP3   OH277616   3.582   2.515  11.874  0.4727  0.0410 -0.0624
18734TIP3    H177617   3.564   2.450  11.942 -1.0024  0.6087  0.1337
18734TIP3    H277618   3.510   2.506  11.812  1.4882 -0.0640 -1.2758
18735TIP3   OH277619   0.265   5.891  15.375 -0.3169 -0.3097 -0.3798
18735TIP3    H177620   0.316   5.973  15.379 -2.5465  1.1201  1.6928
18735TIP3    H277621   0.232   5.888  15.286 -0.5960  1.3508 -0.3655
18736TIP3   OH277622   4.291   2.960  16.697  0.1835 -0.4005  0.2202
18736TIP3    H177623   4.271   2.996  16.610 -3.1006 -2.8460 -0.2298
18736TIP3    H277624   4.219   2.989  16.752  1.2340 -0.4727  1.6839
18737TIP3   OH277625   0.060   1.286  11.676 -0.4595  0.4638 -0.6497
18737TIP3    H177626   0.050   1.228  11.600 -0.0768  0.1126 -0.4354
18737TIP3    H277627   0.104   1.232  11.741 -0.0573  1.0159 -0.4621
18738TIP3   OH277628   1.743   1.369   2.732 -0.1721 -0.2327 -0.1311
18738TIP3    H177629   1.758   1.285   2.690 -0.9482 -0.6667  0.4393
18738TIP3    H277630   1.648   1.377   2.739 -0.0871  0.3013  0.5717
18739TIP3   OH277631   3.316   2.816   2.625 -0.1334 -0.0775  0.1238
18739TIP3    H177632   3.237   2.861   2.596  0.6587  1.6482  0.5376
18739TIP3    H277633   3.315   2.733   2.578 -1.8215  0.2088 -0.4128
18740TIP3   OH277634   3.454   0.042  14.053 -0.0095 -0.4777  0.7289
18740TIP3    H177635   3.434   0.130  14.022  1.7793 -0.1743  0.3279
18740TIP3    H277636   3.520   0.009  13.992  0.0941 -1.7084  1.4652
18741TIP3   OH277637   4.413   6.315   5.162  0.4223  0.4502  0.1877
18741TIP3    H177638   4.324   6.285   5.143  0.5744  0.5154 -0.6891
18741TIP3    H277639   4.418   6.315   5.257  0.3328 -2.0383  0.2601
18742TIP3   OH277640   3.795   4.253   1.771  0.6964  0.2165 -0.2820
18742TIP3    H177641   3.753   4.325   1.725  1.0121  0.3538 -0.3512
18742TIP3    H277642   3.723   4.213   1.821  0.1893 -0.4216 -1.4811
18743TIP3   OH277643   5.356   2.700  12.334 -0.1810 -0.8732 -0.6609
18743TIP3    H177644   5.409   2.741  12.266  0.8319 -1.2709 -0.1368
18743TIP3    H277645   5.371   2.606  12.322 -0.5592 -0.9774 -0.3375
18744TIP3   OH277646   1.933   6.681  16.190 -0.0416  0.8310 -1.0111
18744TIP3    H177647   1.878   6.604  16.173 -0.6810  1.2585 -0.8864
18744TIP3    H277648   1.899   6.717  16.272  0.8103  0.7617 -0.6142
18745TIP3   OH277649   2.665   1.490  15.217 -0.2027  0.2350  1.0022
18745TIP3    H177650   2.721   1.466  15.144  1.4589  1.1720  1.8947
18745TIP3    H277651   2.616   1.566  15.187 -2.2388 -1.5060 -0.3228
18746TIP3   OH277652   1.735   2.885   5.623 -0.3445 -0.2645 -0.1657
18746TIP3    H177653   1.754   2.976   5.646 -0.5610  0.1269 -1.4412
18746TIP3    H277654   1.698   2.847   5.703 -1.3799  1.1041  0.0378
18747TIP3   OH277655   0.056   1.752   4.363 -0.6894  0.0520  0.3156
18747TIP3    H177656  -0.030   1.778   4.397 -1.6600 -2.5894  0.0927
18747TIP3    H277657   0.114   1.762   4.438 -1.7471 -0.5604  1.2637
18748TIP3   OH277658   6.157   6.207   4.136 -0.3124  0.1129 -0.4817
18748TIP3    H177659   6.194   6.269   4.200 -0.8505 -0.7170  0.6709
18748TIP3    H277660   6.062   6.214   4.149 -0.3631 -1.2902  0.0089
18749TIP3   OH277661   1.644   0.395   5.484  0.2139 -0.4650  0.3408
18749TIP3    H177662   1.721   0.344   5.458  0.9374 -0.2052  1.8429
18749TIP3    H277663   1.680   0.467   5.536 -0.9583  0.3951 -0.0048
18750TIP3   OH277664   4.140   6.398   5.140  0.3021  0.3233  0.6191
18750TIP3    H177665   4.175   6.478   5.177 -1.9840  1.5433  0.3709
18750TIP3    H277666   4.048   6.396   5.169  0.4364 -2.5740  1.1838
18751TIP3   OH277667   6.095   1.058  15.512 -0.9833  0.3328 -0.2667
18751TIP3    H177668   6.139   1.110  15.445 -1.8494  2.9452  1.0644
18751TIP3    H277669   6.163   1.039  15.577 -0.3579 -1.4356 -1.3650
18752TIP3   OH277670   4.422   1.773  12.743  0.8454 -0.1418  0.3881
18752TIP3    H177671   4.452   1.699  12.691  0.5180 -0.3693  0.5251
18752TIP3    H277672   4.348   1.740  12.793  0.8588  0.2060  0.6452
18753TIP3   OH277673   3.386   2.126   2.382 -0.0391 -0.4497  0.2269
18753TIP3    H177674   3.409   2.052   2.438 -0.1827 -0.5583  0.1441
18753TIP3    H277675   3.317   2.172   2.430 -0.1516 -0.5343  0.1507
18754TIP3   OH277676   1.522   3.065  12.867  0.5943 -0.8081  0.3967
18754TIP3    H177677   1.475   3.131  12.816 -1.7440 -0.0870  3.2330
18754TIP3    H277678   1.471   2.985  12.855  1.1424 -1.1279  0.1394
18755TIP3   OH277679   1.825   1.767   2.867  0.5146 -0.5905  0.0833
18755TIP3    H177680   1.733   1.783   2.889  0.9388  1.3707  0.6989
18755TIP3    H277681   1.845   1.832   2.800  1.5714 -0.6274  0.3462
18756TIP3   OH277682   4.462   5.183  15.584 -0.1271 -0.1502  0.3822
18756TIP3    H177683   4.480   5.119  15.515  0.2978 -0.3809  0.7059
18756TIP3    H277684   4.515   5.259  15.561  0.5130 -0.4628  0.7956
18757TIP3   OH277685   4.501   0.393   0.405  0.2671  0.1663  0.0121
18757TIP3    H177686   4.540   0.387   0.318  1.1618 -1.2752  0.4785
18757TIP3    H277687   4.544   0.468   0.445  0.1004  0.6310 -0.6628
18758TIP3   OH277688   6.350   2.736   1.186 -0.0114 -0.0378  0.1637
18758TIP3    H177689   6.309   2.666   1.135 -0.1777 -1.4604  2.1076
18758TIP3    H277690   6.408   2.781   1.124 -2.9155  0.7773 -2.1807
18759TIP3   OH277691   0.867   1.956  15.437 -0.4711 -0.4094 -0.3353
18759TIP3    H177692   0.835   2.007  15.363 -2.3932  1.5915  1.7150
18759TIP3    H277693   0.835   1.868  15.421 -4.4475  0.7839 -0.0763
18760TIP3   OH277694   6.681   0.691  10.848  0.1103 -0.4598  0.0752
18760TIP3    H177695   6.589   0.717  10.861 -0.2043 -1.8582  0.8238
18760TIP3    H277696   6.688   0.677  10.753 -0.2839  0.1885 -0.0615
18761TIP3   OH277697   4.307   0.628  15.144 -0.5757  0.5947  0.8779
18761TIP3    H177698   4.365   0.565  15.188 -1.2735  0.7012  1.9904
18761TIP3    H277699   4.287   0.692  15.212 -0.3478  1.7087 -0.0864
18762TIP3   OH277700   3.790   5.895   0.125 -0.2594 -0.0966  0.3314
18762TIP3    H177701   3.716   5.944   0.088  0.3236  1.1753  0.7990
18762TIP3    H277702   3.786   5.914   0.219 -0.8571 -2.1145  0.7666
18763TIP3   OH277703   0.535   5.120   1.239 -0.0373  0.3855 -0.4774
18763TIP3    H177704   0.580   5.042   1.207  1.9746  0.4194  1.8939
18763TIP3    H277705   0.606   5.180   1.264 -1.4701  1.7157  0.6217
18764TIP3   OH277706   2.446   2.867  11.059 -0.1648  0.1245 -0.2449
18764TIP3    H177707   2.454   2.772  11.054 -1.2316  0.0734 -1.7577
18764TIP3    H277708   2.397   2.883  11.139 -0.4107 -0.6277 -0.2392
18765TIP3   OH277709   6.558   1.003  15.981 -0.2397  0.4149  0.0565
18765TIP3    H177710   6.526   1.093  15.977 -0.2928  0.3635 -0.9209
18765TIP3    H277711   6.541   0.976  16.071  3.2285  2.5916  1.5823
18766TIP3   OH277712   5.803   6.689   3.404 -0.2337 -0.3100  0.1707
18766TIP3    H177713   5.808   6.666   3.311 -0.9052 -2.8707  0.6729
18766TIP3    H277714   5.894   6.689   3.434 -0.1347 -1.9635 -0.0211
18767TIP3   OH277715   4.347   1.746   5.459 -0.7208  0.0222 -0.2588
18767TIP3    H177716   4.320   1.663   5.420  0.5663 -0.7872  0.4865
18767TIP3    H277717   4.430   1.767   5.415 -1.8174  1.8014 -1.6289
18768TIP3   OH277718   4.727   2.987   4.632 -0.2107 -0.6412 -0.0480
18768TIP3    H177719   4.728   2.931   4.554  1.8760  0.3019 -0.7871
18768TIP3    H277720   4.816   2.981   4.667 -0.5826  0.4555  1.1568
18769TIP3   OH277721   6.439   4.889  14.892 -0.1228  0.2349  0.4024
18769TIP3    H177722   6.427   4.794  14.887 -0.7967  0.3282 -0.0060
18769TIP3    H277723   6.440   4.917  14.800 -0.8118  0.7137  0.5281
18770TIP3   OH277724   1.432   2.195  15.895 -0.2979  0.1343 -0.2705
18770TIP3    H177725   1.474   2.172  15.812  0.3431 -0.0106  0.0869
18770TIP3    H277726   1.472   2.137  15.959  0.8404  1.7181  0.5355
18771TIP3   OH277727   2.411   2.615  16.645 -0.4933 -0.1465  0.1933
18771TIP3    H177728   2.452   2.701  16.653 -0.1366 -0.4148  1.4637
18771TIP3    H277729   2.458   2.573  16.573 -0.2318  0.4789 -0.0055
18772TIP3   OH277730   4.173   6.726   5.064  0.6902  0.2153 -0.1003
18772TIP3    H177731   4.118   6.803   5.079  1.2622  0.5817  0.1738
18772TIP3    H277732   4.234   6.725   5.138  1.9519  0.6213 -1.0963
18773TIP3   OH277733   1.279   5.239  11.246 -0.3801  1.0250  0.3726
18773TIP3    H177734   1.339   5.284  11.188 -0.3192  0.3576 -0.0923
18773TIP3    H277735   1.198   5.289  11.241 -0.0574  1.5691  0.5223
18774TIP3   OH277736   1.202   5.442   2.535  0.1530 -0.0998  0.6696
18774TIP3    H177737   1.180   5.349   2.537  0.6704 -0.2193  0.9589
18774TIP3    H277738   1.287   5.445   2.492 -0.1731  0.3058  0.0426
18775TIP3   OH277739   2.182   0.386  16.023 -0.6077  0.0407 -0.5395
18775TIP3    H177740   2.181   0.318  16.090 -0.0397  1.7475  1.2813
18775TIP3    H277741   2.092   0.419  16.021 -0.7177 -0.2767 -0.9176
18776TIP3   OH277742   3.696   4.629   5.898  0.5955  0.3247  0.3804
18776TIP3    H177743   3.686   4.648   5.991 -0.1049 -0.8469  0.5643
18776TIP3    H277744   3.685   4.534   5.892  1.8153  0.2237 -0.7542
18777TIP3   OH277745   1.632   1.394   2.108  0.1115  0.0006 -0.1119
18777TIP3    H177746   1.625   1.333   2.182 -1.1140 -1.9477 -1.7315
18777TIP3    H277747   1.718   1.377   2.071 -0.6042 -1.5577 -1.1582
18778TIP3   OH277748   4.084   0.653   1.437  0.4590  0.1801 -0.3621
18778TIP3    H177749   4.140   0.579   1.459 -0.2581  0.5061  3.2307
18778TIP3    H277750   4.142   0.715   1.394  1.9878 -0.9336  0.0186
18779TIP3   OH277751   6.726   2.628   3.253 -0.2371  0.0779  0.7795
18779TIP3    H177752   6.728   2.631   3.158  0.5406 -1.4925  0.7154
18779TIP3    H277753   6.658   2.564   3.274  1.5212 -1.7441  1.1696
18780TIP3   OH277754   3.355   4.275  15.168  0.4270 -0.2493 -0.0846
18780TIP3    H177755   3.318   4.329  15.098  0.1173  1.4639  1.3493
18780TIP3    H277756   3.399   4.203  15.121 -1.9201 -0.5945 -1.9344
18781TIP3   OH277757   3.566   2.663   0.235 -0.2894  0.2649  0.4167
18781TIP3    H177758   3.599   2.753   0.231  1.5111 -0.3293  0.6134
18781TIP3    H277759   3.560   2.635   0.144  3.2533 -0.7154  0.3262
18782TIP3   OH277760   4.073   0.379   5.318 -0.1394 -0.5256  0.5973
18782TIP3    H177761   4.120   0.398   5.399 -0.4134 -0.2144  0.6877
18782TIP3    H277762   4.033   0.294   5.333 -0.6501 -0.2180  1.0059
18783TIP3   OH277763   4.461   4.841   6.271 -0.3644 -0.2339 -0.1239
18783TIP3    H177764   4.458   4.911   6.337  1.7701  0.2129 -0.4386
18783TIP3    H277765   4.504   4.768   6.315  1.3906  0.1842 -1.0765
18784TIP3   OH277766   3.462   3.044   1.538 -0.1406  0.2504 -0.1440
18784TIP3    H177767   3.492   2.953   1.535 -0.1977  0.1773  0.9649
18784TIP3    H277768   3.542   3.096   1.540 -0.0623  0.1230  1.1869
18785TIP3   OH277769   2.896   1.614  13.199  0.2772 -0.7982  0.1893
18785TIP3    H177770   2.924   1.702  13.224  1.1215 -1.2129  0.7842
18785TIP3    H277771   2.975   1.573  13.163 -0.4056 -0.9204 -1.2357
18786TIP3   OH277772   1.465   6.215   1.225  0.5915 -0.0717  0.2332
18786TIP3    H177773   1.485   6.267   1.147 -0.0299  0.6906  0.5687
18786TIP3    H277774   1.470   6.278   1.297 -0.2050 -0.4701  0.6427
18787TIP3   OH277775   6.345   4.708   1.006  0.2025  0.0476  0.4774
18787TIP3    H177776   6.292   4.638   0.968  2.7949 -1.4742 -0.6234
18787TIP3    H277777   6.416   4.663   1.051  2.3762  1.8844 -0.8718
18788TIP3   OH277778   4.091   0.799  14.769 -0.2580  0.0192  0.0983
18788TIP3    H177779   4.174   0.820  14.812  0.8522 -1.4023 -1.2753
18788TIP3    H277780   4.081   0.866  14.701 -0.2589  0.1859  0.2611
18789TIP3   OH277781   0.484   2.730   1.425  0.3374  0.1006  0.9168
18789TIP3    H177782   0.482   2.702   1.333 -1.0864  3.0399 -0.0581
18789TIP3    H277783   0.546   2.670   1.466  3.5244  0.5876 -2.6157
18790TIP3   OH277784   6.077   2.721  11.375  0.0221  0.5716  0.0876
18790TIP3    H177785   6.087   2.812  11.402  0.8481  0.5881 -0.2498
18790TIP3    H277786   6.162   2.696  11.340 -0.6873  0.2156 -1.5075
18791TIP3   OH277787   3.456   5.283   0.647  0.1218 -0.1751  0.2223
18791TIP3    H177788   3.499   5.272   0.732  1.4588  1.7431 -0.1406
18791TIP3    H277789   3.384   5.343   0.665  0.2916  0.0845  0.0364
18792TIP3   OH277790   4.103   2.101   5.457  0.1655 -0.7513  0.9555
18792TIP3    H177791   4.030   2.144   5.503 -1.1726 -1.5972 -0.2942
18792TIP3    H277792   4.099   2.135   5.368 -0.5045 -2.8411  0.1135
18793TIP3   OH277793   3.951   2.381  14.677 -0.2133  0.0128 -0.3168
18793TIP3    H177794   3.971   2.464  14.636  1.8783 -0.9617 -1.4345
18793TIP3    H277795   3.900   2.333  14.612  1.0475 -0.6267 -0.8663
18794TIP3   OH277796   1.718   1.527  12.260  0.1392 -0.5250 -0.2922
18794TIP3    H177797   1.806   1.503  12.291  0.4038 -0.3282 -0.8722
18794TIP3    H277798   1.728   1.618  12.231 -0.1506 -0.6473 -0.7726
18795TIP3   OH277799   1.157   5.513   5.090  0.0899 -0.0315  0.0950
18795TIP3    H177800   1.200   5.518   5.175  0.4639 -1.0238 -0.0165
18795TIP3    H277801   1.076   5.563   5.101 -0.4433 -1.0981  1.4036
18796TIP3   OH277802   4.912   5.980   6.711  0.6922  0.0437  0.2525
18796TIP3    H177803   4.823   5.948   6.727  0.7030 -0.5972 -0.8329
18796TIP3    H277804   4.966   5.902   6.709  1.3432  0.4554  1.1685
18797TIP3   OH277805   6.689   6.266  13.568  0.0403 -0.8372 -0.4604
18797TIP3    H177806   6.653   6.353  13.584  0.8383 -0.7021  0.7070
18797TIP3    H277807   6.746   6.249  13.643  2.3183 -1.0779 -2.1254
18798TIP3   OH277808   4.221   1.225   1.558  0.7037  0.2595 -0.3420
18798TIP3    H177809   4.150   1.200   1.617  1.2267  0.7835  0.5382
18798TIP3    H277810   4.269   1.144   1.541  0.2784  0.0224 -0.4244
18799TIP3   OH277811   2.945   0.327  16.649 -0.0954 -0.1232 -0.4383
18799TIP3    H177812   3.013   0.266  16.621  0.8554  1.2238 -1.1894
18799TIP3    H277813   2.867   0.300  16.599 -0.3835 -2.1411  0.9854
18800TIP3   OH277814   2.692   2.532  17.225 -0.1662  0.1362  0.2328
18800TIP3    H177815   2.711   2.456  17.171  0.9613 -1.1418  2.3152
18800TIP3    H277816   2.778   2.561  17.257 -0.6217  1.9956 -0.1132
18801TIP3   OH277817   4.102   6.120   1.554 -0.2532  0.0968  0.0195
18801TIP3    H177818   4.165   6.052   1.528 -0.9383 -0.3981 -0.3934
18801TIP3    H277819   4.081   6.099   1.645  0.6258  0.6302  0.3615
18802TIP3   OH277820   0.279   2.961  14.539  0.0237  0.0567  0.2275
18802TIP3    H177821   0.313   2.952  14.629  3.0018  0.7498 -0.7094
18802TIP3    H277822   0.250   3.052  14.534  0.2843  0.1497  0.3594
18803TIP3   OH277823   1.018   1.127   6.079 -0.0562 -0.2738 -0.5426
18803TIP3    H177824   0.944   1.186   6.065 -1.1068 -1.6230 -0.9094
18803TIP3    H277825   1.012   1.102   6.171  2.2275  2.4970  0.5290
18804TIP3   OH277826   0.340   0.630   3.451 -0.4679 -0.1956 -0.0987
18804TIP3    H177827   0.425   0.592   3.472 -1.4837 -3.0728 -0.7683
18804TIP3    H277828   0.355   0.678   3.369  1.1344  2.1355  1.4383
18805TIP3   OH277829   4.358   1.503   1.167  0.2821 -0.0184 -0.2208
18805TIP3    H177830   4.288   1.449   1.131  1.2514 -0.3389 -1.6893
18805TIP3    H277831   4.364   1.476   1.259 -2.4059  0.9901  0.3567
18806TIP3   OH277832   3.306   1.958  17.130  0.5230 -0.5190 -0.4813
18806TIP3    H177833   3.249   1.966  17.206  1.2168  1.0613 -0.0833
18806TIP3    H277834   3.386   2.005  17.155  0.9823 -0.4662 -1.9638
18807TIP3   OH277835   2.545   4.254  17.184  0.1636 -0.3550 -0.1758
18807TIP3    H177836   2.476   4.212  17.132 -0.2344  0.6702 -0.4874
18807TIP3    H277837   2.622   4.253  17.127  0.2189 -0.8529 -0.0966
18808TIP3   OH277838   3.268   0.920  13.119  0.2908 -0.1681  0.0089
18808TIP3    H177839   3.302   0.904  13.031  0.8013  0.4438  0.0880
18808TIP3    H277840   3.326   0.986  13.155 -0.2575 -0.0035  0.6037
18809TIP3   OH277841   6.474   4.565  16.554  0.1326 -0.2439 -0.4901
18809TIP3    H177842   6.468   4.595  16.464  1.7417  0.8946 -0.2590
18809TIP3    H277843   6.525   4.484  16.549 -0.2670 -0.4876 -0.6492
18810TIP3   OH277844   2.597   5.706  13.605  0.0641 -0.4078  0.2299
18810TIP3    H177845   2.597   5.660  13.688 -0.7535  0.0884  0.5148
18810TIP3    H277846   2.613   5.798  13.629  2.3125 -0.5873 -0.3745
18811TIP3   OH277847   3.912   3.204  11.190 -0.3201  0.5457  0.3915
18811TIP3    H177848   3.962   3.203  11.271  0.3892 -1.4394 -0.0076
18811TIP3    H277849   3.831   3.159  11.211 -0.8021  1.3921  0.3691
18812TIP3   OH277850   1.808   4.164   5.015  0.5067  0.1215  0.3625
18812TIP3    H177851   1.882   4.207   5.058 -1.8808  1.2677  3.6795
18812TIP3    H277852   1.756   4.127   5.086 -2.8900  0.6907 -1.6066
18813TIP3   OH277853   4.327   4.841  14.695  0.7961 -0.2515  0.0829
18813TIP3    H177854   4.404   4.863  14.641  1.1704  0.9610  1.0515
18813TIP3    H277855   4.253   4.879  14.647  0.9467 -0.3942 -0.2667
18814TIP3   OH277856   4.557   1.694   1.830 -0.3992  0.3702  0.0555
18814TIP3    H177857   4.593   1.676   1.917  0.6445 -1.3290 -0.6723
18814TIP3    H277858   4.606   1.770   1.799  1.6785 -1.0355 -0.3342
18815TIP3   OH277859   0.292   5.753  16.146  0.3896  0.0482 -0.2360
18815TIP3    H177860   0.317   5.720  16.232  1.4374  0.6599 -0.2965
18815TIP3    H277861   0.337   5.837  16.138 -0.1347  0.2577 -1.1577
18816TIP3   OH277862   3.464   3.748  16.784  0.5508  0.0892  0.1279
18816TIP3    H177863   3.436   3.763  16.694  0.8611  0.7056  0.1269
18816TIP3    H277864   3.557   3.769  16.784  0.8431 -1.1290  0.3129
18817TIP3   OH277865   2.128   0.318  11.013 -0.1027 -0.0812 -0.9422
18817TIP3    H177866   2.159   0.399  10.973 -1.5678  0.1675 -1.6345
18817TIP3    H277867   2.183   0.250  10.975  2.9781  0.7552  1.6157
18818TIP3   OH277868   5.005   2.320  17.149 -0.2522 -0.3982  0.3480
18818TIP3    H177869   4.920   2.343  17.184 -1.8332 -2.1548 -2.0133
18818TIP3    H277870   5.061   2.394  17.171 -2.6555  1.3386  1.0258
18819TIP3   OH277871   5.884   1.442  16.150  0.1236 -0.1507  0.5459
18819TIP3    H177872   5.792   1.470  16.158 -0.0154 -0.6051  0.5460
18819TIP3    H277873   5.934   1.515  16.187 -0.1159  0.9641 -1.2021
18820TIP3   OH277874   2.501   2.946   5.552  0.9687 -0.1882  0.3993
18820TIP3    H177875   2.420   2.953   5.602 -0.0468 -0.5820 -1.1197
18820TIP3    H277876   2.531   3.036   5.543  0.8969 -0.0713  1.2803
18821TIP3   OH277877   5.360   6.017   0.773  0.5357 -0.4670 -0.4673
18821TIP3    H177878   5.279   6.059   0.742  0.1195 -2.0776 -1.6809
18821TIP3    H277879   5.419   6.021   0.698  1.3898  0.1721  0.2289
18822TIP3   OH277880   5.924   5.915  12.380  0.5143 -0.7574 -0.1335
18822TIP3    H177881   5.952   5.924  12.289  1.0629  1.1259  0.1852
18822TIP3    H277882   5.907   6.005  12.409  1.9215 -1.1428  2.1137
18823TIP3   OH277883   0.680   3.353   5.640 -0.4545 -0.0923  0.0896
18823TIP3    H177884   0.629   3.323   5.564 -0.7519  3.6382 -1.3937
18823TIP3    H277885   0.766   3.374   5.605  0.1807 -0.5294  1.3198
18824TIP3   OH277886   0.331   6.398  16.611 -0.1225 -0.5064  0.1861
18824TIP3    H177887   0.410   6.370  16.656 -0.6812 -2.3705  0.0761
18824TIP3    H277888   0.274   6.321  16.611 -0.8362 -0.0697 -2.2005
18825TIP3   OH277889   4.709   1.953  15.361  0.0393 -0.2419  0.0719
18825TIP3    H177890   4.646   1.936  15.431 -0.0501  0.6946  0.2347
18825TIP3    H277891   4.784   1.898  15.382 -0.2115 -0.3878  0.5998
18826TIP3   OH277892   2.810   0.266   5.656 -0.0460 -0.8697 -0.1623
18826TIP3    H177893   2.871   0.324   5.611 -1.9209 -0.1564 -1.9498
18826TIP3    H277894   2.785   0.202   5.590 -2.1055 -0.4181  0.1269
18827TIP3   OH277895   4.809   6.647  16.218 -0.0003 -0.3530 -0.1569
18827TIP3    H177896   4.721   6.624  16.187 -0.7105  0.7252  0.9253
18827TIP3    H277897   4.865   6.576  16.187 -1.3434 -1.3376 -0.4409
18828TIP3   OH277898   2.218   4.070  12.846  0.3732 -0.1610  0.1234
18828TIP3    H177899   2.189   4.114  12.766 -1.9488 -0.7128  0.5688
18828TIP3    H277900   2.146   4.011  12.867  1.3818 -0.7662  2.0682
18829TIP3   OH277901   3.687   5.961   2.761  0.1607 -0.1156  0.0999
18829TIP3    H177902   3.730   6.017   2.825 -0.6240  0.6233  0.0016
18829TIP3    H277903   3.595   5.963   2.785 -0.1450  0.1661 -1.0276
18830TIP3   OH277904   4.198   6.753   0.096 -0.3758  0.5942  0.0451
18830TIP3    H177905   4.233   6.839   0.075 -0.4583  1.2091  2.2841
18830TIP3    H277906   4.267   6.692   0.069 -1.0004  1.1161 -3.2110
18831TIP3   OH277907   5.550   0.772   2.126  0.2072  0.0694 -0.0722
18831TIP3    H177908   5.601   0.695   2.103 -0.3055  0.4806 -2.9862
18831TIP3    H277909   5.571   0.836   2.058 -1.7836  1.3739  0.4445
18832TIP3   OH277910   0.545   3.203  14.019  0.7072  0.3611  0.2686
18832TIP3    H177911   0.498   3.286  14.022 -2.7585 -1.4540  1.5194
18832TIP3    H277912   0.544   3.178  13.926 -1.7351 -0.0399  0.3580
18833TIP3   OH277913   0.997   5.904   2.272  0.4470  0.0892  0.5374
18833TIP3    H177914   0.948   5.966   2.326  1.4397  0.4425  1.0569
18833TIP3    H277915   0.966   5.818   2.299 -1.8396  0.3306 -1.0459
18834TIP3   OH277916   3.281   1.921   4.881 -0.2221 -0.0657 -0.0548
18834TIP3    H177917   3.216   1.981   4.918 -0.1823 -1.2395  2.0298
18834TIP3    H277918   3.363   1.943   4.925 -0.2444 -1.7197  0.9134
18835TIP3   OH277919   0.251   2.294   3.513  0.1625 -0.2982  0.4249
18835TIP3    H177920   0.243   2.319   3.421  2.2480  1.0354  0.5246
18835TIP3    H277921   0.256   2.199   3.512  0.5843 -0.2780 -0.8952
18836TIP3   OH277922   2.809   6.416  12.181 -0.1134  0.5373 -0.5062
18836TIP3    H177923   2.757   6.489  12.215  1.0559  1.3030 -0.3093
18836TIP3    H277924   2.782   6.341  12.234 -1.5677  0.7324 -0.9263
18837TIP3   OH277925   2.054   1.684  13.091  0.2586  0.0160  0.4518
18837TIP3    H177926   2.121   1.738  13.049  0.6070 -0.5835  0.2245
18837TIP3    H277927   1.974   1.705  13.043  0.3894  0.3454  0.3741
18838TIP3   OH277928   0.852   4.162   6.416  0.9275  0.4037  0.0516
18838TIP3    H177929   0.918   4.222   6.450  1.9529  0.6235 -2.1612
18838TIP3    H277930   0.795   4.217   6.362 -0.0269 -0.1022  0.4993
18839TIP3   OH277931   5.117   5.455   3.717 -0.2848  0.5840  0.4625
18839TIP3    H177932   5.028   5.463   3.751 -0.6790  1.0781 -0.6272
18839TIP3    H277933   5.111   5.485   3.626  0.5798 -1.3421 -0.2814
18840TIP3   OH277934   5.738   6.493   2.235  0.3067 -0.5729 -0.1501
18840TIP3    H177935   5.763   6.582   2.210 -0.2379 -0.3865 -0.0512
18840TIP3    H277936   5.685   6.462   2.161 -0.1106 -0.5474  0.1375
18841TIP3   OH277937   2.641   3.226   5.503  0.0570 -0.1313  0.7531
18841TIP3    H177938   2.678   3.204   5.589 -0.6507  3.2640  2.0930
18841TIP3    H277939   2.665   3.318   5.490 -0.1643 -0.4305 -2.5881
18842TIP3   OH277940   1.544   1.212  15.126  0.7493  0.2847 -0.4495
18842TIP3    H177941   1.588   1.201  15.211  0.2821 -2.6048 -0.4808
18842TIP3    H277942   1.460   1.252  15.147  0.3346 -1.0577  0.5978
18843TIP3   OH277943   5.253   4.431  17.018  0.1400 -0.0896 -0.1393
18843TIP3    H177944   5.210   4.360  17.066  0.6389  0.8074  1.7563
18843TIP3    H277945   5.340   4.396  16.998  0.3914 -0.0418  0.8013
18844TIP3   OH277946   2.642   2.187  13.050 -0.0729  0.3373  0.1275
18844TIP3    H177947   2.596   2.159  12.971  2.3248  0.6124 -1.4806
18844TIP3    H277948   2.653   2.281  13.039 -1.5517  0.7521  1.8710
18845TIP3   OH277949   4.868   2.113   3.799 -0.6399 -0.4052 -0.2274
18845TIP3    H177950   4.863   2.115   3.895  0.0092  2.0368 -0.1902
18845TIP3    H277951   4.952   2.154   3.778 -1.2580  0.1234 -1.8600
18846TIP3   OH277952   0.369   2.051  17.309 -0.3595 -0.7285  0.2794
18846TIP3    H177953   0.318   1.974  17.282 -0.6617 -0.3450 -0.2801
18846TIP3    H277954   0.454   2.015  17.333 -0.7321 -1.3250  0.7508
18847TIP3   OH277955   2.579   4.763   3.045  0.7340  0.0089 -0.2858
18847TIP3    H177956   2.625   4.813   3.112 -0.6478 -0.4563  1.0513
18847TIP3    H277957   2.624   4.679   3.043  0.7000 -0.0199  0.1426
18848TIP3   OH277958   1.828   2.420   3.606  0.1622  0.3632 -0.1613
18848TIP3    H177959   1.748   2.396   3.653  0.7211 -0.9321  0.1633
18848TIP3    H277960   1.899   2.394   3.664  0.8639 -0.9923 -1.5300
18849TIP3   OH277961   6.160   3.597   0.581  0.2732 -0.1135 -0.3689
18849TIP3    H177962   6.087   3.620   0.524 -0.0552 -0.0903  0.0605
18849TIP3    H277963   6.188   3.679   0.620  0.4309 -0.1450 -0.4131
18850TIP3   OH277964   0.395   1.490   2.341 -0.1806  0.1248 -0.6034
18850TIP3    H177965   0.398   1.415   2.400  0.7232 -0.1311 -0.9545
18850TIP3    H277966   0.386   1.566   2.398  2.5637  0.0577  0.0476
18851TIP3   OH277967   2.320   5.230   1.383 -0.8528  0.2611  0.6799
18851TIP3    H177968   2.241   5.261   1.339 -1.3766  1.0197  2.1159
18851TIP3    H277969   2.297   5.224   1.475  0.1025 -1.6763  0.8676
18852TIP3   OH277970   2.674   5.968   1.574  1.0644 -0.3264  0.3738
18852TIP3    H177971   2.734   5.894   1.577  0.6243 -0.6762  3.1377
18852TIP3    H277972   2.726   6.040   1.539  1.6366 -1.7304 -1.9231
18853TIP3   OH277973   4.622   1.381  12.077 -0.2319 -0.0847 -0.0108
18853TIP3    H177974   4.528   1.395  12.064 -0.7374 -3.3084 -0.8284
18853TIP3    H277975   4.635   1.393  12.171 -1.6864 -0.5263  0.2699
18854TIP3   OH277976   5.805   0.919  12.439 -0.5468 -0.4123  0.1289
18854TIP3    H177977   5.749   0.905  12.363 -0.3237  3.3650 -0.9215
18854TIP3    H277978   5.745   0.920  12.514 -1.2691 -0.6494 -0.4430
18855TIP3   OH277979   2.225   2.889  12.143 -0.2462  0.1224  0.1953
18855TIP3    H177980   2.270   2.873  12.060 -1.5816  2.3361 -1.0771
18855TIP3    H277981   2.158   2.822  12.148 -0.9703  0.7058 -1.2075
18856TIP3   OH277982   4.199   1.121   5.525 -0.5459 -0.0018  0.6744
18856TIP3    H177983   4.138   1.105   5.453 -1.2518 -0.7549  1.4288
18856TIP3    H277984   4.170   1.062   5.595  1.7112 -1.2424  0.6640
18857TIP3   OH277985   2.925   5.999  13.795 -0.4438 -0.3077  0.2971
18857TIP3    H177986   2.916   5.984  13.701 -1.5458 -0.7979  0.4618
18857TIP3    H277987   3.019   5.998  13.811 -0.1043  1.8907 -1.1349
18858TIP3   OH277988   0.860   5.544  15.372  0.0075 -0.5355  0.3850
18858TIP3    H177989   0.917   5.478  15.411  0.2013  0.7619  2.4534
18858TIP3    H277990   0.845   5.608  15.443  1.0827  2.4842 -1.9015
18859TIP3   OH277991   4.179   4.554  15.043 -0.3021 -0.0656 -0.6426
18859TIP3    H177992   4.252   4.557  14.980 -0.2536 -0.1404 -0.5907
18859TIP3    H277993   4.181   4.639  15.086  0.8751 -0.6898  0.6163
18860TIP3   OH277994   2.587   2.671   0.782  0.0730  0.5074 -0.1030
18860TIP3    H177995   2.557   2.591   0.739  1.0532  0.2473 -0.3252
18860TIP3    H277996   2.681   2.658   0.794  0.2036  1.5351  0.0644
18861TIP3   OH277997   4.724   0.896  16.362 -0.1889 -0.1965 -0.0396
18861TIP3    H177998   4.699   0.988  16.372 -0.0955  0.1889 -2.8055
18861TIP3    H277999   4.641   0.851  16.346 -0.2516 -0.6862  1.4455
18862TIP3   OH278000   0.503   1.998  15.553  0.0118 -0.4565  0.1576
18862TIP3    H178001   0.458   1.916  15.533  0.0416 -0.8874  1.7486
18862TIP3    H278002   0.529   2.032  15.467  0.0866 -2.1433 -0.5274
18863TIP3   OH278003   2.238   2.517  17.058 -0.2933  0.2167  0.0412
18863TIP3    H178004   2.253   2.433  17.014 -2.4187 -0.6853  0.9232
18863TIP3    H278005   2.263   2.582  16.993 -0.4791 -1.0814 -1.4097
18864TIP3   OH278006   1.763   2.357  15.463 -0.4474  0.1793  0.0479
18864TIP3    H178007   1.749   2.320  15.550 -0.1409 -0.5284 -0.1924
18864TIP3    H278008   1.702   2.308  15.407  1.0658 -1.1104 -0.5523
18865TIP3   OH278009   5.315   1.836  14.896  0.7599  0.4592  0.3904
18865TIP3    H178010   5.285   1.755  14.853  0.5478  1.1985 -0.8920
18865TIP3    H278011   5.283   1.827  14.986 -2.9412  0.9151 -0.7040
18866TIP3   OH278012   1.814   3.108   5.937 -0.0103  0.1268  0.4760
18866TIP3    H178013   1.878   3.085   5.871 -0.0564  0.8793  0.1528
18866TIP3    H278014   1.864   3.154   6.005 -0.5219  3.2962 -1.0885
18867TIP3   OH278015   4.589   1.969   6.423  0.3625 -0.6168 -0.0234
18867TIP3    H178016   4.570   1.877   6.408  1.3998 -1.0256  1.0763
18867TIP3    H278017   4.684   1.975   6.426  0.3051  0.1311  1.9175
18868TIP3   OH278018   3.397   0.948  16.658  0.0067 -0.2384 -0.3154
18868TIP3    H178019   3.353   0.864  16.648  1.0126 -0.5928 -2.1458
18868TIP3    H278020   3.378   0.996  16.577  3.5429 -0.7531 -1.6438
18869TIP3   OH278021   3.690   3.297  13.122 -0.5310  0.0818  0.2060
18869TIP3    H178022   3.639   3.280  13.043 -0.8948 -1.9467  0.8262
18869TIP3    H278023   3.662   3.230  13.184  0.9720  0.5674  1.4847
18870TIP3   OH278024   1.419   6.606  16.170 -0.7011  0.5644 -0.1424
18870TIP3    H178025   1.448   6.695  16.191 -0.6680  0.2784  1.1675
18870TIP3    H278026   1.330   6.600  16.207 -0.3596 -0.2056  0.6123
18871TIP3   OH278027   0.319   1.976   4.279  0.3100  0.9989 -0.5784
18871TIP3    H178028   0.245   1.969   4.219 -0.1298  2.1332 -0.1831
18871TIP3    H278029   0.396   1.958   4.224 -0.2318 -0.2251 -0.9788
18872TIP3   OH278030   6.698   1.055  13.138  0.1956  0.6741 -0.0059
18872TIP3    H178031   6.718   0.971  13.178 -0.1951  1.0926  1.1212
18872TIP3    H278032   6.770   1.112  13.164  1.1375  0.3790 -1.8516
18873TIP3   OH278033   5.294   5.994  12.468  0.0732 -0.6693  0.4025
18873TIP3    H178034   5.279   5.943  12.547  2.1332 -2.1756 -0.0905
18873TIP3    H278035   5.280   6.085  12.495 -1.3595 -1.2823  1.9094
18874TIP3   OH278036   6.576   5.187   6.305  0.1861  0.1945 -0.1537
18874TIP3    H178037   6.492   5.216   6.271  0.3350  0.0886 -0.6155
18874TIP3    H278038   6.606   5.260   6.360  0.6203  1.0045 -1.4179
18875TIP3   OH278039   4.479   1.610   0.157 -0.0854  0.7483  0.3437
18875TIP3    H178040   4.530   1.579   0.082  0.5697  0.4403  0.9102
18875TIP3    H278041   4.522   1.691   0.183 -0.4750  0.9952  0.2326
18876TIP3   OH278042   3.809   5.748   1.863  1.0212 -0.0947 -0.5134
18876TIP3    H178043   3.772   5.795   1.788 -1.0307 -1.1214 -0.2034
18876TIP3    H278044   3.853   5.673   1.824 -1.6088 -1.6574 -0.7036
18877TIP3   OH278045   5.532   5.181   2.448 -0.7036 -0.5499 -0.5972
18877TIP3    H178046   5.465   5.132   2.497 -0.1232 -0.1226  0.6561
18877TIP3    H278047   5.611   5.172   2.501 -0.3809  1.0278 -0.7826
18878TIP3   OH278048   0.590   6.275  14.950 -0.3882  0.3477  0.0371
18878TIP3    H178049   0.522   6.208  14.940 -0.0601 -0.2336  1.4442
18878TIP3    H278050   0.673   6.226  14.946 -0.0512  0.9976 -1.2618
18879TIP3   OH278051   5.686   6.565  10.840 -0.0897 -0.1841 -0.4225
18879TIP3    H178052   5.713   6.481  10.878 -1.1407 -0.2881  0.1299
18879TIP3    H278053   5.609   6.591  10.890 -0.9752  0.1284 -1.8699
18880TIP3   OH278054   1.795   3.462   4.473 -0.1538  0.0452 -0.2939
18880TIP3    H178055   1.851   3.418   4.409 -1.9819  0.4659 -2.3510
18880TIP3    H278056   1.821   3.554   4.469  0.0322  0.0005 -0.1003
18881TIP3   OH278057   1.569   2.626   3.760 -0.0699  0.2216 -0.3287
18881TIP3    H178058   1.581   2.660   3.848  0.6809  0.3798 -0.4830
18881TIP3    H278059   1.583   2.532   3.768  0.3603  0.2819 -0.3351
18882TIP3   OH278060   5.914   2.982   1.181  0.0012 -0.0906  0.1266
18882TIP3    H178061   5.893   2.919   1.112 -0.8586 -0.9670  1.1490
18882TIP3    H278062   6.010   2.985   1.182  0.0682  1.2018 -2.1754
18883TIP3   OH278063   4.677   2.650   6.684  0.2751  0.7275  0.4859
18883TIP3    H178064   4.630   2.574   6.648 -0.1749  0.7054  1.1044
18883TIP3    H278065   4.755   2.613   6.725 -0.0637  0.5614  0.9957
18884TIP3   OH278066   2.428   6.677  13.517  0.1163  0.6284 -0.1514
18884TIP3    H178067   2.496   6.712  13.460 -1.3222  1.2298 -1.5989
18884TIP3    H278068   2.448   6.584  13.525  0.8484  0.7084 -0.9333
18885TIP3   OH278069   5.553   1.388  14.186  0.0021  0.6559 -0.1681
18885TIP3    H178070   5.571   1.482  14.188  0.8191  0.4914  0.7906
18885TIP3    H278071   5.614   1.353  14.121 -0.6339  0.8443 -0.8778
18886TIP3   OH278072   2.476   5.382  13.289 -0.2664 -0.2467  0.1580
18886TIP3    H178073   2.524   5.306  13.256  1.2477  1.5978 -2.2257
18886TIP3    H278074   2.540   5.430  13.341 -1.4069 -0.8814  2.2323
18887TIP3   OH278075   4.759   5.689  12.401 -0.4800  0.0384 -0.2680
18887TIP3    H178076   4.827   5.723  12.343  2.7093 -2.5044  1.6360
18887TIP3    H278077   4.732   5.607  12.360 -2.1375  0.7434 -0.7029
18888TIP3   OH278078   5.211   2.601  16.346  0.1349  0.2206 -0.3762
18888TIP3    H178079   5.255   2.569  16.267 -1.9926 -0.8299 -1.2221
18888TIP3    H278080   5.155   2.529  16.373  0.0136  0.9644  1.4932
18889TIP3   OH278081   4.532   1.731  13.092 -0.2015  0.0266  0.2672
18889TIP3    H178082   4.557   1.647  13.053 -0.3235 -0.1519  0.5681
18889TIP3    H278083   4.513   1.787  13.017  0.8579  0.0931  0.0336
18890TIP3   OH278084   3.737   1.726  14.167 -0.5685 -0.1773 -0.9945
18890TIP3    H178085   3.783   1.646  14.143 -0.9284 -0.2487 -1.4608
18890TIP3    H278086   3.668   1.698  14.227  1.4490  0.2191  1.6460
18891TIP3   OH278087   6.497   1.617  10.840  0.2599 -0.0623 -1.2589
18891TIP3    H178088   6.586   1.649  10.850 -0.1882  1.1502 -1.0054
18891TIP3    H278089   6.495   1.575  10.754  0.7253  1.1111 -1.8550
18892TIP3   OH278090   0.452   2.397  11.440 -0.0458 -0.2184 -0.5569
18892TIP3    H178091   0.525   2.345  11.406  0.4294  0.5852 -0.7793
18892TIP3    H278092   0.411   2.435  11.363 -0.2458 -0.0724 -0.3812
18893TIP3   OH278093   1.717   5.247  14.697  0.3560  0.2802 -0.2862
18893TIP3    H178094   1.640   5.250  14.755  0.7035 -0.6331  0.2406
18893TIP3    H278095   1.683   5.210  14.615  0.4884 -1.4625  0.4088
18894TIP3   OH278096   4.312   1.603   1.757 -0.2990 -0.2315 -0.2642
18894TIP3    H178097   4.246   1.670   1.770  0.9467  1.1011 -0.5678
18894TIP3    H278098   4.395   1.648   1.770  0.6517 -1.2572 -2.2619
18895TIP3   OH278099   1.049   0.750   0.640  0.1832 -0.4098  0.3192
18895TIP3    H178100   1.020   0.686   0.574  1.4743 -0.3813 -0.3036
18895TIP3    H278101   1.092   0.697   0.707  0.0593 -0.3103  0.4784
18896TIP3   OH278102   3.177   4.923   1.151  0.1539 -0.2004  0.7635
18896TIP3    H178103   3.128   4.841   1.146 -0.0105 -0.0743  0.2040
18896TIP3    H278104   3.112   4.991   1.135  0.2725  0.0490  1.3155
18897TIP3   OH278105   0.186   1.494   1.265 -0.4438  0.6191  0.0826
18897TIP3    H178106   0.184   1.409   1.308 -1.3371  0.2860 -0.5927
18897TIP3    H278107   0.228   1.552   1.329 -1.2459  0.0143  1.1965
18898TIP3   OH278108   4.372   4.302   6.174 -0.0286  0.3887  0.1073
18898TIP3    H178109   4.288   4.325   6.135  0.7243 -0.2271 -2.0258
18898TIP3    H278110   4.350   4.257   6.255 -1.7107  1.0826  0.0672
18899TIP3   OH278111   3.203   2.894   1.568  0.8501 -0.7082 -0.1009
18899TIP3    H178112   3.214   2.819   1.626  0.3302 -0.5009  0.2784
18899TIP3    H278113   3.289   2.937   1.567  0.5735 -0.0377  1.4854
18900TIP3   OH278114   2.174   5.312   4.161 -0.3304  0.4010 -0.7856
18900TIP3    H178115   2.222   5.285   4.239 -1.1638  1.1700  0.0134
18900TIP3    H278116   2.238   5.360   4.109 -0.0186  0.7540 -0.0929
18901TIP3   OH278117   4.873   3.484  13.728 -0.1893 -0.4929  0.3559
18901TIP3    H178118   4.790   3.531  13.728  0.5409  0.8244  0.4491
18901TIP3    H278119   4.938   3.548  13.759  1.2637 -0.7620 -1.9057
18902TIP3   OH278120   2.525   6.163  12.782 -0.3279  0.3323 -0.5059
18902TIP3    H178121   2.596   6.145  12.843  0.7793  0.9311 -1.5917
18902TIP3    H278122   2.457   6.099  12.805  1.5585 -2.0582 -1.1297
18903TIP3   OH278123   3.169   6.573  15.180 -0.3052 -0.7249 -0.3879
18903TIP3    H178124   3.263   6.570  15.197 -0.4614  1.9769  1.4604
18903TIP3    H278125   3.160   6.631  15.104 -0.4691 -1.0137 -0.5900
18904TIP3   OH278126   5.807   1.532  10.749 -0.0206 -0.1938 -0.3593
18904TIP3    H178127   5.742   1.557  10.684 -2.1754 -0.4818  1.5540
18904TIP3    H278128   5.767   1.556  10.833  0.8573 -3.4584  1.1420
18905TIP3   OH278129   4.954   5.948  13.445  0.1823 -0.6072 -0.2581
18905TIP3    H178130   4.948   5.895  13.524  0.8913 -2.6753 -1.5118
18905TIP3    H278131   5.011   6.021  13.469 -0.1220 -0.8553  1.2983
18906TIP3   OH278132   5.270   4.189  12.778 -0.0445  0.5096 -0.1976
18906TIP3    H178133   5.212   4.136  12.833  0.7294 -1.0964 -0.8651
18906TIP3    H278134   5.225   4.272  12.768 -1.3743 -0.0688  0.7807
18907TIP3   OH278135   0.400   1.791  14.072 -0.0873 -0.0475  0.4055
18907TIP3    H178136   0.444   1.805  13.988 -2.2936 -1.0603 -1.0071
18907TIP3    H278137   0.366   1.877  14.097 -2.4550 -0.2959 -1.6186
18908TIP3   OH278138   6.468   1.587   4.359  0.6152  0.3131 -0.1094
18908TIP3    H178139   6.385   1.587   4.407  0.1957  0.0318 -0.8146
18908TIP3    H278140   6.521   1.653   4.404  0.2834 -0.0218  0.8046
18909TIP3   OH278141   0.050   0.791  13.178 -0.0617  0.0407  0.1485
18909TIP3    H178142   0.126   0.812  13.233  0.6319 -2.0134  0.0395
18909TIP3    H278143   0.002   0.724  13.227 -1.4896  0.8547 -0.0855
18910TIP3   OH278144   5.563   5.221   0.602  1.1000  0.3000  0.2161
18910TIP3    H178145   5.556   5.316   0.609 -0.3112  0.3630 -1.4482
18910TIP3    H278146   5.646   5.200   0.644  2.6971  2.5555 -1.5938
18911TIP3   OH278147   3.140   0.861   4.088  0.3305 -0.3758  0.4429
18911TIP3    H178148   3.086   0.782   4.087  1.2521 -1.0493 -1.4989
18911TIP3    H278149   3.092   0.923   4.032 -0.2356  0.3878  1.7120
18912TIP3   OH278150   3.407   5.539   3.288 -0.0585  0.3237 -0.0874
18912TIP3    H178151   3.497   5.515   3.265  0.6756  0.1498  2.6093
18912TIP3    H278152   3.387   5.485   3.365 -1.7505  1.7707  0.5615
18913TIP3   OH278153   1.186   2.873   2.532  0.4338 -0.0793 -0.5245
18913TIP3    H178154   1.245   2.909   2.598  0.3415  1.3559 -1.1718
18913TIP3    H278155   1.137   2.805   2.577  0.9249  0.3326  0.6622
18914TIP3   OH278156   1.262   6.231  12.643 -0.1062  0.1530  0.0775
18914TIP3    H178157   1.293   6.142  12.658  0.2761  0.0256 -1.2987
18914TIP3    H278158   1.168   6.227  12.659 -0.0061 -0.3652  0.5603
18915TIP3   OH278159   5.553   4.348  14.745 -0.6373 -0.1531 -0.0696
18915TIP3    H178160   5.575   4.354  14.838  0.6478  1.8816 -0.4517
18915TIP3    H278161   5.607   4.275  14.713 -1.0182 -0.8046  0.7462
18916TIP3   OH278162   6.322   0.706   4.693  0.0344 -0.7805  0.5171
18916TIP3    H178163   6.315   0.745   4.780 -0.9255 -1.3156  0.6902
18916TIP3    H278164   6.390   0.639   4.702 -0.1200 -0.8879  0.8714
18917TIP3   OH278165   1.746   6.551  15.809  0.2970 -0.1018 -0.5984
18917TIP3    H178166   1.814   6.613  15.834 -0.8095  0.4746  1.1192
18917TIP3    H278167   1.781   6.508  15.731  1.7486  1.5891 -0.9513
18918TIP3   OH278168   6.132   4.737   5.819 -0.4651 -0.0444 -0.4422
18918TIP3    H178169   6.205   4.784   5.858 -1.8222  1.8873 -0.0535
18918TIP3    H278170   6.171   4.658   5.783  1.7423  0.7422  0.0351
18919TIP3   OH278171   4.963   3.283   2.779 -0.3363  0.5944 -0.3763
18919TIP3    H178172   5.035   3.267   2.717  0.0251  1.3179 -0.1572
18919TIP3    H278173   4.903   3.209   2.765  1.0004 -0.6631  0.2674
18920TIP3   OH278174   0.367   2.493   1.755 -0.7204 -0.9001 -0.1016
18920TIP3    H178175   0.347   2.547   1.678 -0.6673 -0.7730 -0.0262
18920TIP3    H278176   0.348   2.404   1.726 -0.7886 -0.8445 -0.2341
18921TIP3   OH278177   4.225   2.575  11.492 -0.3459  0.2511  0.3642
18921TIP3    H178178   4.238   2.496  11.440 -0.4874  0.5349 -0.1119
18921TIP3    H278179   4.312   2.595  11.527  0.0148  0.7106 -0.7351
18922TIP3   OH278180   2.435   4.573   0.230  0.3582 -0.3538 -0.0078
18922TIP3    H178181   2.415   4.557   0.138  1.7583  1.4452 -0.6826
18922TIP3    H278182   2.455   4.486   0.266 -0.2826 -1.0891 -1.3589
18923TIP3   OH278183   5.291   1.144  13.855  0.0511 -0.3724  0.1631
18923TIP3    H178184   5.229   1.071  13.851  1.6696 -1.7799 -0.8246
18923TIP3    H278185   5.338   1.132  13.937  1.0659 -1.1586 -0.4943
18924TIP3   OH278186   1.219   0.019  15.333  0.3022  0.9971  0.3558
18924TIP3    H178187   1.302  -0.017  15.301 -0.8483 -0.3835 -1.2380
18924TIP3    H278188   1.212   0.105  15.290  1.0258  1.2703  0.7570
18925TIP3   OH278189   3.728   6.655   4.474 -0.0779 -0.0155  0.4824
18925TIP3    H178190   3.659   6.652   4.540  0.2291 -0.1416  0.8049
18925TIP3    H278191   3.728   6.568   4.435 -1.6021  0.6509 -1.1052
18926TIP3   OH278192   0.581   4.044   6.117  0.0664 -0.0127  0.3613
18926TIP3    H178193   0.629   4.121   6.085 -2.4731  2.2766  1.7277
18926TIP3    H278194   0.519   4.024   6.047 -0.9631  0.7989  1.0190
18927TIP3   OH278195   4.769   0.701   5.253 -0.3968 -0.6697 -0.7365
18927TIP3    H178196   4.775   0.696   5.158  1.8392 -0.3486 -0.6634
18927TIP3    H278197   4.860   0.709   5.283 -1.1209  0.7833  1.3357
18928TIP3   OH278198   1.434   6.724   2.909  0.2202 -0.3808  0.1179
18928TIP3    H178199   1.503   6.715   2.975  0.1909  0.0290  0.2031
18928TIP3    H278200   1.385   6.642   2.916  1.1124 -0.9740 -0.4215
18929TIP3   OH278201   0.876   0.871   2.007 -0.1040 -0.4419 -0.2499
18929TIP3    H178202   0.941   0.819   1.960  1.5487  1.4000 -0.1562
18929TIP3    H278203   0.817   0.903   1.938  0.4962 -0.2397 -0.6850
18930TIP3   OH278204   6.219   2.588   6.791 -0.6462  0.3766  0.2200
18930TIP3    H178205   6.175   2.668   6.763  1.5682  0.4370 -3.6825
18930TIP3    H278206   6.181   2.519   6.736  2.2986  0.0780 -1.6632
18931TIP3   OH278207   5.914   5.499  16.192 -0.4502 -0.1546 -0.5219
18931TIP3    H178208   5.861   5.444  16.251 -0.0736  0.4267  0.3847
18931TIP3    H278209   5.855   5.569  16.165 -0.1618  0.5192  0.5252
18932TIP3   OH278210   5.835   5.160  12.824  0.0723 -0.1609 -0.1738
18932TIP3    H178211   5.924   5.146  12.855 -0.4804 -0.2291  1.4593
18932TIP3    H278212   5.829   5.255  12.812 -0.0462  0.0119  1.1020
18933TIP3   OH278213   3.395   6.653   3.842  0.4313  0.2278 -0.7013
18933TIP3    H178214   3.354   6.579   3.797  0.0148  1.0107 -1.6365
18933TIP3    H278215   3.477   6.617   3.876  0.5197 -0.5226 -1.6615
18934TIP3   OH278216   6.279   3.346  16.599 -0.1776 -0.3279  0.2701
18934TIP3    H178217   6.183   3.351  16.591 -0.1469  1.3684  0.5637
18934TIP3    H278218   6.295   3.260  16.639 -1.5525 -0.7456 -0.0141
18935TIP3   OH278219   4.409   6.365  17.288 -0.5330 -0.3205  0.1359
18935TIP3    H178220   4.433   6.292  17.232  0.3134 -0.4978  0.7078
18935TIP3    H278221   4.364   6.426  17.230  1.8465  0.3093 -1.1824
18936TIP3   OH278222   1.241   3.375   1.146 -0.3924 -0.2566  0.5108
18936TIP3    H178223   1.202   3.418   1.070  0.3544  0.0239  0.2751
18936TIP3    H278224   1.172   3.317   1.178 -0.9823  0.1812  0.0788
18937TIP3   OH278225   2.460   3.312   4.387  0.4107 -0.0855 -0.3219
18937TIP3    H178226   2.383   3.259   4.369 -0.6482  0.2233  2.6393
18937TIP3    H278227   2.513   3.258   4.446  0.1280  1.3779  1.3864
18938TIP3   OH278228   4.127   4.338   3.981  0.0124  0.5103 -0.3867
18938TIP3    H178229   4.040   4.354   4.019 -0.2369  0.2945 -0.8629
18938TIP3    H278230   4.139   4.243   3.988  0.2979  0.5626 -0.1407
18939TIP3   OH278231   1.883   0.224   3.485  0.3033  0.0086  0.1856
18939TIP3    H178232   1.923   0.221   3.571  3.1164  1.4945 -0.9694
18939TIP3    H278233   1.919   0.148   3.439 -1.6403 -1.1292  0.3908
18940TIP3   OH278234   6.343   3.330   0.309  0.2071  0.6496 -0.2480
18940TIP3    H178235   6.248   3.341   0.309  0.1470  0.2143  0.8563
18940TIP3    H278236   6.356   3.236   0.320  0.7720  0.5183 -1.7636
18941TIP3   OH278237   2.554   6.452  14.694  0.3106 -0.1534  0.5172
18941TIP3    H178238   2.586   6.373  14.737  0.7067 -0.0323  0.4530
18941TIP3    H278239   2.567   6.521  14.760  1.0765  0.0625  0.1515
18942TIP3   OH278240   6.542   5.846  14.548  0.2032 -0.4627  0.4368
18942TIP3    H178241   6.523   5.785  14.619 -0.4674  0.2248  0.8725
18942TIP3    H278242   6.565   5.928  14.593  0.8289 -0.3184 -0.1296
18943TIP3   OH278243   4.994   6.609   0.395 -0.2580 -0.6012 -0.2034
18943TIP3    H178244   5.054   6.564   0.335  2.0981  0.0635  1.5165
18943TIP3    H278245   4.949   6.674   0.341  1.7108 -0.0847 -1.3032
18944TIP3   OH278246   4.682   3.533   0.558 -0.1701  0.2976 -0.2455
18944TIP3    H178247   4.659   3.601   0.622  1.4007  1.7685 -1.1638
18944TIP3    H278248   4.708   3.582   0.480 -1.0609 -1.4337 -1.6954
18945TIP3   OH278249   2.339   5.528  12.871 -0.6677  0.7569  0.1298
18945TIP3    H178250   2.390   5.579  12.934  1.6688  0.6318 -1.5487
18945TIP3    H278251   2.376   5.440  12.876  0.7537  1.1041 -2.5093
18946TIP3   OH278252   4.441   5.743   4.186  0.8365  0.0099  0.6421
18946TIP3    H178253   4.367   5.693   4.150 -0.4465  1.1475  1.6223
18946TIP3    H278254   4.485   5.681   4.244  2.0289 -1.3723 -1.5746
18947TIP3   OH278255   3.205   4.531   6.842 -0.1568  0.0094  0.2095
18947TIP3    H178256   3.235   4.605   6.789 -2.5211  0.0297 -1.2152
18947TIP3    H278257   3.160   4.473   6.781  0.8312 -2.2084  1.4585
18948TIP3   OH278258   1.826   3.494  11.389 -0.0547  0.6415 -0.3246
18948TIP3    H178259   1.807   3.402  11.369  0.3541  0.8986 -2.0656
18948TIP3    H278260   1.827   3.538  11.304  0.6523  2.0961  0.3856
18949TIP3   OH278261   3.518   4.466   1.159 -0.2355  0.5379  0.3040
18949TIP3    H178262   3.479   4.466   1.072 -0.0895  1.5562  0.2198
18949TIP3    H278263   3.472   4.397   1.207  0.2589 -0.6079 -0.8166
18950TIP3   OH278264   2.189   6.268   0.428 -0.2546 -0.0339 -0.2144
18950TIP3    H178265   2.139   6.241   0.506  1.0937 -0.5477  0.5162
18950TIP3    H278266   2.124   6.301   0.367 -1.2356  1.8498  1.7285
18951TIP3   OH278267   4.347   5.734  12.597  0.6728  0.0270 -0.1682
18951TIP3    H178268   4.347   5.680  12.676  3.5921 -0.4942 -0.4242
18951TIP3    H278269   4.331   5.672  12.526  0.9163  0.0121 -0.2102
18952TIP3   OH278270   0.503   1.846   2.216 -0.0846  0.0401  0.2865
18952TIP3    H178271   0.457   1.878   2.293  1.6958  0.6459  1.1494
18952TIP3    H278272   0.565   1.781   2.250  0.9444  0.5403 -0.5779
18953TIP3   OH278273   4.896   1.532  15.950  0.5840 -0.0210 -0.9696
18953TIP3    H178274   4.907   1.602  16.014 -0.0512 -1.5303  0.8731
18953TIP3    H278275   4.830   1.565  15.889 -0.2923  0.6915  0.3264
18954TIP3   OH278276   1.850   5.749  14.921  0.7161  0.1336 -0.7452
18954TIP3    H178277   1.892   5.681  14.867 -0.3079 -1.1640  0.0242
18954TIP3    H278278   1.783   5.702  14.970  0.2751  1.6492  0.1641
18955TIP3   OH278279   6.096   5.603  12.390 -0.1196  0.4307  0.1450
18955TIP3    H178280   6.074   5.656  12.467 -0.1632  0.5235  0.0692
18955TIP3    H278281   6.166   5.545  12.420 -1.1113 -0.5418  0.6640
18956TIP3   OH278282   2.907   5.889  16.478 -0.0353  0.1957 -0.1210
18956TIP3    H178283   2.821   5.923  16.503 -1.1684 -0.9997 -2.1091
18956TIP3    H278284   2.919   5.812  16.533 -1.2228 -0.7982 -1.1633
18957TIP3   OH278285   3.911   1.934  12.412 -0.2180  0.2450  0.3691
18957TIP3    H178286   3.835   1.988  12.392 -0.2950  0.3200  0.8558
18957TIP3    H278287   3.877   1.845  12.418 -0.1601  0.1922 -0.0176
18958TIP3   OH278288   4.621   1.824   4.530 -0.7706  0.0958  0.1621
18958TIP3    H178289   4.585   1.877   4.601  0.8091 -0.4992  1.4636
18958TIP3    H278290   4.716   1.830   4.541 -0.5201 -1.3514 -0.9031
18959TIP3   OH278291   5.443   6.480   4.949  0.2668  0.0470  0.3700
18959TIP3    H178292   5.526   6.466   4.996  1.1910  0.5842 -1.0421
18959TIP3    H278293   5.421   6.571   4.966  1.0718  0.5043 -0.9054
18960TIP3   OH278294   3.850   1.446   5.197 -0.2223  0.0533  0.3663
18960TIP3    H178295   3.926   1.505   5.199 -0.8447  0.8564  2.2300
18960TIP3    H278296   3.886   1.361   5.223  0.1872  0.2214  0.3667
18961TIP3   OH278297   5.043   3.421  12.949 -0.1014 -0.7952 -0.7354
18961TIP3    H178298   4.959   3.462  12.931  1.2364  2.4414 -0.3243
18961TIP3    H278299   5.049   3.419  13.045  0.4049 -0.6808 -0.7601
18962TIP3   OH278300   6.159   4.637  15.677  0.2399 -0.0695 -0.7545
18962TIP3    H178301   6.151   4.638  15.581  0.8707  0.5868 -0.8134
18962TIP3    H278302   6.219   4.709  15.696  1.1426 -0.9951  0.0316
18963TIP3   OH278303   5.402   0.772   3.223  0.4418  0.1601 -0.0438
18963TIP3    H178304   5.469   0.808   3.280  0.5184 -0.0244 -0.0177
18963TIP3    H278305   5.334   0.840   3.220  0.9337  0.6339 -0.6163
18964TIP3   OH278306   0.543   3.198   0.028 -0.5646  0.2956 -0.3729
18964TIP3    H178307   0.536   3.256   0.104 -0.5732 -0.9105  0.5820
18964TIP3    H278308   0.471   3.136   0.039  0.7372 -1.2388 -0.1571
18965TIP3   OH278309   1.618   0.280   0.475 -0.8280 -0.6646  0.3804
18965TIP3    H178310   1.571   0.203   0.508 -0.4025 -0.9857  0.2522
18965TIP3    H278311   1.640   0.330   0.553  1.5289 -2.1853  0.8204
18966TIP3   OH278312   1.065   2.707   1.014 -0.6971 -0.2875 -0.3410
18966TIP3    H178313   0.984   2.657   1.025 -0.8453  0.1945  1.1511
18966TIP3    H278314   1.045   2.792   1.055  0.3824  0.0402 -0.4711
18967TIP3   OH278315   4.808   6.546   5.147  0.8995 -0.3956 -1.1167
18967TIP3    H178316   4.888   6.556   5.198 -0.9584  1.3296  1.8009
18967TIP3    H278317   4.807   6.454   5.121  3.2528 -0.7095 -0.3174
18968TIP3   OH278318   2.537   1.968   2.946 -0.2481  0.4617  0.3975
18968TIP3    H178319   2.500   1.917   3.018 -1.6100  0.7267 -0.0946
18968TIP3    H278320   2.520   1.915   2.868  1.3330  0.1149  0.2524
18969TIP3   OH278321   2.441   0.065  16.629  0.1990  0.4476 -0.2561
18969TIP3    H178322   2.383  -0.011  16.636  0.3688  0.2643 -0.7870
18969TIP3    H278323   2.520   0.031  16.587  1.3481  0.3380  1.8547
18970TIP3   OH278324   2.738   1.744  10.692  0.3588  0.0423 -1.0163
18970TIP3    H178325   2.693   1.825  10.718 -1.5515 -1.2767  0.0135
18970TIP3    H278326   2.831   1.765  10.700 -0.0818  2.1126 -0.7396
18971TIP3   OH278327   0.604   6.287  13.419  0.2828 -0.4100  0.4319
18971TIP3    H178328   0.644   6.259  13.502  1.2769 -0.7817 -0.1478
18971TIP3    H278329   0.672   6.269  13.353 -0.6940 -0.6390 -0.5369
18972TIP3   OH278330   4.671   5.067  13.366  0.1842  0.2612  0.0708
18972TIP3    H178331   4.597   5.041  13.312  0.6707 -0.2815 -0.3431
18972TIP3    H278332   4.670   5.006  13.440 -0.3116  0.8261  0.5520
18973TIP3   OH278333   1.753   6.504  12.410  0.1626 -0.2103 -0.5000
18973TIP3    H178334   1.772   6.413  12.431  3.2323  0.3747 -0.3117
18973TIP3    H278335   1.738   6.546  12.495 -1.2009 -0.4751 -0.5841
18974TIP3   OH278336   1.721   3.299   5.710  0.3634  0.0503 -0.1389
18974TIP3    H178337   1.700   3.236   5.779 -0.4227  0.5157  0.0540
18974TIP3    H278338   1.798   3.345   5.743 -0.1179  0.3988  0.5197
18975TIP3   OH278339   5.152   4.116   1.827 -0.1801 -0.1935  0.1330
18975TIP3    H178340   5.137   4.162   1.744 -1.0987  0.2709  0.5419
18975TIP3    H278341   5.242   4.138   1.851  0.9002 -2.0559 -1.7833
18976TIP3   OH278342   5.746   1.060   1.717 -0.0067  0.0938  0.0948
18976TIP3    H178343   5.803   1.082   1.791  1.2633 -0.2459 -0.7439
18976TIP3    H278344   5.677   1.126   1.719  0.6114  0.7335  0.9416
18977TIP3   OH278345   6.131   0.024  13.640  0.2431 -0.2694  0.0145
18977TIP3    H178346   6.077  -0.054  13.630  0.8668 -0.6210 -0.7472
18977TIP3    H278347   6.198  -0.001  13.703  2.0542 -1.3038 -2.1690
18978TIP3   OH278348   2.457   0.736   5.477 -0.1013  0.1923  0.3518
18978TIP3    H178349   2.486   0.822   5.446  0.5975 -0.4493 -0.8068
18978TIP3    H278350   2.363   0.735   5.459  0.1906  0.0568 -1.2342
18979TIP3   OH278351   1.108   1.356  12.364  0.5481 -0.3897 -0.1919
18979TIP3    H178352   1.187   1.408  12.377 -0.0387  0.4016  0.3162
18979TIP3    H278353   1.089   1.318  12.450  0.7191 -1.0801 -0.4546
18980TIP3   OH278354   0.549   2.086   1.781 -0.9922  0.5287  0.1244
18980TIP3    H178355   0.568   2.003   1.824  1.6381  0.5942 -0.7125
18980TIP3    H278356   0.571   2.072   1.689 -1.9585  1.7418 -0.3374
18981TIP3   OH278357   1.106   4.685  16.015 -0.0240  0.0163 -0.0100
18981TIP3    H178358   1.192   4.647  16.001  0.2758  0.5956  0.2170
18981TIP3    H278359   1.060   4.670  15.932  0.5077  0.2542 -0.3539
18982TIP3   OH278360   0.244   4.955  12.110 -0.2972  0.0689  0.6622
18982TIP3    H178361   0.157   4.976  12.076 -0.8451 -0.7366  1.5043
18982TIP3    H278362   0.271   4.878  12.060  0.5832  1.1524 -0.6040
18983TIP3   OH278363   5.978   6.182  16.648  0.0342 -0.2948  0.3395
18983TIP3    H178364   5.910   6.116  16.634  0.4658 -0.8122  0.6293
18983TIP3    H278365   5.960   6.217  16.736  0.5715 -0.9646  0.7275
18984TIP3   OH278366   4.340   5.289  12.378 -0.1367 -0.4081  0.2061
18984TIP3    H178367   4.412   5.266  12.437 -1.4056 -0.7150  1.7009
18984TIP3    H278368   4.296   5.363  12.421 -0.0272  0.5891 -1.2912
18985TIP3   OH278369   4.013   1.497  12.268 -0.0144  0.2651  0.2394
18985TIP3    H178370   4.087   1.459  12.221 -0.4436 -1.3138  0.7983
18985TIP3    H278371   3.977   1.562  12.206  0.8957 -0.0220 -0.6288
18986TIP3   OH278372   2.434   5.081  16.187  0.3995 -0.0607  0.0064
18986TIP3    H178373   2.424   5.143  16.259  0.7329 -1.6834  1.5067
18986TIP3    H278374   2.347   5.073  16.150  0.5340  2.0956 -0.9751
18987TIP3   OH278375   0.807   4.200  14.585  0.6018  0.2586  0.5139
18987TIP3    H178376   0.851   4.237  14.508  0.2689 -0.3494  0.0234
18987TIP3    H278377   0.742   4.266  14.610  0.3983  0.2549 -0.0064
18988TIP3   OH278378   1.700   6.194   3.516 -0.5760  0.5904  0.1104
18988TIP3    H178379   1.641   6.222   3.587 -0.8300 -1.7323  0.8930
18988TIP3    H278380   1.650   6.128   3.468  0.9854 -0.6639  0.1417
18989TIP3   OH278381   6.439   1.560  15.605  0.1591 -0.2252  0.1604
18989TIP3    H178382   6.395   1.640  15.635  0.2708  0.3515 -1.1458
18989TIP3    H278383   6.370   1.512  15.559  1.1714  1.5103 -3.4707
18990TIP3   OH278384   4.870   0.336  16.613 -0.0050  0.3035  0.4138
18990TIP3    H178385   4.854   0.422  16.653  0.6487  0.1631  0.9991
18990TIP3    H278386   4.914   0.355  16.531 -1.4674  0.6035 -0.3373
18991TIP3   OH278387   2.098   4.867  15.810 -0.1096 -0.8159 -0.2159
18991TIP3    H178388   2.033   4.808  15.848  0.1415 -0.3938  0.9212
18991TIP3    H278389   2.173   4.810  15.791 -0.9394 -1.3841 -1.9452
18992TIP3   OH278390   0.631   2.553   1.570 -0.4778  0.6263 -0.1034
18992TIP3    H178391   0.547   2.523   1.606 -0.5470  0.7486 -0.1614
18992TIP3    H278392   0.697   2.514   1.628 -0.6304  1.8235  0.9348
18993TIP3   OH278393   2.615   1.362   3.110 -0.5980 -0.4231 -0.5424
18993TIP3    H178394   2.700   1.358   3.065 -0.6328  0.2378 -0.6730
18993TIP3    H278395   2.609   1.451   3.142 -1.3011 -0.4358 -0.6325
18994TIP3   OH278396   5.697   0.907  12.189 -0.1196  0.2890 -0.2324
18994TIP3    H178397   5.761   0.963  12.144 -0.6651  2.1571  1.1631
18994TIP3    H278398   5.613   0.935  12.153 -0.3897  0.2603  0.3722
18995TIP3   OH278399   3.813   3.559   4.186 -0.5994 -0.2513 -0.5138
18995TIP3    H178400   3.872   3.560   4.261  0.3033 -3.0066 -1.0937
18995TIP3    H278401   3.725   3.554   4.225 -0.2201 -0.3738  0.3547
18996TIP3   OH278402   1.552   3.223   5.040  0.1523  0.4573  0.1351
18996TIP3    H178403   1.642   3.246   5.017  0.3831  1.2404  1.7232
18996TIP3    H278404   1.516   3.184   4.960  1.9801 -0.1366 -0.4311
18997TIP3   OH278405   3.998   4.084   3.491  0.3526 -0.7393 -0.4703
18997TIP3    H178406   4.027   4.175   3.479 -0.7237 -0.3265 -0.0339
18997TIP3    H278407   4.079   4.034   3.498  0.9873  0.4031  0.8159
18998TIP3   OH278408   5.072   6.455  12.985 -0.0270  0.0679 -0.4290
18998TIP3    H178409   5.094   6.363  12.971  1.0713 -0.1445  2.0935
18998TIP3    H278410   4.978   6.454  13.004 -0.1272 -0.4560 -0.9277
18999TIP3   OH278411   3.639   2.713  16.065 -1.2801 -0.2321  0.4272
18999TIP3    H178412   3.612   2.804  16.066 -0.4797  0.0406 -0.7271
18999TIP3    H278413   3.735   2.715  16.064 -1.2504 -1.0711  0.1745
19000TIP3   OH278414   6.165   2.079  14.720  0.3085 -0.1167  0.4556
19000TIP3    H178415   6.159   2.020  14.645 -0.5638  1.5958 -0.9093
19000TIP3    H278416   6.213   2.030  14.786  1.8727 -1.4030 -1.5140
19001TIP3   OH278417   2.376   2.223  12.614  0.6004 -0.1702  0.5205
19001TIP3    H178418   2.293   2.269  12.629  1.1603  0.8287  0.6409
19001TIP3    H278419   2.418   2.271  12.544  0.7473 -1.1417 -0.0751
19002TIP3   OH278420   5.805   1.876  12.438  0.2042 -0.8069 -0.4338
19002TIP3    H178421   5.732   1.813  12.434  0.1993 -0.8988  0.6692
19002TIP3    H278422   5.878   1.830  12.398  0.2102 -1.5522  0.3959
19003TIP3   OH278423   3.967   5.790   1.323 -0.1815 -0.3083  0.5513
19003TIP3    H178424   4.016   5.707   1.330  2.4052  1.0038 -0.4896
19003TIP3    H278425   3.980   5.832   1.408  1.6083  0.5370 -0.0915
19004TIP3   OH278426   0.946   2.325   0.013  0.0640  0.3190 -0.3608
19004TIP3    H178427   0.951   2.419   0.031  0.1976  0.1087  0.8284
19004TIP3    H278428   0.893   2.290   0.085 -0.0050 -0.5076 -0.8068
19005TIP3   OH278429   4.961   3.813  11.865  0.4066  0.5637  0.3213
19005TIP3    H178430   4.897   3.805  11.935  0.4483 -0.2782  0.2775
19005TIP3    H278431   4.919   3.771  11.790  0.5037  1.1402 -0.0623
19006TIP3   OH278432   3.555   4.021  10.762  0.6557  0.3806  0.0559
19006TIP3    H178433   3.547   4.079  10.838 -0.3970 -1.6981  1.6323
19006TIP3    H278434   3.615   3.952  10.791 -0.6834 -1.0920 -0.5381
19007TIP3   OH278435   3.873   3.697  11.649 -0.4904 -0.2502 -0.1734
19007TIP3    H178436   3.864   3.609  11.686  2.1827 -0.5656 -0.0845
19007TIP3    H278437   3.868   3.685  11.554 -0.3510 -0.4746 -0.1519
19008TIP3   OH278438   4.022   4.654   5.727  0.2986 -0.0992  0.3806
19008TIP3    H178439   3.981   4.601   5.659  0.4949 -2.2088  1.8249
19008TIP3    H278440   4.116   4.648   5.710  0.2770  1.0595 -0.2991
19009TIP3   OH278441   5.182   3.952  17.188  0.1462 -0.2581 -0.0362
19009TIP3    H178442   5.254   3.975  17.246 -0.8261  1.6416  0.4710
19009TIP3    H278443   5.188   3.857  17.180  0.4445 -0.5838  2.9929
19010TIP3   OH278444   0.257   2.366   6.557  0.1107  0.0754 -0.7903
19010TIP3    H178445   0.242   2.362   6.652 -0.4615  0.2690 -0.8680
19010TIP3    H278446   0.171   2.390   6.520  0.6064  1.2149 -1.2553
19011TIP3   OH278447   5.976   3.830  14.105 -0.4860  0.3457 -0.2456
19011TIP3    H178448   5.949   3.741  14.085  2.1512 -0.0865 -2.2860
19011TIP3    H278449   6.067   3.823  14.131 -0.3972  2.4012  0.1921
19012TIP3   OH278450   4.102   1.276  14.785  0.0893 -0.0610 -0.1164
19012TIP3    H178451   4.195   1.283  14.763  0.1306  0.1279  0.1097
19012TIP3    H278452   4.096   1.307  14.875 -0.1318 -0.4836  0.0174
19013TIP3   OH278453   4.500   3.543  11.723  0.2411  0.0228 -0.0805
19013TIP3    H178454   4.532   3.631  11.702 -0.1929  0.1180 -0.3537
19013TIP3    H278455   4.492   3.543  11.819 -2.9913  1.4528 -0.2288
19014TIP3   OH278456   4.280   3.310   1.475  0.1181 -0.5006 -0.2686
19014TIP3    H178457   4.330   3.386   1.446 -1.3244  0.8786  0.6543
19014TIP3    H278458   4.220   3.345   1.542 -2.2140 -1.9557 -1.4484
19015TIP3   OH278459   2.985   1.114   1.374  0.4704  0.0916 -0.4991
19015TIP3    H178460   2.953   1.039   1.324 -0.0666  1.4815 -2.3643
19015TIP3    H278461   2.946   1.190   1.330  1.1625  1.4861  1.1881
19016TIP3   OH278462   2.718   6.538  17.355  0.1874 -0.8426 -0.2789
19016TIP3    H178463   2.719   6.611  17.293 -0.6953 -0.0755  0.5982
19016TIP3    H278464   2.807   6.501  17.348 -0.0699 -1.2301 -2.4884
19017TIP3   OH278465   2.938   5.858   5.710  0.5973 -0.2329 -0.2548
19017TIP3    H178466   3.032   5.852   5.727  0.3047 -1.4030  1.1311
19017TIP3    H278467   2.898   5.861   5.797 -0.6883 -0.2349 -0.8196
19018TIP3   OH278468   0.594   1.577   4.582 -0.3419 -0.1270  0.2122
19018TIP3    H178469   0.660   1.546   4.519 -0.8384 -0.9278  0.0691
19018TIP3    H278470   0.569   1.663   4.549  1.9595  1.0542  1.2983
19019TIP3   OH278471   6.278   0.472   3.095 -0.0283 -0.4635 -0.2076
19019TIP3    H178472   6.252   0.390   3.053  1.4564 -1.3490  0.5149
19019TIP3    H278473   6.245   0.540   3.037 -1.2576 -1.5630 -0.8514
19020TIP3   OH278474   2.213   3.235   5.370 -0.0485  0.2457 -0.1551
19020TIP3    H178475   2.167   3.190   5.299  1.7006 -1.6780 -0.1956
19020TIP3    H278476   2.304   3.204   5.362  0.1207 -0.5379  3.2455
19021TIP3   OH278477   0.662   6.691   3.429  0.3467  0.4741  0.9065
19021TIP3    H178478   0.601   6.728   3.493 -0.5571 -0.3455  0.5538
19021TIP3    H278479   0.666   6.598   3.450 -0.4912  0.0564 -0.5856
19022TIP3   OH278480   0.073   2.883   0.630 -0.1029 -0.3959  0.3745
19022TIP3    H178481   0.081   2.842   0.716 -1.3993  0.3384  0.8695
19022TIP3    H278482  -0.019   2.873   0.607  0.1408 -0.2225 -0.7649
19023TIP3   OH278483   4.992   3.175  13.510 -0.3594  0.7735  0.5499
19023TIP3    H178484   4.957   3.127  13.435  1.2816  0.5866 -0.1227
19023TIP3    H278485   5.070   3.127  13.536 -0.3484  1.4015  1.7586
19024TIP3   OH278486   1.064   1.192   0.013 -0.0085  0.5319 -0.6518
19024TIP3    H178487   1.124   1.126  -0.022  0.2865 -0.9340  2.3435
19024TIP3    H278488   1.113   1.235   0.083 -1.7746  0.6370  0.5840
19025TIP3   OH278489   6.166   6.528  12.252 -0.3955 -0.2829  0.0227
19025TIP3    H178490   6.105   6.600  12.237 -0.3772  0.1403  1.7748
19025TIP3    H278491   6.253   6.566  12.237 -0.4384 -0.2687 -0.1996
19026TIP3   OH278492   0.222   1.499  16.588  0.4019  0.1436  0.0719
19026TIP3    H178493   0.245   1.519  16.679  0.6846  0.1815 -0.0054
19026TIP3    H278494   0.246   1.406  16.578  0.4510  0.1630  0.0126
19027TIP3   OH278495   4.349   0.574  16.980  0.0198 -0.1762 -0.4692
19027TIP3    H178496   4.424   0.619  17.019 -0.3309 -0.2181  0.2683
19027TIP3    H278497   4.294   0.644  16.945 -0.9209  0.0758  1.3743
19028TIP3   OH278498   6.587   1.553  11.471  0.0895  0.2156 -0.0995
19028TIP3    H178499   6.507   1.605  11.463  0.8792  1.3060 -1.2251
19028TIP3    H278500   6.585   1.520  11.561  0.5253  3.9008  1.4678
19029TIP3   OH278501   2.505   5.006   1.357  0.0043 -0.3353 -0.2113
19029TIP3    H178502   2.446   5.046   1.421 -0.4516 -2.1096  0.5425
19029TIP3    H278503   2.584   5.059   1.361 -0.1204 -0.2319  1.6434
19030TIP3   OH278504   6.583   3.292   6.789 -0.0333  0.3861  0.1999
19030TIP3    H178505   6.521   3.300   6.861  1.3065  0.1633  1.4302
19030TIP3    H278506   6.633   3.373   6.792  0.2372  0.2366 -0.2835
19031TIP3   OH278507   2.556   5.761  11.768 -0.1558 -0.2431 -0.4630
19031TIP3    H178508   2.491   5.812  11.818  0.8977  0.1095  0.6134
19031TIP3    H278509   2.560   5.804  11.683  1.8838  2.6376  0.9285
19032TIP3   OH278510   4.916   5.679  15.170 -0.0908  0.1329  0.0375
19032TIP3    H178511   4.998   5.630  15.166  0.9016  1.7663 -0.5150
19032TIP3    H278512   4.861   5.638  15.103  0.1847 -1.1042  0.5479
19033TIP3   OH278513   2.450   3.884   0.960 -0.1950 -0.2207  0.1263
19033TIP3    H178514   2.365   3.840   0.950  0.2926 -1.1183 -0.2120
19033TIP3    H278515   2.428   3.971   0.994 -1.2969 -0.1984 -0.5705
19034TIP3   OH278516   3.852   3.305   4.886 -0.3286  0.5754  0.0713
19034TIP3    H178517   3.765   3.329   4.854 -0.4605  0.2336  0.1675
19034TIP3    H278518   3.860   3.211   4.868  0.1582  0.6752 -0.2520
19035TIP3   OH278519   6.119   6.679   5.529  0.4670  0.1728  0.0700
19035TIP3    H178520   6.062   6.690   5.453 -0.6020  0.0127  0.8176
19035TIP3    H278521   6.101   6.756   5.583  0.0012 -0.4971  0.8976
19036TIP3   OH278522   2.810   5.812  11.658 -0.3352 -0.1379  0.1272
19036TIP3    H178523   2.753   5.815  11.735 -1.6417 -2.2943 -0.6781
19036TIP3    H278524   2.862   5.733  11.669 -0.1972 -0.2161 -0.9681
19037TIP3   OH278525   6.704   0.243   5.852 -0.5039  0.1589  0.7573
19037TIP3    H178526   6.626   0.297   5.861 -0.4209  0.2160  1.1627
19037TIP3    H278527   6.677   0.156   5.883 -0.4966  0.0950  0.5875
19038TIP3   OH278528   5.206   5.925  16.370 -0.0444 -0.6626  0.3344
19038TIP3    H178529   5.153   5.883  16.438 -2.3380 -1.3677 -1.7377
19038TIP3    H278530   5.178   5.883  16.289 -2.2126  4.4040 -1.9422
19039TIP3   OH278531   0.378   5.648  16.375 -0.1565  0.2752  0.0622
19039TIP3    H178532   0.343   5.561  16.393  1.4698 -0.3719  0.2748
19039TIP3    H278533   0.405   5.682  16.461  0.5336  0.3776 -0.1850
19040TIP3   OH278534   5.359   3.006   2.257  0.1104  0.0276 -0.0734
19040TIP3    H178535   5.305   3.085   2.254 -0.4836 -0.2632  1.5776
19040TIP3    H278536   5.401   3.002   2.171 -0.3639  1.7602 -0.4328
19041TIP3   OH278537   5.385   5.208   3.539  0.1274 -0.1845  0.8199
19041TIP3    H178538   5.466   5.166   3.511  1.5234  2.3904  0.7008
19041TIP3    H278539   5.376   5.286   3.483 -2.9693 -0.8405  0.1967
19042TIP3   OH278540   1.053   0.508  12.434 -0.3583 -0.8877  0.4626
19042TIP3    H178541   1.009   0.593  12.430  1.7320  0.2546  0.1377
19042TIP3    H278542   1.001   0.456  12.495 -3.0381 -0.2323 -1.1278
19043TIP3   OH278543   3.389   4.512   0.910  0.1057  0.5115  0.0959
19043TIP3    H178544   3.403   4.581   0.846  1.1602 -1.8039 -2.3792
19043TIP3    H278545   3.306   4.472   0.885  1.2552 -1.4021 -0.9868
19044TIP3   OH278546   5.238   3.822  16.544  0.0995  0.6461 -0.4956
19044TIP3    H178547   5.157   3.861  16.511  0.8706  0.6598 -2.5389
19044TIP3    H278548   5.209   3.747  16.595 -1.2265  1.3500 -0.1483
19045TIP3   OH278549   6.523   0.300  12.260 -0.1123  0.0391 -0.3939
19045TIP3    H178550   6.593   0.315  12.324  0.1912  1.2178 -0.9811
19045TIP3    H278551   6.491   0.387  12.239 -3.8510 -0.5071  2.0709
19046TIP3   OH278552   2.862   0.640  14.844 -0.4295 -0.4032 -0.0558
19046TIP3    H178553   2.890   0.671  14.758  1.9925 -0.3743  0.6782
19046TIP3    H278554   2.795   0.574  14.824  0.2613 -0.6017 -1.9755
19047TIP3   OH278555   2.763   4.103   0.292 -0.0282  0.2610  0.1356
19047TIP3    H178556   2.857   4.097   0.312 -0.1512 -0.6637  0.4696
19047TIP3    H278557   2.728   4.160   0.360  0.0590 -0.4992  0.8178
19048TIP3   OH278558   1.853   2.454   2.922  0.3715 -0.1469  0.3614
19048TIP3    H178559   1.899   2.497   2.994 -0.4852  0.6026  0.4686
19048TIP3    H278560   1.767   2.433   2.957  0.7344 -1.8924  0.2759
19049TIP3   OH278561   3.125   4.015  14.521  0.0958 -0.4963  0.2414
19049TIP3    H178562   3.165   4.058  14.445  1.4108 -2.4125 -0.2102
19049TIP3    H278563   3.166   4.057  14.596  1.2607 -0.8363 -0.1827
19050TIP3   OH278564   4.301   0.795   0.886 -0.2502 -0.5481  0.4959
19050TIP3    H178565   4.279   0.862   0.950 -2.6599 -1.0278  0.2669
19050TIP3    H278566   4.217   0.754   0.864  0.4929 -0.6558 -2.6821
19051TIP3   OH278567   6.665   3.846   4.767 -0.0157  0.1794  0.6737
19051TIP3    H178568   6.689   3.859   4.675 -0.7168 -0.5782  0.3705
19051TIP3    H278569   6.602   3.915   4.785  0.6969  0.8002  0.8165
19052TIP3   OH278570   2.077   1.935  11.997 -0.1382  0.1183 -0.7302
19052TIP3    H178571   1.984   1.954  11.984  0.3130  1.5074 -2.3247
19052TIP3    H278572   2.110   2.007  12.050  0.3976  0.7363 -1.8519
19053TIP3   OH278573   5.136   1.195   6.100 -0.0258  0.3604  0.0909
19053TIP3    H178574   5.110   1.103   6.099  1.9196 -0.2109 -0.9150
19053TIP3    H278575   5.178   1.210   6.015  2.7286  1.2274  1.4910
19054TIP3   OH278576   0.339   2.242  16.672 -0.4972 -0.0107 -1.1343
19054TIP3    H178577   0.398   2.318  16.673 -0.2000 -0.2190  0.5795
19054TIP3    H278578   0.395   2.169  16.646 -0.0388 -0.1557  0.1946
19055TIP3   OH278579   6.637   5.349  13.317 -0.6361 -0.4621 -0.1821
19055TIP3    H178580   6.710   5.368  13.376 -1.0203 -0.3303  0.2653
19055TIP3    H278581   6.564   5.328  13.376 -1.1701  0.1919 -0.5935
19056TIP3   OH278582   5.152   5.723   2.607 -1.1510 -0.3755 -0.0981
19056TIP3    H178583   5.200   5.741   2.687 -0.2814 -0.1978 -0.6427
19056TIP3    H278584   5.060   5.723   2.633 -0.8392 -1.4961  1.1211
19057TIP3   OH278585   1.112   5.933   1.862 -0.1638 -0.1695 -0.5576
19057TIP3    H178586   1.109   5.837   1.867  2.0813 -0.2379  0.5443
19057TIP3    H278587   1.162   5.952   1.783  0.9069  0.0282  0.1485
19058TIP3   OH278588   3.333   5.136   3.382 -0.1343 -0.0179 -0.2452
19058TIP3    H178589   3.315   5.171   3.294  1.0852 -1.9864 -1.3515
19058TIP3    H278590   3.416   5.176   3.407 -0.3232  0.2935 -0.0993
19059TIP3   OH278591   5.459   2.541  14.827  0.1107 -0.0292 -0.4586
19059TIP3    H178592   5.458   2.636  14.831  0.6318 -0.0276 -0.3496
19059TIP3    H278593   5.517   2.514  14.898  0.3514 -0.4103 -0.7927
19060TIP3   OH278594   0.307   5.778   0.547 -0.1001 -0.2366 -0.8299
19060TIP3    H178595   0.255   5.709   0.505 -1.4933  0.4414 -0.2780
19060TIP3    H278596   0.261   5.859   0.525  0.0943  0.2840  0.5959
19061TIP3   OH278597   4.766   5.364  11.224  0.4535  0.3283  0.2509
19061TIP3    H178598   4.838   5.307  11.197  0.3405 -0.4299  1.4523
19061TIP3    H278599   4.687   5.315  11.199  0.3573 -0.0163  1.1674
19062TIP3   OH278600   4.267   6.591   2.862 -0.7427 -0.1159  0.1511
19062TIP3    H178601   4.266   6.647   2.784 -0.2277  2.1500  1.6579
19062TIP3    H278602   4.354   6.551   2.862 -0.4776  0.4465 -0.0800
19063TIP3   OH278603   4.856   6.052   0.589 -0.0172  0.6374 -0.2254
19063TIP3    H178604   4.936   6.017   0.550  0.1804 -1.0521  1.5279
19063TIP3    H278605   4.858   6.145   0.570  1.7809  0.4399 -1.1997
19064TIP3   OH278606   5.801   4.254   0.911  0.1594  0.1073  0.6788
19064TIP3    H178607   5.830   4.345   0.923 -1.6536  0.8315 -0.0143
19064TIP3    H278608   5.831   4.230   0.824 -0.9308  0.7227  0.1126
19065TIP3   OH278609   5.018   2.961  15.887 -0.0114  0.2069  0.1633
19065TIP3    H178610   5.027   3.051  15.918  1.7790  0.8433 -1.9179
19065TIP3    H278611   5.011   2.909  15.966  0.5557  2.0379  1.4831
19066TIP3   OH278612   1.360   0.119  14.587 -0.9826  0.2535  0.0975
19066TIP3    H178613   1.324   0.208  14.588 -2.3780 -0.2623 -0.9268
19066TIP3    H278614   1.310   0.074  14.518 -0.7604 -1.5097  1.0355
19067TIP3   OH278615   6.218   3.771   3.710 -0.1590  0.1419 -0.0753
19067TIP3    H178616   6.238   3.799   3.798  0.7156  0.7007 -0.4471
19067TIP3    H278617   6.127   3.800   3.696 -0.4111 -0.2269  0.7352
19068TIP3   OH278618   3.357   6.624   0.469 -0.0140  0.0470 -0.6413
19068TIP3    H178619   3.266   6.647   0.490 -0.9153 -1.1001 -2.8838
19068TIP3    H278620   3.390   6.581   0.548 -0.8794  1.8339  0.7546
19069TIP3   OH278621   6.510   2.380   1.713 -0.6245  0.6977  0.8010
19069TIP3    H178622   6.433   2.436   1.720 -0.6804  0.5938  1.0055
19069TIP3    H278623   6.497   2.332   1.631 -0.6753  0.8335  0.7300
19070TIP3   OH278624   3.901   6.420  13.297  0.7005 -0.0446  0.5873
19070TIP3    H178625   3.912   6.485  13.366 -0.0431 -0.7472  1.3902
19070TIP3    H278626   3.909   6.336  13.342  1.2539 -0.5168 -0.3693
19071TIP3   OH278627   2.934   0.525  13.118 -0.1880 -0.1035  0.4878
19071TIP3    H178628   2.863   0.506  13.179 -0.9724  1.1850  0.0191
19071TIP3    H278629   3.013   0.521  13.171 -0.4778 -2.4553  0.8396
19072TIP3   OH278630   5.246   3.752  15.312 -0.1884  0.2618  0.1898
19072TIP3    H178631   5.239   3.746  15.407 -0.1068 -0.3831  0.1659
19072TIP3    H278632   5.239   3.661  15.282  4.1531 -0.1850 -0.0924
19073TIP3   OH278633   4.768   5.568   1.819  0.0696  0.3944 -0.2590
19073TIP3    H178634   4.733   5.479   1.814  1.3714 -0.2272  1.1798
19073TIP3    H278635   4.695   5.620   1.854 -0.2362 -0.4037  0.3297
19074TIP3   OH278636   1.602   0.948  12.926 -0.1970  0.1995 -0.0482
19074TIP3    H178637   1.612   0.884  12.997  3.2683  1.3585  0.7622
19074TIP3    H278638   1.567   1.026  12.970  1.4024  0.7289  0.3798
19075TIP3   OH278639   6.475   3.398  11.272  0.2731  0.2633  0.0307
19075TIP3    H178640   6.497   3.475  11.324  0.1151  0.2917  0.0527
19075TIP3    H278641   6.537   3.331  11.301  2.6841  1.2997 -2.2595
19076TIP3   OH278642   2.866   4.018  14.058 -0.3351  0.5140  0.5442
19076TIP3    H178643   2.790   3.961  14.044  0.1225  0.1009 -0.2984
19076TIP3    H278644   2.921   3.969  14.119  0.1212 -0.0336 -0.2812
19077TIP3   OH278645   4.952   4.899  11.506 -0.3816  0.1818 -0.2400
19077TIP3    H178646   4.949   4.803  11.506  0.2463  0.1513 -1.4847
19077TIP3    H278647   4.925   4.924  11.418 -0.7027  1.1659  0.1313
19078TIP3   OH278648   0.845   3.020  15.061  0.1533  0.5742 -0.4335
19078TIP3    H178649   0.835   3.077  15.137  0.8350  0.2068 -0.0692
19078TIP3    H278650   0.756   3.013  15.025 -0.0850  1.1489  0.0287
19079TIP3   OH278651   3.886   5.533  15.606  0.3884  0.1304  0.4686
19079TIP3    H178652   3.856   5.607  15.555  0.1302 -0.7706 -0.7279
19079TIP3    H278653   3.842   5.542  15.691 -1.5814  0.0264 -0.4928
19080TIP3   OH278654   4.113   4.116  14.783  0.1239  0.5214  0.0940
19080TIP3    H178655   4.103   4.184  14.850 -1.0104  0.4028  0.0647
19080TIP3    H278656   4.064   4.041  14.818 -1.8557  0.9607 -1.5192
19081TIP3   OH278657   3.472   6.127  16.536  0.1703 -0.6018 -0.1050
19081TIP3    H178658   3.559   6.141  16.574 -0.1492  0.9080  0.1274
19081TIP3    H278659   3.487   6.061  16.468  1.5302 -0.2724 -0.1662
19082TIP3   OH278660   3.839   6.149  11.310  0.2921  0.4526  0.3415
19082TIP3    H178661   3.895   6.094  11.254 -0.5189 -0.3026  0.2490
19082TIP3    H278662   3.824   6.228  11.258  2.3567  1.2732  0.9105
19083TIP3   OH278663   5.768   0.879   1.053  0.5511  0.0456  0.6958
19083TIP3    H178664   5.774   0.971   1.080  0.6683 -0.4866  2.6424
19083TIP3    H278665   5.678   0.855   1.072 -0.1378  0.2954 -1.8748
19084TIP3   OH278666   3.142   2.959  11.595 -0.0154  0.2723 -0.1368
19084TIP3    H178667   3.116   3.038  11.641 -0.4341  0.9268 -1.4702
19084TIP3    H278668   3.224   2.982  11.551  0.9072 -0.6446  1.0004
19085TIP3   OH278669   1.364   5.223  15.391 -0.1936 -0.0980 -0.4162
19085TIP3    H178670   1.396   5.160  15.456  1.2875  1.8911  0.8944
19085TIP3    H278671   1.386   5.183  15.307 -0.4330 -1.8618  0.2979
19086TIP3   OH278672   5.899   3.846  13.399  0.1107  0.0643  0.1510
19086TIP3    H178673   5.852   3.862  13.317 -0.2816  0.3302  0.4254
19086TIP3    H278674   5.879   3.922  13.454 -0.5393 -0.6210  0.9065
19087TIP3   OH278675   2.731   4.785  14.050 -0.5390  0.1736 -0.0132
19087TIP3    H178676   2.644   4.810  14.081 -1.5574 -0.4523 -2.1917
19087TIP3    H278677   2.757   4.856  13.992 -0.3126 -0.4139 -0.6392
19088TIP3   OH278678   0.389   3.043  13.134  0.1156  0.0352 -0.2725
19088TIP3    H178679   0.359   3.117  13.081 -2.2868  0.1349  1.0773
19088TIP3    H278680   0.447   3.082  13.199 -0.7774  0.6881  0.1497
19089TIP3   OH278681   5.896   0.832   4.434 -0.2787  0.3895 -0.5377
19089TIP3    H178682   5.971   0.889   4.418  0.2843 -0.3687 -0.6458
19089TIP3    H278683   5.915   0.752   4.383 -0.9973  0.0594 -0.3033
19090TIP3   OH278684   5.816   3.733  11.197 -0.2335  0.0963 -0.1783
19090TIP3    H178685   5.829   3.709  11.106  0.1012  0.2323 -0.1680
19090TIP3    H278686   5.816   3.828  11.198 -0.3274  0.0962 -0.0486
19091TIP3   OH278687   1.549   3.163   1.601  0.8684 -0.3872  0.6615
19091TIP3    H178688   1.476   3.194   1.654  0.1009 -2.0972  0.6962
19091TIP3    H278689   1.616   3.231   1.609 -0.1177  0.4857  1.9131
19092TIP3   OH278690   2.190   4.616  16.618  0.3760 -0.3986  0.1959
19092TIP3    H178691   2.244   4.586  16.545  1.4760 -0.0182  0.8246
19092TIP3    H278692   2.248   4.675  16.668 -0.7270  0.2980  0.7042
19093TIP3   OH278693   4.985   1.248   1.090  0.5142 -0.3051 -0.9269
19093TIP3    H178694   4.911   1.257   1.029 -1.1169  0.4341  1.0144
19093TIP3    H278695   5.038   1.326   1.075  0.4858 -0.4439 -1.8081
19094TIP3   OH278696   2.137   4.775  11.083  0.2260 -0.2294 -0.0835
19094TIP3    H178697   2.073   4.748  11.149  0.7019  0.1458  0.5401
19094TIP3    H278698   2.210   4.715  11.095  0.0310 -0.6035 -0.7396
19095TIP3   OH278699   0.098   4.410   4.870 -0.3694 -0.1838  0.2180
19095TIP3    H178700   0.051   4.394   4.952 -1.9586 -1.9997 -0.9489
19095TIP3    H278701   0.109   4.323   4.832 -0.1231  0.6535 -1.7162
19096TIP3   OH278702   5.235   4.102   2.519  0.1913  0.0398  0.0045
19096TIP3    H178703   5.269   4.013   2.509  0.5437 -0.0228  1.4999
19096TIP3    H278704   5.140   4.090   2.530  0.2642 -0.1865  0.4283
19097TIP3   OH278705   0.972   0.553   2.076 -0.2483  0.3926 -0.7912
19097TIP3    H178706   1.040   0.584   2.136  1.1610  0.3085 -2.2589
19097TIP3    H278707   0.994   0.594   1.992 -0.9418 -1.0479 -1.7267
19098TIP3   OH278708   3.032   0.876   2.569 -0.0419 -0.0895 -0.1134
19098TIP3    H178709   3.075   0.934   2.631  1.9617 -2.0367  0.4467
19098TIP3    H278710   2.940   0.876   2.595  0.0693  2.0695  0.4072
19099TIP3   OH278711   6.121   2.880  10.635  0.2641  0.0976 -0.5877
19099TIP3    H178712   6.117   2.961  10.685  0.2714  0.6082 -1.3900
19099TIP3    H278713   6.213   2.872  10.609  0.1019  0.2877 -1.2324
19100TIP3   OH278714   5.411   1.678  15.308 -0.4432  0.1045  0.4279
19100TIP3    H178715   5.476   1.638  15.365 -0.6634  0.9492  1.2973
19100TIP3    H278716   5.362   1.738  15.365 -0.1583  1.5774 -0.8013
19101TIP3   OH278717   5.919   2.179   2.743  0.2691 -0.6017 -0.1709
19101TIP3    H178718   5.870   2.097   2.737 -0.0358 -0.3786 -0.8067
19101TIP3    H278719   5.940   2.202   2.652 -0.4218  0.4799 -0.0810
19102TIP3   OH278720   1.983   3.294  13.937 -0.3861  0.5024  0.1657
19102TIP3    H178721   1.991   3.382  13.974  2.1584  0.7536 -0.7598
19102TIP3    H278722   1.913   3.253  13.987 -0.3006  2.3971  1.9723
19103TIP3   OH278723   4.723   6.744  10.536  0.1595 -0.3341 -0.3960
19103TIP3    H178724   4.699   6.830  10.570  0.4095  0.1731 -1.4825
19103TIP3    H278725   4.818   6.741  10.543  0.1150 -0.7406  0.1226
19104TIP3   OH278726   1.057   6.578  15.184  0.0858 -0.1974 -0.4150
19104TIP3    H178727   1.015   6.632  15.117 -0.6438  1.1418  1.0536
19104TIP3    H278728   1.084   6.641  15.251  0.0175 -1.5686  0.9441
19105TIP3   OH278729   2.339   4.806   0.452 -0.0595 -0.0756  0.6203
19105TIP3    H178730   2.409   4.854   0.409 -0.8659  1.7879  1.2845
19105TIP3    H278731   2.327   4.728   0.398  2.3470 -0.3523  0.3743
19106TIP3   OH278732   0.112   3.411  12.427  0.1988  0.0160 -0.1744
19106TIP3    H178733   0.203   3.383  12.433 -0.3936 -2.0533  0.1482
19106TIP3    H278734   0.074   3.390  12.513 -0.2993  2.0703  0.1552
19107TIP3   OH278735   4.111   1.099  11.378  0.3697 -0.2864 -0.3408
19107TIP3    H178736   4.118   1.191  11.354 -1.4077 -0.6617 -2.7038
19107TIP3    H278737   4.154   1.052  11.306  0.5487 -1.3464  0.4306
19108TIP3   OH278738   1.582   4.201  13.227  0.0866  0.1196 -0.0304
19108TIP3    H178739   1.672   4.223  13.250  0.5078 -1.5211  0.0327
19108TIP3    H278740   1.589   4.114  13.186 -1.5846 -0.5927  1.0955
19109TIP3   OH278741   5.577   2.158   5.996  0.1186  0.0359 -0.6190
19109TIP3    H178742   5.596   2.066   6.015  0.1884  0.3519  0.9883
19109TIP3    H278743   5.662   2.202   6.003 -0.2847  0.6061  1.2174
19110TIP3   OH278744   5.964   5.003  17.037  0.0270  0.4557 -0.1499
19110TIP3    H178745   5.938   4.940  16.970 -0.3163  0.0813  0.3357
19110TIP3    H278746   5.882   5.035  17.073  0.1767  1.6501 -0.8190
19111TIP3   OH278747   0.730   2.885  12.072  0.2481  0.3135  0.4477
19111TIP3    H178748   0.657   2.830  12.043  0.3078  0.0835  0.7300
19111TIP3    H278749   0.706   2.910  12.161 -0.4140  1.8303 -0.1229
19112TIP3   OH278750   1.495   3.759   3.271  0.0384  0.3032  0.0380
19112TIP3    H178751   1.541   3.773   3.189 -0.0901  0.2912 -0.0363
19112TIP3    H278752   1.423   3.822   3.269 -0.4694 -0.2767 -0.2417
19113TIP3   OH278753   3.330   4.034  12.427  0.1143 -0.4634 -0.3579
19113TIP3    H178754   3.263   4.096  12.456 -2.1538 -2.7555 -0.3346
19113TIP3    H278755   3.323   4.032  12.332  1.9327  1.0562 -0.5894
19114TIP3   OH278756   4.137   0.292  15.286  0.0301  0.1945  0.6986
19114TIP3    H178757   4.125   0.198  15.297 -1.3517  0.1644 -0.6770
19114TIP3    H278758   4.231   0.302  15.266  0.2297 -0.8551  1.0385
19115TIP3   OH278759   6.018   6.162   1.391  0.1835 -0.2939 -0.2955
19115TIP3    H178760   6.062   6.077   1.385  1.0759  0.2006 -0.9276
19115TIP3    H278761   6.087   6.226   1.376 -0.8388  0.4844 -1.9689
19116TIP3   OH278762   3.431   2.676   4.105  0.4814 -0.3084  0.2431
19116TIP3    H178763   3.438   2.586   4.137  1.2832 -0.5291 -0.5006
19116TIP3    H278764   3.344   2.681   4.065 -0.2922 -0.2016  1.8785
19117TIP3   OH278765   0.931   5.678   5.065  0.0062  0.4137  0.0167
19117TIP3    H178766   0.857   5.635   5.107  0.1231 -0.6033 -0.7761
19117TIP3    H278767   0.893   5.723   4.989  0.0253  0.8952  0.2932
19118TIP3   OH278768   5.685   0.743  14.030  0.6251  0.6856 -0.1394
19118TIP3    H178769   5.729   0.689  13.964  1.4939  0.3764  0.6701
19118TIP3    H278770   5.652   0.818  13.981  2.3787  1.1128 -0.7364
19119TIP3   OH278771   2.688   5.066   6.360 -0.4321  0.1781 -0.3521
19119TIP3    H178772   2.732   5.017   6.430  0.9227  0.3116 -1.0867
19119TIP3    H278773   2.739   5.147   6.351 -1.0730  0.5289 -0.9514
19120TIP3   OH278774   2.247   4.261   2.650  0.2859 -0.0520  0.0030
19120TIP3    H178775   2.173   4.301   2.604 -0.5889 -1.0392  0.5095
19120TIP3    H278776   2.249   4.171   2.616  0.5256 -0.3661  0.8409
19121TIP3   OH278777   6.616   3.989   6.452  0.3840  0.3855 -0.1656
19121TIP3    H178778   6.581   3.901   6.467 -0.4878  0.8591  0.6885
19121TIP3    H278779   6.698   3.991   6.501  0.9963 -0.3107 -1.1244
19122TIP3   OH278780   1.625   6.332  15.921  0.1983  0.1618 -0.0917
19122TIP3    H178781   1.639   6.425  15.901  1.0912 -0.2250 -1.3599
19122TIP3    H278782   1.626   6.328  16.017  0.0288  1.4793 -0.0170
19123TIP3   OH278783   0.443   5.447   1.253  0.0745 -0.4895  0.1511
19123TIP3    H178784   0.425   5.445   1.347  2.1704  1.4755  0.7010
19123TIP3    H278785   0.357   5.442   1.211 -1.0407  0.4051  2.2183
19124TIP3   OH278786   4.917   6.079  11.987 -0.0231 -0.7774 -0.2621
19124TIP3    H178787   4.959   6.065  12.072  0.4537 -0.9948 -0.5310
19124TIP3    H278788   4.855   6.007  11.978 -1.6512  0.4077  0.8484
19125TIP3   OH278789   4.293   4.798  17.385  0.0218 -0.3804  0.3236
19125TIP3    H178790   4.209   4.811  17.429 -0.8309 -1.9889 -0.7258
19125TIP3    H278791   4.308   4.704  17.390 -0.0031 -0.6274 -2.5170
19126TIP3   OH278792   0.453   0.683   2.408  0.2322  0.5991 -0.5298
19126TIP3    H178793   0.396   0.606   2.405  0.0756  0.4906  2.2973
19126TIP3    H278794   0.540   0.651   2.386  0.1628 -0.4383  0.6082
19127TIP3   OH278795   6.049   4.123  16.079  0.9625 -0.2446 -0.0725
19127TIP3    H178796   5.980   4.155  16.020  0.9695  1.3183  0.7076
19127TIP3    H278797   6.117   4.191  16.075  0.4572  0.5292  2.5870
19128TIP3   OH278798   5.472   1.889  11.144  0.4838 -0.3980  0.1306
19128TIP3    H178799   5.509   1.883  11.056  0.8149  1.0702  0.1436
19128TIP3    H278800   5.427   1.806  11.157  0.7553 -0.7865 -1.2760
19129TIP3   OH278801   2.284   4.360  12.080 -0.0126  0.0777 -0.7933
19129TIP3    H178802   2.207   4.416  12.071 -0.2843 -0.4303 -1.8250
19129TIP3    H278803   2.270   4.313  12.162 -0.3032  0.7259 -0.4650
19130TIP3   OH278804   6.235   6.346  16.475  0.0844  0.4476 -0.7303
19130TIP3    H178805   6.174   6.405  16.520  1.0524 -0.0467  1.3870
19130TIP3    H278806   6.183   6.268  16.455  0.0579 -0.2076  1.5619
19131TIP3   OH278807   0.973   4.961  11.939  0.3769  0.2952 -0.2719
19131TIP3    H178808   0.936   4.888  11.890  3.5672 -1.0280 -0.9500
19131TIP3    H278809   0.933   5.039  11.900 -1.9396 -0.9558 -0.5785
19132TIP3   OH278810   0.721   3.485   6.278 -0.1317 -0.1316  0.4835
19132TIP3    H178811   0.680   3.571   6.283  0.4257  0.4629 -2.8182
19132TIP3    H278812   0.792   3.496   6.215 -0.7857 -3.2267 -0.9751
19133TIP3   OH278813   5.409   2.613  11.534  0.7831 -0.3938 -0.0795
19133TIP3    H178814   5.398   2.540  11.473  0.2169 -0.7553  0.4568
19133TIP3    H278815   5.380   2.580  11.618 -0.0949  0.6311  0.0526
19134TIP3   OH278816   0.687   1.471   1.908 -0.1836 -0.1399  0.3721
19134TIP3    H178817   0.618   1.494   1.971 -0.2310 -0.9224  0.6133
19134TIP3    H278818   0.641   1.425   1.838 -0.2658  1.4423 -0.6826
19135TIP3   OH278819   6.660   3.751   5.037 -0.2065 -0.4856  0.2878
19135TIP3    H178820   6.656   3.788   4.949  0.0457  2.7663  1.5076
19135TIP3    H278821   6.580   3.700   5.046 -0.2076 -0.9396 -1.8040
19136TIP3   OH278822   2.126   2.638  11.897  0.3510 -0.3236 -0.3186
19136TIP3    H178823   2.059   2.578  11.866  0.7826 -0.4260 -1.0653
19136TIP3    H278824   2.081   2.722  11.906  0.3120 -0.1871 -1.6470
19137TIP3   OH278825   2.440   6.425  13.759  0.2680 -0.5420  0.2580
19137TIP3    H178826   2.418   6.406  13.668 -2.7114 -1.0836  0.9721
19137TIP3    H278827   2.522   6.474  13.754 -0.0974 -0.0232 -2.7487
19138TIP3   OH278828   2.523   4.199  13.802 -0.8193  0.4469  0.1475
19138TIP3    H178829   2.598   4.246  13.838  0.0713 -1.6493  1.2414
19138TIP3    H278830   2.486   4.152  13.877 -2.8749  0.9441 -0.4962
19139TIP3   OH278831   4.824   4.816  14.048 -0.4963  0.2609 -0.4369
19139TIP3    H178832   4.749   4.873  14.069 -1.1788 -0.8782  0.3079
19139TIP3    H278833   4.854   4.847  13.962 -3.0627 -0.4787 -1.7124
19140TIP3   OH278834   5.910   6.412  14.221  0.3828  0.5939  0.3182
19140TIP3    H178835   5.859   6.491  14.208 -1.2372 -0.4023  0.2561
19140TIP3    H278836   6.000   6.437  14.202  0.0378  2.5923  1.0581
19141TIP3   OH278837   1.827   5.089   3.639  0.0559  0.0111 -0.2556
19141TIP3    H178838   1.781   5.172   3.628  0.1534  0.3279  1.5092
19141TIP3    H278839   1.766   5.024   3.603  0.7766  0.9420 -3.4933
19142TIP3   OH278840   4.829   3.688   1.931 -0.5656 -0.8917 -0.2091
19142TIP3    H178841   4.889   3.756   1.960 -2.1463  0.5993 -0.2754
19142TIP3    H278842   4.878   3.607   1.943  0.7162  0.0698  1.6770
19143TIP3   OH278843   0.332   5.621   4.946 -0.1991 -0.4403 -0.5405
19143TIP3    H178844   0.329   5.675   4.867  0.6758  0.7326  0.2130
19143TIP3    H278845   0.345   5.532   4.913 -0.4129 -0.0468 -1.7390
19144TIP3   OH278846   4.969   1.468  10.910 -0.2725 -0.1642  0.0276
19144TIP3    H178847   5.062   1.449  10.919 -0.3191 -0.7646 -0.6613
19144TIP3    H278848   4.928   1.430  10.987 -0.2377 -2.0252 -0.8356
19145TIP3   OH278849   5.773   0.146  16.591  0.2754 -0.0401 -0.0428
19145TIP3    H178850   5.705   0.155  16.657 -1.5209  0.7236 -1.9100
19145TIP3    H278851   5.791   0.051  16.588 -1.4946 -0.3905 -0.2630
19146TIP3   OH278852   5.327   2.885  13.845 -0.1654 -0.0375 -0.2691
19146TIP3    H178853   5.260   2.902  13.911 -1.2157  0.7458 -1.4964
19146TIP3    H278854   5.383   2.818  13.885 -0.3495  0.9099  1.6796
19147TIP3   OH278855   5.976   2.407  12.455  0.3303 -0.7604 -0.9518
19147TIP3    H178856   5.907   2.463  12.418  0.1111  1.0858  1.9372
19147TIP3    H278857   6.053   2.425  12.402 -0.0595  1.4140 -0.8559
19148TIP3   OH278858   5.726   2.454   5.902  0.1287  0.6295  0.0124
19148TIP3    H178859   5.690   2.452   5.814 -1.8288 -0.1097  0.7850
19148TIP3    H278860   5.655   2.487   5.957  1.5348  1.7590  1.2483
19149TIP3   OH278861   3.885   2.984   5.813 -0.6897 -0.2674  0.3499
19149TIP3    H178862   3.819   2.951   5.874 -1.5668 -0.7739 -0.8305
19149TIP3    H278863   3.848   3.067   5.781 -0.2155  0.0182  0.5425
19150TIP3   OH278864   4.252   2.812   5.229  0.1739  0.1071 -0.1814
19150TIP3    H178865   4.318   2.856   5.284  1.3596 -0.2500 -1.2575
19150TIP3    H278866   4.303   2.777   5.156 -1.3012  0.2344 -1.2976
19151TIP3   OH278867   3.373   3.998  11.870 -0.5453 -0.6968  0.6008
19151TIP3    H178868   3.390   3.907  11.892 -0.0380 -0.4114  1.4607
19151TIP3    H278869   3.443   4.047  11.913  0.3653 -0.0475 -1.4944
19152TIP3   OH278870   1.192   4.098  11.853  0.2961 -0.3229  0.4256
19152TIP3    H178871   1.229   4.163  11.913 -0.1423 -0.4635  0.8574
19152TIP3    H278872   1.153   4.032  11.911 -0.1358 -0.4610 -0.0182
19153TIP3   OH278873   6.032   6.001   0.777 -0.0940  0.5762  0.7098
19153TIP3    H178874   6.123   6.017   0.750 -0.0192  0.0471  0.6319
19153TIP3    H278875   6.020   6.055   0.855  0.8662 -0.7096  1.8069
19154TIP3   OH278876   4.143   6.010  13.331  0.1708  0.1735 -0.1387
19154TIP3    H178877   4.063   6.022  13.383  1.9704  1.9730  2.5281
19154TIP3    H278878   4.130   6.066  13.255 -1.8103 -1.0391 -0.7741
19155TIP3   OH278879   3.124   1.178  13.188  0.1168  0.4153  0.4690
19155TIP3    H178880   3.063   1.106  13.205 -0.1258  0.8948  1.7690
19155TIP3    H278881   3.169   1.191  13.271  3.3095 -1.0773 -0.8571
19156TIP3   OH278882   3.189   1.507  12.863 -0.0493 -0.2941 -0.0146
19156TIP3    H178883   3.192   1.554  12.946 -2.6691  0.9488 -0.5105
19156TIP3    H278884   3.215   1.418  12.884 -0.6435 -0.0023  2.1517
19157TIP3   OH278885   5.882   6.093   6.146  0.6887 -0.3198 -0.1100
19157TIP3    H178886   5.919   6.180   6.133 -0.0340  0.1838  1.0692
19157TIP3    H278887   5.790   6.108   6.165  0.5452 -1.3495  0.0635
19158TIP3   OH278888   6.244   3.038  14.277  0.5002  0.1429 -0.6900
19158TIP3    H178889   6.220   3.128  14.297 -0.0754  0.5940 -3.0887
19158TIP3    H278890   6.175   2.985  14.317  0.4284  0.8155  0.0941
19159TIP3   OH278891   2.764   5.295  13.000 -0.1168  0.3923 -0.3058
19159TIP3    H178892   2.807   5.230  13.056 -0.4671  1.4072  1.2027
19159TIP3    H278893   2.825   5.308  12.927  1.1019  0.1821  0.6372
19160TIP3   OH278894   4.314   4.071   4.519 -0.4759  0.3618  0.0774
19160TIP3    H178895   4.231   4.043   4.482 -0.2771 -0.2161  0.0581
19160TIP3    H278896   4.376   4.001   4.497  0.0334  0.8177  0.0250
19161TIP3   OH278897   2.394   0.028   2.011 -0.3549  0.1525  0.1252
19161TIP3    H178898   2.405  -0.066   2.021 -0.5313  0.2524  1.4255
19161TIP3    H278899   2.470   0.056   1.960 -1.1023 -0.8841 -1.6325
19162TIP3   OH278900   5.550   1.865  12.259  0.5596  0.3007  0.2131
19162TIP3    H178901   5.468   1.897  12.220  0.9004  1.0327  0.0782
19162TIP3    H278902   5.552   1.905  12.346  1.2854  1.1553 -0.1859
19163TIP3   OH278903   4.200   1.901  16.230 -0.3384 -0.5478  0.2899
19163TIP3    H178904   4.131   1.869  16.289 -0.9317  1.5540  0.8136
19163TIP3    H278905   4.279   1.899  16.283 -0.7803  0.8542  1.0619
19164TIP3   OH278906   5.812   5.121   1.884 -0.0913  0.3173  0.9275
19164TIP3    H178907   5.844   5.126   1.973 -0.9140 -0.5218  1.2974
19164TIP3    H278908   5.802   5.212   1.856  1.9253  0.6052  1.0056
19165TIP3   OH278909   2.607   1.308  16.568 -0.7858  0.2744  0.1026
19165TIP3    H178910   2.601   1.391  16.520  0.8978 -0.7576 -2.0650
19165TIP3    H278911   2.517   1.288  16.592 -1.6969  1.0967 -2.3114
19166TIP3   OH278912   1.365   1.056  11.949 -0.0390 -0.2052  0.1587
19166TIP3    H178913   1.401   0.986  12.003 -0.9175  0.3245  1.5108
19166TIP3    H278914   1.425   1.129  11.961 -0.3934  0.0076  0.6948
19167TIP3   OH278915   0.512   3.959   1.921  0.0027 -0.2454 -0.6683
19167TIP3    H178916   0.558   4.031   1.879 -0.7280  1.6326  1.5657
19167TIP3    H278917   0.576   3.887   1.920  1.3056  0.8565 -1.6475
19168TIP3   OH278918   3.570   6.274  16.113  0.0718 -0.2191  0.2723
19168TIP3    H178919   3.548   6.360  16.147  2.8910  0.1685  1.4163
19168TIP3    H278920   3.487   6.237  16.084 -1.6267  1.7811  2.2848
19169TIP3   OH278921   3.443   0.597  12.638  0.2463 -0.2610 -0.2431
19169TIP3    H178922   3.478   0.508  12.637 -2.4688 -1.4291 -1.8085
19169TIP3    H278923   3.409   0.609  12.727  2.3434  0.0231  0.5743
19170TIP3   OH278924   4.267   2.705  15.220  0.5550 -0.2271  0.5421
19170TIP3    H178925   4.344   2.760  15.202  1.1100 -0.9121  0.7881
19170TIP3    H278926   4.282   2.625  15.169 -0.3639 -0.0683 -0.0050
19171TIP3   OH278927   2.467   5.292   3.672  0.5359 -0.1078  0.4631
19171TIP3    H178928   2.410   5.215   3.673  0.7380 -0.2768  1.9588
19171TIP3    H278929   2.485   5.309   3.764  0.7223  1.5760  0.1544
19172TIP3   OH278930   2.739   6.018   4.817 -0.6493  0.1824  0.2230
19172TIP3    H178931   2.717   5.942   4.871  2.5261 -1.1936 -0.2190
19172TIP3    H278932   2.732   5.987   4.727  1.4833  0.0586  0.0437
19173TIP3   OH278933   1.243   5.031  16.259 -0.0509 -0.1437  0.2283
19173TIP3    H178934   1.319   5.078  16.292 -0.7370  1.8406 -0.7996
19173TIP3    H278935   1.168   5.069  16.306 -0.6871  0.3006 -1.0748
19174TIP3   OH278936   5.674   0.571  11.166  0.4069  0.4254 -0.4214
19174TIP3    H178937   5.768   0.583  11.177  0.4722  1.4778 -1.8217
19174TIP3    H278938   5.650   0.632  11.097 -1.1482 -0.4876 -0.7414
19175TIP3   OH278939   1.902   4.304  16.080 -0.1703 -0.1082 -0.1430
19175TIP3    H178940   1.954   4.338  16.153 -1.8573 -0.4947  1.3297
19175TIP3    H278941   1.960   4.245  16.033  1.0241  0.2981  0.7866
19176TIP3   OH278942   0.332   0.784  11.909 -0.2194  0.3057 -0.2152
19176TIP3    H178943   0.424   0.800  11.888 -0.0298  1.1559  1.1262
19176TIP3    H278944   0.310   0.702  11.864  1.6102 -0.7075  0.6485
19177TIP3   OH278945   5.210   3.324  11.749 -0.1040  0.2789 -0.1308
19177TIP3    H178946   5.287   3.379  11.736  0.9014 -1.0693  0.0277
19177TIP3    H278947   5.231   3.241  11.707 -1.2961 -0.2755  0.3045
19178TIP3   OH278948   0.934   0.923   0.804 -0.6461  0.0118 -0.2021
19178TIP3    H178949   0.881   0.844   0.813  0.5235 -0.6795  1.0663
19178TIP3    H278950   0.974   0.916   0.717  0.8169 -1.7368  0.5416
19179TIP3   OH278951   2.156   6.228  13.465 -0.0060 -0.0989 -0.3693
19179TIP3    H178952   2.114   6.229  13.378 -0.7910 -0.4618 -0.0038
19179TIP3    H278953   2.222   6.159  13.458  0.1948  0.1313 -0.7950
19180TIP3   OH278954   4.239   5.677   3.584 -0.2949 -0.0422 -0.7038
19180TIP3    H178955   4.299   5.627   3.639 -0.3711  0.7874  0.1509
19180TIP3    H278956   4.157   5.627   3.587 -0.7903  0.7866  1.2550
19181TIP3   OH278957   1.795   4.267   0.462 -0.5031 -0.0358  0.5526
19181TIP3    H178958   1.825   4.178   0.479  1.1043  0.0348 -1.5141
19181TIP3    H278959   1.702   4.267   0.487 -0.1562 -1.8499  1.9616
19182TIP3   OH278960   3.663   1.288   3.037  0.0859  0.1575  0.1361
19182TIP3    H178961   3.594   1.353   3.052 -0.0966 -0.4886  2.3354
19182TIP3    H278962   3.741   1.327   3.077  1.4565  1.4269 -3.3436
19183TIP3   OH278963   5.919   2.382  15.026  0.5464 -0.9009  0.0199
19183TIP3    H178964   5.931   2.301  15.076  0.3000 -0.9970 -0.0776
19183TIP3    H278965   5.986   2.441  15.060 -1.9624  0.3846  3.2081
19184TIP3   OH278966   4.467   5.361  12.052  0.6009  0.3276 -0.2033
19184TIP3    H178967   4.466   5.265  12.047 -0.1319  0.1618  1.8333
19184TIP3    H278968   4.490   5.390  11.964  0.3027 -1.7072 -1.0079
19185TIP3   OH278969   4.489   2.158  12.016 -0.0249 -0.2225 -0.0254
19185TIP3    H178970   4.525   2.124  11.934 -0.7263  0.0373 -0.4484
19185TIP3    H278971   4.453   2.081  12.060  1.2714 -0.5397  0.5443
19186TIP3   OH278972   3.525   3.713   4.659 -0.1996 -0.1466 -0.2042
19186TIP3    H178973   3.546   3.628   4.697 -0.1686  0.4855  1.2374
19186TIP3    H278974   3.443   3.740   4.702  0.7715  1.3883  0.7939
19187TIP3   OH278975   0.399   1.248  10.683 -0.3171 -0.1894 -0.0616
19187TIP3    H178976   0.440   1.321  10.637 -1.3833  0.8086  0.5232
19187TIP3    H278977   0.338   1.211  10.620 -0.2638 -0.1610 -0.1302
19188TIP3   OH278978   5.829   6.038   2.520 -0.2199 -0.1010 -0.2190
19188TIP3    H178979   5.789   6.121   2.495 -0.9031 -0.0201  1.0938
19188TIP3    H278980   5.902   6.027   2.459 -1.2343  0.5464 -1.5938
19189TIP3   OH278981   5.855   5.294   0.597  0.0177  0.2219 -0.0050
19189TIP3    H178982   5.888   5.304   0.686  0.1660  0.1544 -0.0536
19189TIP3    H278983   5.932   5.275   0.543  0.2410  2.2172 -0.4820
19190TIP3   OH278984   5.882   1.776  16.639 -0.8597  0.3141 -0.7806
19190TIP3    H178985   5.809   1.727  16.600 -0.6781 -0.1936 -0.4963
19190TIP3    H278986   5.941   1.793  16.566 -1.5220  1.2189 -1.1203
19191TIP3   OH278987   4.152   4.308  13.036 -0.0190 -0.0076  0.1333
19191TIP3    H178988   4.167   4.246  13.107 -1.0216 -0.0506  0.3278
19191TIP3    H278989   4.207   4.384  13.058 -0.9124  0.3183  1.4054
19192TIP3   OH278990   1.566   5.914  16.331  0.2407 -0.3453  0.2620
19192TIP3    H178991   1.516   5.832  16.340  0.9073 -0.6709  1.3032
19192TIP3    H278992   1.657   5.885  16.320  0.4488  0.2496  0.3745
19193TIP3   OH278993   5.846   0.353   0.970 -0.2586  0.2950 -0.2061
19193TIP3    H178994   5.884   0.441   0.959  1.3523 -0.4233 -0.7533
19193TIP3    H278995   5.784   0.345   0.898 -0.5357  1.0402 -0.0622
19194TIP3   OH278996   6.731   2.674  10.672  0.6346  0.4289 -0.3950
19194TIP3    H178997   6.738   2.599  10.730 -0.0434  0.1427 -0.6656
19194TIP3    H278998   6.660   2.651  10.611 -0.5687  1.8321  0.3787
19195TIP3   OH278999   3.098   2.576  12.396 -0.5240  0.7798  0.6035
19195TIP3    H179000   3.080   2.653  12.342  0.2815  0.1788 -0.5541
19195TIP3    H279001   3.107   2.611  12.485  1.2909  2.2567 -0.0954
19196TIP3   OH279002   6.694   0.421  17.173 -0.3736 -0.1100  0.6475
19196TIP3    H179003   6.739   0.472  17.240  0.7155 -1.0743  0.6707
19196TIP3    H279004   6.658   0.345  17.220 -1.2686  0.1906  0.4689
19197TIP3   OH279005   6.399   1.274   0.571 -0.2390 -0.2347  1.2107
19197TIP3    H179006   6.368   1.330   0.643  2.3983 -1.7085  3.6954
19197TIP3    H279007   6.395   1.185   0.606  0.8286 -1.0518 -0.5915
19198TIP3   OH279008   0.280   4.518  13.425 -0.7856 -0.1651 -0.6803
19198TIP3    H179009   0.372   4.544  13.431 -0.1515 -2.2553 -0.6561
19198TIP3    H279010   0.282   4.433  13.380 -2.5873 -0.8540  0.4403
19199TIP3   OH279011   4.088   3.207  13.464  0.4686 -0.0624 -0.1441
19199TIP3    H179012   4.026   3.246  13.526 -0.3009 -2.5548  0.7478
19199TIP3    H279013   4.127   3.134  13.511  0.9098 -1.1728 -2.1152
19200TIP3   OH279014   2.924   1.472  14.365  0.2075  0.1371 -0.3300
19200TIP3    H179015   2.971   1.405  14.316 -0.1818 -0.0288 -0.4876
19200TIP3    H279016   2.987   1.542  14.377 -0.0768  0.8222 -2.3373
19201TIP3   OH279017   0.848   2.895   4.743 -0.1743 -0.0899 -0.2661
19201TIP3    H179018   0.812   2.975   4.704 -1.8460 -0.4286  0.4775
19201TIP3    H279019   0.794   2.880   4.820  2.9651  0.5737  2.2899
19202TIP3   OH279020   2.313   2.626  11.658 -0.6800  0.1641  0.3533
19202TIP3    H179021   2.286   2.699  11.602  0.4113  0.9790  0.8320
19202TIP3    H279022   2.265   2.640  11.740 -1.4930 -0.4414 -0.0066
19203TIP3   OH279023   1.472   4.311   3.389 -0.3499  0.4288  0.0248
19203TIP3    H179024   1.398   4.345   3.439  0.2491  1.2518  0.3633
19203TIP3    H279025   1.461   4.216   3.393 -0.2414  0.4570  1.8685
19204TIP3   OH279026   5.687   1.512  12.758 -0.0473 -0.4692 -0.1658
19204TIP3    H179027   5.621   1.443  12.765 -0.1803 -0.6779 -2.6321
19204TIP3    H279028   5.771   1.466  12.755  0.2649 -0.2330  2.3246
19205TIP3   OH279029   1.394   1.805   1.545 -0.3809 -0.0575 -0.9893
19205TIP3    H179030   1.338   1.729   1.554 -0.7829  0.3964  0.7662
19205TIP3    H279031   1.483   1.771   1.555 -0.3904 -0.5892 -2.4860
19206TIP3   OH279032   4.593   0.806   1.652  0.3728 -0.4800  0.6424
19206TIP3    H179033   4.616   0.799   1.559  1.3414 -1.3009  0.9302
19206TIP3    H279034   4.546   0.890   1.658  1.2910  0.1422 -0.3825
19207TIP3   OH279035   5.915   1.772  11.563 -0.2494 -0.0002 -0.4115
19207TIP3    H179036   5.876   1.699  11.515 -0.1306  0.3023 -0.9776
19207TIP3    H279037   5.945   1.832  11.495  2.4448 -0.8408 -0.1072
19208TIP3   OH279038   2.701   6.634  12.317  0.3425  0.1446 -0.3215
19208TIP3    H179039   2.626   6.676  12.275  0.9539 -0.1192 -1.7282
19208TIP3    H279040   2.733   6.699  12.380 -1.3678  0.0485  0.7067
19209TIP3   OH279041   4.299   0.553   4.818  0.3890  0.2105 -0.0758
19209TIP3    H179042   4.371   0.498   4.785 -0.1295  0.5838 -1.9762
19209TIP3    H279043   4.263   0.504   4.891  0.8061 -1.3460 -0.8615
19210TIP3   OH279044   1.824   2.033  12.085 -0.1171  0.7314  0.2109
19210TIP3    H179045   1.748   2.038  12.027  0.6094  2.8470 -0.6438
19210TIP3    H279046   1.865   2.119  12.079  1.7137  0.0191  1.5407
19211TIP3   OH279047   3.631   4.538  12.873 -0.0935  1.1315  0.6333
19211TIP3    H179048   3.701   4.507  12.817 -0.2277  2.5069 -0.3418
19211TIP3    H279049   3.668   4.537  12.961  0.2936 -0.5500  0.4656
19212TIP3   OH279050   6.088   6.275   3.491 -0.0265 -1.0270 -0.0779
19212TIP3    H179051   6.111   6.197   3.542  0.6129 -0.6751  0.1915
19212TIP3    H279052   6.011   6.310   3.535  1.3043  0.0486  1.5601
19213TIP3   OH279053   1.622   5.084  14.486  0.6327  0.3497 -0.2100
19213TIP3    H179054   1.661   5.008  14.443 -0.9024 -1.4600  1.4040
19213TIP3    H279055   1.531   5.084  14.457  0.4838  1.2690  0.2237
19214TIP3   OH279056   3.955   6.143   0.087 -0.3369 -0.4144  0.6941
19214TIP3    H179057   3.875   6.092   0.071 -0.0703 -0.0624 -2.6201
19214TIP3    H279058   4.026   6.081   0.074 -0.0568  0.1978 -0.9480
19215TIP3   OH279059   0.039   1.412  12.053  0.5110 -0.0652 -0.7011
19215TIP3    H179060  -0.011   1.451  11.981  1.5917 -2.0475 -2.6545
19215TIP3    H279061   0.130   1.431  12.031  0.8651 -0.8808  0.0210
19216TIP3   OH279062   0.311   4.231   4.648 -0.0198  0.0643 -0.0399
19216TIP3    H179063   0.401   4.215   4.618 -0.2667  1.4378 -1.6674
19216TIP3    H279064   0.266   4.148   4.635  0.8370 -0.4394  0.1234
19217TIP3   OH279065   2.374   2.935  14.889 -0.4699  0.0452  0.1700
19217TIP3    H179066   2.328   2.853  14.907 -1.4788  0.8661  1.5111
19217TIP3    H279067   2.455   2.908  14.845 -1.0490 -1.6129  0.0593
19218TIP3   OH279068   6.447   5.664  12.925  0.4102  0.5910 -0.0730
19218TIP3    H179069   6.493   5.603  12.981  0.2492  0.2225 -0.3395
19218TIP3    H279070   6.509   5.736  12.911  1.7813 -0.8853 -2.1938
19219TIP3   OH279071   0.993   4.274   3.743  0.1265 -0.4218  0.0012
19219TIP3    H179072   0.930   4.276   3.815  2.1913  0.0815  1.9032
19219TIP3    H279073   1.020   4.183   3.737 -0.2359 -0.5081 -0.2993
19220TIP3   OH279074   0.548   3.101   4.853 -0.4879 -0.5279  0.9307
19220TIP3    H179075   0.614   3.120   4.787  2.0790  0.8663  3.6250
19220TIP3    H279076   0.514   3.187   4.879 -0.0203 -0.8122  2.6506
19221TIP3   OH279077   5.424   5.981  16.058 -0.6577 -0.0105 -0.6178
19221TIP3    H179078   5.351   5.927  16.030 -0.7494 -0.0563 -0.2964
19221TIP3    H279079   5.391   6.071  16.051 -1.3593 -0.0850  1.1718
19222TIP3   OH279080   6.537   2.445   3.353  0.6133 -0.2214 -0.0875
19222TIP3    H179081   6.474   2.502   3.397 -0.6190 -1.6826  0.1466
19222TIP3    H279082   6.484   2.374   3.318  2.0442 -1.0436 -0.6613
19223TIP3   OH279083   6.583   4.342   3.304 -0.0502 -0.3844 -0.2519
19223TIP3    H179084   6.570   4.436   3.291 -0.3821 -0.2902  0.6630
19223TIP3    H279085   6.577   4.330   3.399 -2.1952 -1.6559 -0.4989
19224TIP3   OH279086   2.928   0.068  15.394  0.1647 -0.1489  0.3764
19224TIP3    H179087   2.891   0.064  15.305  0.7550  0.6827  0.0816
19224TIP3    H279088   3.022   0.055  15.381  0.2291 -0.2003  0.9022
19225TIP3   OH279089   3.836   2.139   4.645  0.1179  0.4476  0.3385
19225TIP3    H179090   3.899   2.088   4.696 -0.0097 -0.9275 -0.8059
19225TIP3    H279091   3.821   2.218   4.697  0.9390 -0.3117  1.7903
19226TIP3   OH279092   2.423   6.533  17.350 -0.0787 -0.2004  0.0281
19226TIP3    H179093   2.499   6.559  17.403 -0.8746 -0.2111  1.2165
19226TIP3    H279094   2.355   6.513  17.415 -0.6739 -1.5098 -0.9742
19227TIP3   OH279095   6.711   1.990   1.608  0.3945 -0.6813 -0.0470
19227TIP3    H179096   6.755   2.072   1.633  0.6644 -1.2744  1.4947
19227TIP3    H279097   6.673   1.957   1.689  0.1729 -2.0208 -0.6730
19228TIP3   OH279098   6.316   3.910  16.029  0.0721 -0.2992 -0.2454
19228TIP3    H179099   6.349   3.967  16.099 -1.0230  0.6444 -0.4772
19228TIP3    H279100   6.346   3.952  15.948  0.5267 -0.8739 -0.3812
19229TIP3   OH279101   5.985   0.386  14.770  0.6651 -0.0996  0.2204
19229TIP3    H179102   5.920   0.322  14.741  0.3157  0.6405 -0.6638
19229TIP3    H279103   5.991   0.372  14.865 -0.9857  0.0098  0.3622
19230TIP3   OH279104   5.488   1.913  12.523 -0.2314 -0.1051  0.1284
19230TIP3    H179105   5.519   1.839  12.575 -0.9073  0.2448  1.0429
19230TIP3    H279106   5.401   1.932  12.557 -0.0100  1.2138  0.0094
19231TIP3   OH279107   1.704   2.680  13.214  0.8362 -0.2828 -0.0530
19231TIP3    H179108   1.767   2.619  13.251  1.0044 -0.7116 -1.0229
19231TIP3    H279109   1.671   2.729  13.289  1.2282 -1.0701  0.6428
19232TIP3   OH279110   3.482   6.257  17.223 -0.3971  0.0964 -0.0842
19232TIP3    H179111   3.510   6.198  17.153  0.6080  0.9476 -0.4258
19232TIP3    H279112   3.514   6.343  17.196 -1.0661  0.6516  0.8359
19233TIP3   OH279113   6.608   3.858   2.216 -0.4099 -0.1104  0.6375
19233TIP3    H179114   6.649   3.941   2.240  0.4494  0.5002 -2.4161
19233TIP3    H279115   6.680   3.795   2.217 -0.3334 -0.0529 -0.2482
19234TIP3   OH279116   6.672   1.204   0.568 -0.2851 -0.3542 -0.2419
19234TIP3    H179117   6.576   1.210   0.573 -0.2515  0.1795 -0.1835
19234TIP3    H279118   6.702   1.251   0.645  0.0058 -1.4389  0.3275
19235TIP3   OH279119   3.781   0.921  14.819 -0.0768  1.1679 -0.6106
19235TIP3    H179120   3.809   1.006  14.785 -0.2854  1.3147 -0.4165
19235TIP3    H279121   3.861   0.883  14.856  0.1565  0.9966 -1.2763
19236TIP3   OH279122   1.986   1.612   6.448 -0.4850  0.2666 -0.4915
19236TIP3    H179123   2.078   1.622   6.475 -0.0418 -0.0163 -1.7989
19236TIP3    H279124   1.937   1.666   6.510  0.3887 -0.7477  1.1713
19237TIP3   OH279125   5.185   3.814   3.234  0.4185  0.4642 -0.0155
19237TIP3    H179126   5.274   3.788   3.256  0.0072 -2.1425 -0.9735
19237TIP3    H279127   5.145   3.839   3.318  1.9210  1.3652  0.4588
19238TIP3   OH279128   3.126   0.446  12.357 -0.2730 -0.1378  0.6608
19238TIP3    H179129   3.215   0.413  12.356 -0.5012 -0.9004  2.1891
19238TIP3    H279130   3.131   0.527  12.408 -0.4784 -0.2992  0.9414
19239TIP3   OH279131   4.582   4.181   3.443  0.5485 -0.4118 -0.2236
19239TIP3    H179132   4.530   4.145   3.371  0.0091  0.0253 -0.0600
19239TIP3    H279133   4.661   4.127   3.445 -0.1665 -1.4843 -0.0807
19240TIP3   OH279134   2.591   1.520   5.480  0.2161  0.0887 -0.3712
19240TIP3    H179135   2.651   1.550   5.411  1.2628  0.7450  0.7732
19240TIP3    H279136   2.648   1.501   5.555 -0.9356  0.0056  0.5181
19241TIP3   OH279137   6.225   3.794  14.196 -0.1458  0.2937 -0.4898
19241TIP3    H179138   6.261   3.710  14.225 -1.0869  0.5712  1.6921
19241TIP3    H279139   6.291   3.859  14.222 -0.2815  0.4005 -0.4089
19242TIP3   OH279140   2.868   0.894  12.827  0.2598  0.1956  0.3014
19242TIP3    H179141   2.882   0.799  12.827 -0.4500  0.0601  2.0446
19242TIP3    H279142   2.811   0.909  12.752 -1.0982 -1.0176  1.0480
19243TIP3   OH279143   4.060   0.360  16.260  0.1882  0.1021  0.3413
19243TIP3    H179144   4.118   0.284  16.269  0.8206  0.4445 -0.6559
19243TIP3    H279145   4.119   0.434  16.247 -0.4388  0.2881 -1.9606
19244TIP3   OH279146   5.549   3.445   3.735  0.6522  0.3392 -0.3707
19244TIP3    H179147   5.472   3.436   3.790 -0.2050  0.6933 -1.4696
19244TIP3    H279148   5.577   3.355   3.719  0.7859  0.2275  0.4465
19245TIP3   OH279149   2.512   2.453   4.419  0.4377 -0.0951  0.3352
19245TIP3    H179150   2.528   2.435   4.326  1.3376 -0.2524  0.5117
19245TIP3    H279151   2.578   2.518   4.442 -0.1575  0.3769  0.7253
19246TIP3   OH279152   5.370   4.510   0.286  0.3807 -0.5365 -0.4699
19246TIP3    H179153   5.286   4.532   0.327  0.2335 -0.6931 -0.6828
19246TIP3    H279154   5.429   4.494   0.359  0.6359  1.0722 -0.2759
19247TIP3   OH279155   3.358   6.008   6.609  0.0976  0.5107  0.1145
19247TIP3    H179156   3.449   5.998   6.639 -0.1991 -0.9529  0.6158
19247TIP3    H279157   3.308   6.018   6.690 -0.4447 -1.0904 -0.0012
19248TIP3   OH279158   6.488   2.860   2.974  0.6346 -0.0252 -0.0160
19248TIP3    H179159   6.441   2.932   2.931  0.0321 -1.2915 -1.5887
19248TIP3    H279160   6.420   2.799   3.001  1.0946  0.2083  1.8178
19249TIP3   OH279161   0.283   1.805  17.127  0.4646  0.5039 -0.3765
19249TIP3    H179162   0.300   1.711  17.117  1.1239  0.6644 -0.8110
19249TIP3    H279163   0.198   1.809  17.171  0.6372 -0.3007  0.0551
19250TIP3   OH279164   0.839   4.735  13.814  0.3401  0.0489 -0.0020
19250TIP3    H179165   0.930   4.714  13.838  0.5462  0.4766 -0.3834
19250TIP3    H279166   0.786   4.690  13.879  0.8160 -0.5078  0.0105
19251TIP3   OH279167   1.068   4.187  11.016  0.0884 -0.4387 -0.2195
19251TIP3    H179168   1.098   4.155  11.102  0.0053 -1.4498 -0.5563
19251TIP3    H279169   1.008   4.119  10.985  1.2278 -0.8217 -1.7219
19252TIP3   OH279170   2.815   3.842  13.465 -0.3250  1.0842 -0.0814
19252TIP3    H179171   2.903   3.861  13.498 -0.4635 -0.2235  1.1506
19252TIP3    H279172   2.756   3.894  13.519 -0.5253 -0.7988  1.6634
19253TIP3   OH279173   5.297   0.178  12.947  0.0457  0.5387 -0.3919
19253TIP3    H179174   5.242   0.235  13.002  0.2211  0.2222  0.1124
19253TIP3    H279175   5.373   0.159  13.001 -0.3292 -0.7380 -0.2941
19254TIP3   OH279176   0.002   5.266  17.026  1.0105  0.7250  0.0816
19254TIP3    H179177  -0.016   5.244  17.118  0.9907  1.8121  0.3529
19254TIP3    H279178  -0.050   5.345  17.010 -2.1884 -1.5799 -2.0637
19255TIP3   OH279179   3.313   1.139  12.114 -0.6799 -0.6198 -1.0784
19255TIP3    H179180   3.347   1.066  12.166 -0.6097 -0.8034 -1.3796
19255TIP3    H279181   3.373   1.211  12.132 -1.2700 -0.3573 -0.0614
19256TIP3   OH279182   0.090   0.712   4.200  0.1668  0.7008 -0.4643
19256TIP3    H179183   0.048   0.663   4.271 -1.2048  0.5443 -1.3518
19256TIP3    H279184   0.156   0.766   4.244 -1.1596  1.1828  1.0204
19257TIP3   OH279185   5.763   3.798   5.427  0.2229 -0.1698  0.1813
19257TIP3    H179186   5.845   3.781   5.472  0.2902 -0.5803 -0.0938
19257TIP3    H279187   5.769   3.889   5.399  1.6732 -0.8866 -2.0648
19258TIP3   OH279188   2.430   0.386   4.322  0.4912  0.6781  0.3583
19258TIP3    H179189   2.384   0.409   4.242  0.3266  1.5202  0.6852
19258TIP3    H279190   2.410   0.458   4.383  2.0158  0.9475  0.5835
19259TIP3   OH279191   5.342   5.049  11.535 -0.1145  0.2571 -0.6775
19259TIP3    H179192   5.327   5.141  11.515 -0.6909 -0.1789 -2.4610
19259TIP3    H279193   5.324   5.042  11.629 -2.9001  1.4501 -1.0115
19260TIP3   OH279194   0.742   6.217  14.171  0.4370  0.1085  0.4969
19260TIP3    H179195   0.816   6.156  14.176  0.0032 -0.3465  2.6689
19260TIP3    H279196   0.677   6.172  14.116  1.3503  0.0431 -0.5479
19261TIP3   OH279197   3.186   4.821  12.118 -0.0141 -0.3310 -0.1712
19261TIP3    H179198   3.137   4.865  12.187 -0.8091  0.5973 -1.2915
19261TIP3    H279199   3.119   4.793  12.056  0.7590 -0.3178 -1.0212
19262TIP3   OH279200   5.285   3.038   6.262 -0.4882 -0.1206  0.0657
19262TIP3    H179201   5.348   2.993   6.206  0.1373  0.9184 -0.1023
19262TIP3    H279202   5.217   2.973   6.280  0.6744 -1.2959  0.3270
19263TIP3   OH279203   4.160   0.495  14.224  0.1196  0.6635  0.5903
19263TIP3    H179204   4.131   0.471  14.136 -1.3189  0.2500  1.1570
19263TIP3    H279205   4.251   0.523  14.212  0.2052 -0.1404 -0.8990
19264TIP3   OH279206   0.195   2.664   4.434  0.1850 -0.5319 -0.1957
19264TIP3    H179207   0.153   2.609   4.367 -1.7564 -0.5006  0.9144
19264TIP3    H279208   0.133   2.663   4.507  2.1942 -0.4849  1.5840
19265TIP3   OH279209   2.429   3.615   4.886 -0.3234  0.4218 -0.1521
19265TIP3    H179210   2.358   3.616   4.822 -0.9259 -0.4856  0.4705
19265TIP3    H279211   2.389   3.579   4.965  0.8932 -0.3416  0.1417
19266TIP3   OH279212   6.429   1.383  15.321 -0.0335  0.1306  0.0750
19266TIP3    H179213   6.401   1.325  15.250 -1.0641  0.2317  0.3758
19266TIP3    H279214   6.414   1.471  15.288 -2.2160  0.1840  1.0010
19267TIP3   OH279215   4.435   5.848   2.815 -0.0103  0.3716  0.5196
19267TIP3    H179216   4.448   5.942   2.808 -2.2522  0.6004 -1.8073
19267TIP3    H279217   4.359   5.838   2.873  0.1530  0.0106  0.6757
19268TIP3   OH279218   3.331   1.322   1.196 -0.1417  0.3091  0.0195
19268TIP3    H179219   3.366   1.242   1.235 -0.0632  0.6631  0.6899
19268TIP3    H279220   3.306   1.297   1.107  1.3876 -0.0612 -0.3262
19269TIP3   OH279221   5.189   3.239   6.109  0.1373 -0.2970  0.4546
19269TIP3    H179222   5.116   3.263   6.166  1.3134 -0.4736  2.0809
19269TIP3    H279223   5.238   3.173   6.157  1.5763  0.0546 -0.4541
19270TIP3   OH279224   4.180   3.771  10.821  0.8600  0.1849 -0.1464
19270TIP3    H179225   4.218   3.711  10.886 -2.0210  1.7996  3.3616
19270TIP3    H279226   4.092   3.738  10.807  0.5336  1.4434 -1.1603
19271TIP3   OH279227   2.801   5.099   5.918  0.2785  0.4302 -0.0699
19271TIP3    H179228   2.782   5.170   5.979 -2.3856 -0.0611 -0.2250
19271TIP3    H279229   2.755   5.123   5.838 -3.3103 -2.6867  0.7783
19272TIP3   OH279230   5.840   5.270   2.957  0.2976  0.3234 -0.1990
19272TIP3    H179231   5.914   5.268   2.896 -0.5853 -1.5513 -1.2873
19272TIP3    H279232   5.848   5.354   3.000  1.6460  1.2367 -2.0635
19273TIP3   OH279233   1.761   0.093   4.033 -0.1063  0.1224  0.0039
19273TIP3    H179234   1.756   0.085   3.938 -1.5743 -2.6424  0.2163
19273TIP3    H279235   1.670   0.106   4.061  0.3340  1.1905  1.0582
19274TIP3   OH279236   1.205   2.927   2.830  0.2094  0.2537 -0.8845
19274TIP3    H179237   1.227   3.019   2.848  0.2435 -0.0230  0.6371
19274TIP3    H279238   1.133   2.908   2.891  1.0714 -1.1001 -0.2528
19275TIP3   OH279239   0.470   5.969   4.416 -0.6396  0.0407 -0.4086
19275TIP3    H179240   0.433   5.984   4.328 -3.0576 -0.5565  0.4199
19275TIP3    H279241   0.395   5.942   4.469  0.6700  0.8190  1.9850
19276TIP3   OH279242   1.043   5.444  12.326 -0.1470  0.1873  0.4228
19276TIP3    H179243   0.957   5.440  12.369 -0.4788  1.5814 -0.0562
19276TIP3    H279244   1.084   5.523  12.361  0.2524  0.4428 -0.5915
19277TIP3   OH279245   4.288   0.420   4.168 -0.2175 -0.1226  1.1488
19277TIP3    H179246   4.323   0.363   4.100  0.2419  0.6777  0.6893
19277TIP3    H279247   4.335   0.503   4.156 -2.4843  1.1311  0.2743
19278TIP3   OH279248   5.327   5.095  13.392 -0.0311 -0.3035  0.6512
19278TIP3    H179249   5.249   5.041  13.408  0.1507 -0.9479 -0.5458
19278TIP3    H279250   5.392   5.034  13.356  0.6331  0.4553  0.5332
19279TIP3   OH279251   3.861   5.179  13.992  0.2910  0.1895  0.6086
19279TIP3    H179252   3.836   5.087  13.979  2.7453 -0.9130  2.7892
19279TIP3    H279253   3.896   5.206  13.907 -2.4750 -0.0749 -0.7383
19280TIP3   OH279254   6.129   2.612  15.171 -0.5889 -0.4047 -0.0489
19280TIP3    H179255   6.052   2.669  15.166 -1.8165 -2.0310 -3.3454
19280TIP3    H279256   6.130   2.580  15.261 -1.2350  2.8373  1.2426
19281TIP3   OH279257   6.089   4.893  15.127  0.0647 -0.2547 -0.2406
19281TIP3    H179258   6.140   4.971  15.148  1.1090 -0.7058 -1.0194
19281TIP3    H279259   6.087   4.843  15.209 -1.6364  1.1089  0.6028
19282TIP3   OH279260   1.216   1.558  16.506  0.0244  0.3009 -0.5127
19282TIP3    H179261   1.273   1.517  16.441  0.3974  0.9043 -0.5707
19282TIP3    H279262   1.246   1.649  16.511  0.7253  0.0109  1.3058
19283TIP3   OH279263   4.635   5.974   2.108 -0.1432 -0.3819 -0.4208
19283TIP3    H179264   4.706   6.038   2.109 -0.4102 -0.0528  1.6605
19283TIP3    H279265   4.642   5.928   2.192 -2.3972 -0.2908 -0.1120
19284TIP3   OH279266   5.245   6.465  12.686 -0.1509  0.1885 -0.0013
19284TIP3    H179267   5.235   6.554  12.720 -1.0506  0.2921 -0.5118
19284TIP3    H279268   5.161   6.423  12.705  1.2870 -1.6435  3.2934
19285TIP3   OH279269   3.856   5.168  15.006 -0.0716  0.6695  0.0212
19285TIP3    H179270   3.797   5.117  14.951 -0.9301  1.5388  0.1113
19285TIP3    H279271   3.920   5.206  14.946  1.6276 -1.7727  0.1004
19286TIP3   OH279272   0.762   6.280  13.221 -0.6207  0.8761  0.4882
19286TIP3    H179273   0.826   6.350  13.236 -1.2077  1.2871  1.1212
19286TIP3    H279274   0.713   6.310  13.143  1.4266 -0.5362 -1.4581
19287TIP3   OH279275   4.293   1.292  14.373  0.2049  0.6156  0.4700
19287TIP3    H179276   4.301   1.383  14.343  0.7297  0.5337  0.3658
19287TIP3    H279277   4.201   1.284  14.399 -0.8689  0.1449 -2.9223
19288TIP3   OH279278   6.115   5.262   0.489  0.2156 -0.4190 -0.7311
19288TIP3    H179279   6.148   5.226   0.406 -2.1636  0.1712 -2.0337
19288TIP3    H279280   6.114   5.357   0.475  0.7322 -0.2324  0.3847
19289TIP3   OH279281   0.518   5.099  16.293 -0.4475  0.2717 -0.4792
19289TIP3    H179282   0.497   5.146  16.374 -0.1908 -1.1070  0.4238
19289TIP3    H279283   0.467   5.019  16.298 -0.0319 -0.0593 -1.4444
19290TIP3   OH279284   3.166   4.216   3.717  0.3494  0.3241  0.6046
19290TIP3    H179285   3.124   4.248   3.797  0.4266 -1.1678  1.2870
19290TIP3    H279286   3.240   4.165   3.749  0.3923 -0.2711 -0.4294
19291TIP3   OH279287   3.597   1.332   3.999  0.0324  0.7416 -0.4303
19291TIP3    H179288   3.585   1.422   3.971  1.3681  0.5544 -1.7526
19291TIP3    H279289   3.586   1.280   3.920 -1.6943 -0.3906  0.4805
19292TIP3   OH279290   3.314   5.530  13.686  0.6323  0.0249  0.3142
19292TIP3    H179291   3.225   5.542  13.652  0.5174 -0.5839  0.3870
19292TIP3    H279292   3.365   5.600  13.645  0.4671 -0.6028 -1.0264
19293TIP3   OH279293   6.271   0.350  11.862 -0.4725  0.8715  0.2886
19293TIP3    H179294   6.307   0.290  11.927  0.9478  0.9463 -0.3851
19293TIP3    H279295   6.178   0.328  11.857 -0.3020 -0.1334  1.2550
19294TIP3   OH279296   6.453   2.801  10.718  0.0094  0.4076 -0.5381
19294TIP3    H179297   6.490   2.719  10.751  1.0697  0.7249 -0.8908
19294TIP3    H279298   6.465   2.795  10.623  0.6513  1.2258 -0.5156
19295TIP3   OH279299   1.958   0.714  16.246  0.2981 -0.3327 -0.2080
19295TIP3    H179300   2.052   0.701  16.233  0.2772 -1.0840  0.3275
19295TIP3    H279301   1.947   0.809  16.246  0.9038 -0.2450 -1.2795
19296TIP3   OH279302   5.814   3.131   4.879 -0.3045  0.2542 -0.1947
19296TIP3    H179303   5.811   3.195   4.808 -0.5262 -1.6583 -1.9857
19296TIP3    H279304   5.794   3.182   4.958 -0.3202  2.3944 -1.5043
19297TIP3   OH279305   2.258   1.781   4.077  0.0026  0.2692 -0.5526
19297TIP3    H179306   2.253   1.697   4.032  0.1046 -1.2829  2.0719
19297TIP3    H279307   2.172   1.820   4.066 -1.1136 -1.6765  0.6957
19298TIP3   OH279308   3.406   3.765  13.673 -0.2487 -0.1343 -0.5162
19298TIP3    H179309   3.470   3.713  13.721  1.5808  1.5175 -1.0505
19298TIP3    H279310   3.372   3.705  13.606 -0.1122 -1.3534  0.4584
19299TIP3   OH279311   2.261   2.757  16.359  0.0907 -1.0960 -0.0573
19299TIP3    H179312   2.170   2.770  16.333  0.2873  0.8107  0.0646
19299TIP3    H279313   2.302   2.718  16.282 -0.1787  0.9028 -1.2779
19300TIP3   OH279314   1.230   4.431  16.998  0.1304 -0.0658 -0.0688
19300TIP3    H179315   1.186   4.396  17.075  0.0761 -0.6367 -0.3561
19300TIP3    H279316   1.226   4.360  16.934  0.7436  0.1705 -0.3745
19301TIP3   OH279317   1.924   1.757   0.115 -0.6433 -0.9521 -0.2124
19301TIP3    H179318   1.940   1.837   0.166 -1.0803 -1.5481  0.8912
19301TIP3    H279319   1.990   1.759   0.046 -0.3445  0.1207  0.0777
19302TIP3   OH279320   4.253   2.901   3.539 -0.3502  0.0687 -0.4355
19302TIP3    H179321   4.238   2.829   3.600 -0.7721  1.6423  1.4013
19302TIP3    H279322   4.337   2.938   3.565 -0.5363  0.7756 -0.8165
19303TIP3   OH279323   3.466   4.354  16.623  0.0835  0.3118  0.2190
19303TIP3    H179324   3.535   4.314  16.676 -0.3625 -0.3593  0.3032
19303TIP3    H279325   3.421   4.413  16.683  0.3450  0.4660  0.2659
19304TIP3   OH279326   3.345   5.502   3.560 -0.7023 -0.0007 -0.2333
19304TIP3    H179327   3.352   5.552   3.641  0.6501  0.1748 -0.4488
19304TIP3    H279328   3.302   5.420   3.587 -0.9608  0.3666  0.5148
19305TIP3   OH279329   6.634   2.778  17.097 -0.3220 -1.0796  0.3128
19305TIP3    H179330   6.622   2.712  17.028  0.1639 -2.3202  1.3759
19305TIP3    H279331   6.546   2.791  17.133 -1.0954  1.4562 -2.0980
19306TIP3   OH279332   6.747   6.727  12.760 -0.3430  0.3220 -0.1574
19306TIP3    H179333   6.680   6.722  12.828  0.7387 -1.1841  0.8577
19306TIP3    H279334   6.699   6.754  12.682 -1.9576  0.2691  0.7688
19307TIP3   OH279335   0.010   4.332  14.041 -0.0972 -0.2378  0.3381
19307TIP3    H179336  -0.073   4.289  14.022 -1.2393  0.9769  2.1772
19307TIP3    H279337   0.008   4.414  13.991 -0.1731 -0.0547  0.6352
19308TIP3   OH279338   2.068   5.481  15.524 -0.3672 -0.6615  0.8111
19308TIP3    H179339   2.155   5.450  15.498 -0.3665 -0.3717  0.4526
19308TIP3    H279340   2.060   5.567  15.482 -0.8274 -0.6889  0.8371
19309TIP3   OH279341   3.499   1.078  13.198 -0.2565 -0.5864  0.0101
19309TIP3    H179342   3.516   1.076  13.293 -1.2668 -1.2901  0.1893
19309TIP3    H279343   3.527   1.166  13.171 -0.8237 -0.0258  1.1358
19310TIP3   OH279344   1.075   4.160   2.837 -0.2141 -0.7627  0.2892
19310TIP3    H179345   1.060   4.155   2.742 -2.6439 -1.0198  0.6263
19310TIP3    H279346   1.022   4.089   2.873 -0.5488  0.2903  1.9593
19311TIP3   OH279347   2.064   5.898  14.495 -0.1470  0.0308  0.0959
19311TIP3    H179348   2.120   5.947  14.435 -0.9450  1.2533  0.3154
19311TIP3    H279349   2.080   5.938  14.581 -0.2370 -0.6069  0.4141
19312TIP3   OH279350   0.821   0.436   3.252  0.6385 -0.0405  0.2708
19312TIP3    H179351   0.854   0.363   3.199 -0.1714  0.0954 -0.4275
19312TIP3    H279352   0.745   0.400   3.297  0.5092  0.2480  0.2797
19313TIP3   OH279353   6.572   6.679  13.791 -0.3824 -0.0518 -0.5452
19313TIP3    H179354   6.550   6.640  13.875 -0.4632 -0.2894 -0.6748
19313TIP3    H279355   6.667   6.675  13.786 -0.4182 -0.7627 -0.8048
19314TIP3   OH279356   3.420   0.117  14.900  0.0622  0.1327  0.3211
19314TIP3    H179357   3.481   0.052  14.935  0.5950  1.1796  1.4429
19314TIP3    H279358   3.475   0.194  14.884 -0.9784  1.1990  1.6270
19315TIP3   OH279359   5.787   5.478   2.270  0.9654 -0.9794  0.2826
19315TIP3    H179360   5.807   5.540   2.200 -0.5124  2.1162  2.3750
19315TIP3    H279361   5.861   5.486   2.331  1.6712 -2.7762 -0.2742
19316TIP3   OH279362   2.489   5.940   3.521  0.0120  0.7939 -0.1855
19316TIP3    H179363   2.427   5.887   3.572 -0.3024  1.4278  0.0976
19316TIP3    H279364   2.570   5.889   3.522 -0.1379  0.5573  0.5231
19317TIP3   OH279365   4.454   4.761  11.095  0.4933  0.1505 -0.0391
19317TIP3    H179366   4.431   4.710  11.017  1.5845 -0.2969 -0.0900
19317TIP3    H279367   4.480   4.846  11.062 -1.7695  0.9631  0.0783
19318TIP3   OH279368   5.311   0.750  12.571 -0.0878  0.2181 -0.2698
19318TIP3    H179369   5.309   0.835  12.527 -0.3017  0.5911  0.4628
19318TIP3    H279370   5.369   0.763  12.645 -0.5202 -0.1367  0.1323
19319TIP3   OH279371   5.467   6.647   1.536  0.4191  0.1020 -0.2869
19319TIP3    H179372   5.548   6.693   1.516 -1.1493  2.3712 -1.9319
19319TIP3    H279373   5.453   6.661   1.630  1.3873  0.6081 -0.2089
19320TIP3   OH279374   4.986   6.316  14.334  0.1911 -0.1076 -0.1252
19320TIP3    H179375   5.039   6.383  14.375  0.6859 -0.3909 -0.2875
19320TIP3    H279376   4.897   6.333  14.363  0.5294 -0.3096  1.0636
19321TIP3   OH279377   0.879   6.586   4.676 -0.7384 -0.2989 -0.3050
19321TIP3    H179378   0.800   6.537   4.654  0.2668 -2.5113  0.6607
19321TIP3    H279379   0.867   6.611   4.768  0.3947 -2.2948  0.4466
19322TIP3   OH279380   4.801   5.539   1.012  0.3883 -0.0245  0.0428
19322TIP3    H179381   4.889   5.574   1.026  0.6393 -0.8873  0.7561
19322TIP3    H279382   4.744   5.596   1.064  0.7521 -0.4451  0.9379
19323TIP3   OH279383   1.647   2.152   3.158 -0.2909 -0.6976 -0.2808
19323TIP3    H179384   1.568   2.133   3.107 -0.6786 -3.1728  1.0856
19323TIP3    H279385   1.662   2.245   3.145 -1.4640 -0.8230 -3.3182
19324TIP3   OH279386   2.303   4.703  13.234  0.1852  0.0158  0.3801
19324TIP3    H179387   2.221   4.667  13.267  1.6519 -1.7366  2.3763
19324TIP3    H279388   2.360   4.627  13.224  2.2380  1.3847  1.1091
19325TIP3   OH279389   3.492   1.076   3.872  0.5683  0.3022 -0.2508
19325TIP3    H179390   3.511   1.107   3.783  1.6421 -1.2772 -0.6190
19325TIP3    H279391   3.563   1.015   3.892 -0.4869 -0.5468  1.1085
19326TIP3   OH279392   3.761   0.463   0.165  0.2416  0.0745  0.3302
19326TIP3    H179393   3.844   0.452   0.213  0.9919 -0.8924 -1.1412
19326TIP3    H279394   3.767   0.552   0.130 -0.3544  0.8332  2.0289
19327TIP3   OH279395   2.382   2.510  14.809  0.3275  0.0551 -0.1707
19327TIP3    H179396   2.369   2.479  14.719  0.8994  0.0958 -0.2729
19327TIP3    H279397   2.468   2.552  14.807  0.6895 -0.6209  0.5774
19328TIP3   OH279398   6.643   4.145   0.278 -0.5676  0.0917 -0.2195
19328TIP3    H179399   6.563   4.124   0.230 -0.8350 -0.8708  0.6139
19328TIP3    H279400   6.612   4.169   0.365 -0.0499  1.2903 -0.3489
19329TIP3   OH279401   4.400   6.626   5.828  0.1450 -0.1342  0.8442
19329TIP3    H179402   4.479   6.577   5.850 -0.5245 -2.4361 -1.2356
19329TIP3    H279403   4.406   6.638   5.733 -1.6385  0.2502  0.7498
19330TIP3   OH279404   1.626   4.429   4.065  0.2714  0.2252 -0.0266
19330TIP3    H179405   1.589   4.475   3.990  0.8620 -0.2223 -0.6076
19330TIP3    H279406   1.555   4.372   4.095  0.0184  0.4341 -0.2256
19331TIP3   OH279407   2.695   4.536  13.620 -0.1995 -0.3618 -0.2868
19331TIP3    H179408   2.683   4.526  13.526  0.2729 -0.7608 -0.3065
19331TIP3    H279409   2.765   4.601  13.629 -0.0171 -0.5679 -0.2155
19332TIP3   OH279410   4.550   1.972  13.568  0.6636 -0.1180 -0.2014
19332TIP3    H179411   4.640   1.942  13.582 -0.1174 -1.6640  1.9879
19332TIP3    H279412   4.550   2.063  13.595  1.0816 -0.7831  2.2034
19333TIP3   OH279413   6.406   2.818   1.601 -0.2075 -0.2253 -0.5194
19333TIP3    H179414   6.461   2.845   1.528 -0.5544 -0.4216 -0.8590
19333TIP3    H279415   6.346   2.753   1.563  0.1840 -0.9778  0.1305
19334TIP3   OH279416   4.996   5.764  16.179 -0.1020 -0.4270  0.1348
19334TIP3    H179417   4.909   5.734  16.152 -0.5607 -0.9823  2.0694
19334TIP3    H279418   5.036   5.687  16.221  0.8107  0.2045  0.4519
19335TIP3   OH279419   1.384   1.225  16.816 -1.0000 -0.0344  0.1957
19335TIP3    H179420   1.292   1.201  16.820 -1.0205 -0.6310 -2.0650
19335TIP3    H279421   1.424   1.157  16.761  0.6818  0.5070  0.6773
19336TIP3   OH279422   4.599   4.937  12.363  0.0764  0.0280  0.4112
19336TIP3    H179423   4.633   5.018  12.326  1.6421 -0.5645  0.4659
19336TIP3    H279424   4.672   4.901  12.412  0.8745 -3.4345 -2.8585
19337TIP3   OH279425   3.094   6.477   1.358  0.3341  0.1267 -0.0354
19337TIP3    H179426   3.016   6.422   1.363 -0.4323  1.0849 -1.0832
19337TIP3    H279427   3.164   6.416   1.334 -0.8098 -0.2154 -2.9830
19338TIP3   OH279428   4.503   2.512   4.052 -0.4877 -0.1788 -0.1725
19338TIP3    H179429   4.537   2.573   3.985  2.3362  0.5022  1.6689
19338TIP3    H279430   4.534   2.426   4.024  0.4769  0.0703  0.0895
19339TIP3   OH279431   0.899   5.067   2.681  0.4363  0.4845  0.3460
19339TIP3    H179432   0.805   5.047   2.676  0.0797  1.8131  1.3319
19339TIP3    H279433   0.915   5.087   2.773  0.9701  3.5042 -0.3083
19340TIP3   OH279434   4.679   3.369  12.264  0.6027 -0.5510  0.7858
19340TIP3    H179435   4.665   3.301  12.198  2.7587  1.6921 -2.3144
19340TIP3    H279436   4.760   3.345  12.307  1.0695 -0.2712  0.0820
19341TIP3   OH279437   3.617   5.958  13.647  0.4106 -0.5912 -0.3966
19341TIP3    H179438   3.593   6.021  13.714 -2.2304 -2.3464  0.4554
19341TIP3    H279439   3.590   5.998  13.565 -1.0693 -0.5125  0.1113
19342TIP3   OH279440   4.801   5.593   0.341 -0.2066 -0.0449 -0.5819
19342TIP3    H179441   4.772   5.519   0.288 -0.3481 -0.7318  0.4166
19342TIP3    H279442   4.838   5.553   0.420 -0.2745  0.9377 -0.0314
19343TIP3   OH279443   4.300   6.648  11.330 -0.2888  0.1632  0.0411
19343TIP3    H179444   4.298   6.733  11.287  2.6052 -0.9456 -2.7228
19343TIP3    H279445   4.331   6.667  11.419 -0.5540  2.0527 -0.2323
19344TIP3   OH279446   0.346   0.848   4.822 -0.2823  0.5801 -0.2703
19344TIP3    H179447   0.383   0.924   4.866  0.9262 -0.3847  0.4302
19344TIP3    H279448   0.405   0.776   4.843 -1.8598 -0.7600 -0.1654
19345TIP3   OH279449   5.619   4.980  13.592  0.6376 -0.0034 -0.0068
19345TIP3    H179450   5.545   5.016  13.642  1.1924 -0.1911  0.9819
19345TIP3    H279451   5.673   4.937  13.658  1.8658  0.5183 -0.6586
19346TIP3   OH279452   0.001   2.266   3.648  0.1529 -0.1724  0.5244
19346TIP3    H179453   0.085   2.223   3.631 -0.2555 -0.3547 -1.1820
19346TIP3    H279454   0.003   2.286   3.742  2.0076 -0.3463  0.5566
19347TIP3   OH279455   3.064   5.049   5.911  0.0418  0.2569  0.0789
19347TIP3    H179456   2.969   5.047   5.928  0.2354 -1.0466  1.2220
19347TIP3    H279457   3.103   5.023   5.995  1.3225 -1.0685 -0.8791
19348TIP3   OH279458   2.182   1.148   1.123 -0.2694  0.2891 -0.1611
19348TIP3    H179459   2.133   1.069   1.148 -0.4222  0.9597  1.8540
19348TIP3    H279460   2.114   1.215   1.112 -0.2655 -0.0381 -3.0487
19349TIP3   OH279461   5.148   6.090  13.849 -0.3745 -0.1355 -0.3331
19349TIP3    H179462   5.124   6.134  13.931 -0.3625 -2.2397  0.8559
19349TIP3    H279463   5.076   6.111  13.790 -2.3228 -1.5705  1.3750
19350TIP3   OH279464   2.022   3.423   3.467 -0.0754  0.6638 -0.2501
19350TIP3    H179465   2.116   3.442   3.461  0.0753 -0.2076 -1.1826
19350TIP3    H279466   1.980   3.508   3.464  0.7204  1.2074  2.0456
19351TIP3   OH279467   3.034   1.001  16.447 -0.3224  0.5508  0.1951
19351TIP3    H179468   3.043   0.913  16.483 -0.1706  0.0157 -1.0931
19351TIP3    H279469   3.073   0.995  16.360 -1.8358  1.4481 -0.5859
19352TIP3   OH279470   6.024   4.021  12.934 -0.0102 -0.3338 -0.1752
19352TIP3    H179471   6.020   3.976  12.849  1.0158 -0.3996 -0.2039
19352TIP3    H279472   6.098   4.081  12.925 -1.6394  1.7491 -0.3110
19353TIP3   OH279473   3.329   3.043   4.712 -0.3710  0.1932 -0.6581
19353TIP3    H179474   3.235   3.058   4.705 -0.2219  0.7720 -1.5184
19353TIP3    H279475   3.369   3.124   4.680  0.4240 -0.0434 -0.2932
19354TIP3   OH279476   2.123   5.286   3.590  0.2032  0.0932 -0.1421
19354TIP3    H179477   2.095   5.377   3.591 -0.4909 -0.0685 -1.3942
19354TIP3    H279478   2.089   5.249   3.671  1.4574  1.1917  0.9207
19355TIP3   OH279479   4.068   0.509  15.448  0.0787  0.6165  0.0647
19355TIP3    H179480   4.086   0.593  15.407  1.1781  0.0604 -0.6301
19355TIP3    H279481   4.085   0.445  15.379 -3.0195 -0.0990 -0.1991
19356TIP3   OH279482   2.973   2.911   0.894 -0.9456 -0.1655  0.8110
19356TIP3    H179483   2.930   2.827   0.877  0.8833 -1.1033  0.6513
19356TIP3    H279484   3.064   2.898   0.868  0.0269  0.9971  3.3433
19357TIP3   OH279485   5.573   1.037   2.415  0.2326  0.3179 -0.1963
19357TIP3    H179486   5.575   0.951   2.457  0.7466  0.6000  0.3717
19357TIP3    H279487   5.642   1.087   2.459  0.8840  0.5767 -1.4556
19358TIP3   OH279488   1.128   2.146   3.020  0.4452 -0.0966 -0.2460
19358TIP3    H179489   1.113   2.054   3.001  0.2432 -0.1015 -0.0731
19358TIP3    H279490   1.135   2.150   3.116  3.4308 -0.3767 -0.3423
19359TIP3   OH279491   3.735   2.778  13.911 -0.6626  0.2081 -0.2562
19359TIP3    H179492   3.799   2.714  13.942 -0.0062  0.6155 -0.7311
19359TIP3    H279493   3.651   2.732  13.915 -0.0562 -1.1502 -1.8322
19360TIP3   OH279494   2.842   1.487   2.208 -0.2928 -0.0200 -0.1546
19360TIP3    H179495   2.791   1.495   2.127 -0.5971 -1.5199 -0.1390
19360TIP3    H279496   2.780   1.452   2.272  0.5208 -1.0992  0.0804
19361TIP3   OH279497   4.092   3.948   4.421 -0.4107 -0.0925 -0.3783
19361TIP3    H179498   4.054   3.936   4.334  0.5819  1.1674 -1.0336
19361TIP3    H279499   4.017   3.950   4.480 -1.1785  0.0117 -1.3301
19362TIP3   OH279500   2.065   3.271   5.609  0.1186 -0.0132 -0.3493
19362TIP3    H179501   2.132   3.260   5.542  3.0190  0.0625  2.3445
19362TIP3    H279502   2.090   3.350   5.656 -2.1767  0.2991  0.4811
19363TIP3   OH279503   6.078   5.784  16.130  0.8083  0.1329  0.1995
19363TIP3    H179504   6.089   5.706  16.076 -0.4822 -0.8684  1.3098
19363TIP3    H279505   6.088   5.753  16.220 -0.9191  0.9862  0.7259
19364TIP3   OH279506   0.023   2.694  12.014 -0.0205  0.3272 -0.2184
19364TIP3    H179507   0.101   2.665  11.967  0.7745  2.1362 -0.1168
19364TIP3    H279508  -0.018   2.758  11.956 -0.4942  0.6402  0.4467
19365TIP3   OH279509   0.769   5.320  17.084 -0.0434  0.5133 -0.9209
19365TIP3    H179510   0.728   5.261  17.148 -2.8144  1.7424 -1.4084
19365TIP3    H279511   0.852   5.278  17.063 -0.2372 -1.3009  1.4580
19366TIP3   OH279512   4.580   1.768   2.291  0.2489  0.6514  0.0003
19366TIP3    H179513   4.601   1.830   2.361 -0.9938  0.3279  0.6977
19366TIP3    H279514   4.505   1.807   2.246 -2.5819 -1.5655  2.3127
19367TIP3   OH279515   0.345   1.124  15.491  0.2191  0.1170  0.1564
19367TIP3    H179516   0.267   1.170  15.461  1.4533  1.2896 -1.3941
19367TIP3    H279517   0.361   1.158  15.580 -0.7230  0.2337  0.2867
19368TIP3   OH279518   4.837   3.614  12.975 -0.4523  0.7412 -0.3294
19368TIP3    H179519   4.746   3.619  13.004 -0.5850 -1.9640 -0.1018
19368TIP3    H279520   4.888   3.629  13.054 -0.7647 -1.0524  0.2463
19369TIP3   OH279521   6.105   0.549   3.798  0.6740 -0.4985 -0.0618
19369TIP3    H179522   6.185   0.576   3.754  0.1605 -0.7790 -1.2005
19369TIP3    H279523   6.050   0.513   3.729 -0.5107 -0.1493  0.6597
19370TIP3   OH279524   4.139   6.261  14.315 -0.4054  0.4385  0.7293
19370TIP3    H179525   4.083   6.338  14.306  0.5762  1.2286  1.2221
19370TIP3    H279526   4.217   6.281  14.263 -0.3125 -0.3989  0.5312
19371TIP3   OH279527   4.334   2.357   2.620 -0.4185  0.2512 -0.3343
19371TIP3    H179528   4.378   2.303   2.555 -1.6670 -0.7671 -0.3677
19371TIP3    H279529   4.403   2.413   2.656  0.6141 -0.3650 -1.3143
19372TIP3   OH279530   6.057   5.828   1.658 -0.5545 -0.1933 -0.3269
19372TIP3    H179531   6.024   5.913   1.689 -1.4633 -1.1245  1.4148
19372TIP3    H279532   6.100   5.848   1.575 -2.3068  1.7049 -0.8738
19373TIP3   OH279533   2.771   0.896   0.556  0.4383 -0.1528 -0.7441
19373TIP3    H179534   2.718   0.861   0.627 -0.8735  1.8283 -0.6848
19373TIP3    H279535   2.857   0.855   0.568 -0.1863 -1.0454  1.0241
19374TIP3   OH279536   5.289   5.193   2.814 -0.1445  0.2831  0.0056
19374TIP3    H179537   5.197   5.220   2.814 -1.0155 -2.3597 -0.5980
19374TIP3    H279538   5.311   5.183   2.907 -0.2727  1.4141  0.1721
19375TIP3   OH279539   6.480   3.099   0.963 -0.5180 -0.1310 -0.4730
19375TIP3    H179540   6.432   3.052   0.895 -0.8381  0.9016 -0.9822
19375TIP3    H279541   6.558   3.046   0.980 -1.0288 -0.9953 -0.7987
19376TIP3   OH279542   4.696   1.120  14.656 -0.0265  0.1034 -0.1851
19376TIP3    H179543   4.627   1.102  14.592 -0.6076  0.6296  0.2819
19376TIP3    H279544   4.711   1.035  14.698 -0.3144 -0.0414 -0.3656
19377TIP3   OH279545   2.029   2.822   4.434 -0.7700  0.3837 -0.3378
19377TIP3    H179546   2.076   2.782   4.360 -0.5655  0.6199 -0.3364
19377TIP3    H279547   2.067   2.910   4.441  0.8436 -0.3952  1.5079
19378TIP3   OH279548   1.451   4.022  13.553 -0.4046 -0.4266  0.0291
19378TIP3    H179549   1.447   4.117  13.557  2.1345 -0.2699  0.9468
19378TIP3    H279550   1.381   3.997  13.492 -0.4877  2.0879 -1.0294
19379TIP3   OH279551   3.667   6.627   0.766  0.3370  0.2581 -0.0072
19379TIP3    H179552   3.627   6.695   0.711 -0.5927 -0.3923 -0.1523
19379TIP3    H279553   3.740   6.594   0.715  0.0923  0.3533 -0.4190
19380TIP3   OH279554   4.788   5.049  16.466  0.3573 -0.2450 -0.1150
19380TIP3    H179555   4.734   4.980  16.427 -0.0162 -0.5530  0.9018
19380TIP3    H279556   4.772   5.041  16.560 -0.3128  1.7535 -0.0130
19381TIP3   OH279557   6.187   3.373   0.746  0.0549  0.0952 -0.2073
19381TIP3    H179558   6.159   3.412   0.829 -0.0503  0.0464 -0.2201
19381TIP3    H279559   6.194   3.447   0.686 -2.6020 -0.1416 -0.9544
19382TIP3   OH279560   3.224   2.892   0.796 -0.1262  0.1191 -0.1165
19382TIP3    H179561   3.287   2.829   0.830 -0.7963 -0.9249 -0.7677
19382TIP3    H279562   3.214   2.870   0.704 -0.4557  1.1204 -0.3385
19383TIP3   OH279563   0.713   4.909   1.426  0.2760 -0.0916  0.2629
19383TIP3    H179564   0.631   4.866   1.448 -0.9024  1.5875 -0.5915
19383TIP3    H279565   0.718   4.904   1.330  0.5334  0.8696  0.2088
19384TIP3   OH279566   4.938   2.440   3.252  0.9136  0.2688  0.1329
19384TIP3    H179567   4.940   2.384   3.175  0.8231  0.1533  0.2160
19384TIP3    H279568   4.897   2.387   3.320 -0.2390  0.8265 -0.1006
19385TIP3   OH279569   5.822   6.089   4.863  0.3863  0.5896  0.1377
19385TIP3    H179570   5.786   6.057   4.945  0.2288  0.6342  0.0861
19385TIP3    H279571   5.888   6.153   4.890 -0.5611  1.5598  0.2171
19386TIP3   OH279572   2.500   5.305  15.365 -0.0059 -0.1933 -0.0009
19386TIP3    H179573   2.424   5.330  15.416  0.6163 -0.9121  1.3280
19386TIP3    H279574   2.551   5.249  15.423  0.7379 -1.0413 -1.4194
19387TIP3   OH279575   6.204   5.666   5.966  0.0246  0.3832  0.0902
19387TIP3    H179576   6.247   5.751   5.976  0.9606  0.2768 -2.3932
19387TIP3    H279577   6.122   5.675   6.014  0.1384  2.6526 -0.0392
19388TIP3   OH279578   1.952   4.469  16.817  0.0074  0.1603  0.1307
19388TIP3    H179579   1.935   4.381  16.785  0.3777 -0.0877  0.6092
19388TIP3    H279580   1.885   4.523  16.775 -0.6317 -0.4550  0.3460
19389TIP3   OH279581   4.092   6.265  13.175  0.0649 -0.2557  0.5699
19389TIP3    H179582   4.029   6.335  13.189 -2.0956 -1.9445 -0.1895
19389TIP3    H279583   4.096   6.254  13.080  1.0727 -0.5611  0.6323
19390TIP3   OH279584   4.503   4.713   2.758 -0.1753  0.1891 -0.0082
19390TIP3    H179585   4.542   4.694   2.673 -0.7365  1.3415 -0.5431
19390TIP3    H279586   4.520   4.806   2.772 -0.2516  0.0534  1.0594
19391TIP3   OH279587   2.070   5.115  11.783  0.3143  0.4655 -0.0594
19391TIP3    H179588   2.085   5.191  11.727  1.6701  0.8550  0.7764
19391TIP3    H279589   2.147   5.060  11.771  0.6939  0.6149  1.4684
19392TIP3   OH279590   4.575   1.878  14.901 -0.0822 -0.2225 -0.6439
19392TIP3    H179591   4.656   1.840  14.935 -0.5074 -0.2920  0.3313
19392TIP3    H279592   4.515   1.877  14.976 -0.7778  0.4212 -1.1783
19393TIP3   OH279593   2.292   5.691  15.924  0.8133  0.4970  0.0200
19393TIP3    H179594   2.358   5.631  15.959  2.0292  1.3101 -0.7772
19393TIP3    H279595   2.238   5.636  15.866  1.8983  0.1478 -0.6891
19394TIP3   OH279596   5.566   3.391   2.959  0.3746  0.1786 -0.1863
19394TIP3    H179597   5.618   3.312   2.944 -1.0260 -0.7496 -0.2783
19394TIP3    H279598   5.601   3.427   3.041  0.5069 -0.9865  0.2938
19395TIP3   OH279599   1.816   0.442   2.641  0.6463 -0.0342 -0.0882
19395TIP3    H179600   1.802   0.475   2.730  1.0257  0.3236 -0.1590
19395TIP3    H279601   1.793   0.515   2.584  0.2937 -0.2999 -0.2947
19396TIP3   OH279602   6.028   4.052  16.647 -0.4805 -0.1518  0.5410
19396TIP3    H179603   6.080   4.044  16.567 -0.1123  4.1854  0.1102
19396TIP3    H279604   5.942   4.016  16.624  0.3008 -1.1187 -1.0059
19397TIP3   OH279605   0.066   2.910  12.657 -0.4796 -0.3641 -0.0535
19397TIP3    H179606   0.112   2.877  12.579 -1.5615 -1.7314 -0.1436
19397TIP3    H279607   0.081   2.843  12.724 -1.0621 -0.0743  0.3727
19398TIP3   OH279608   5.931   5.817   6.107 -0.2986  0.1663 -0.5653
19398TIP3    H179609   5.945   5.911   6.115 -1.6938  0.4502 -1.1604
19398TIP3    H279610   5.851   5.800   6.156  0.6959 -0.9766  0.7505
19399TIP3   OH279611   1.288   0.296   1.093 -0.8354 -0.1840  0.0186
19399TIP3    H179612   1.324   0.373   1.138 -3.3590  1.5584 -0.7064
19399TIP3    H279613   1.231   0.256   1.158  1.4069 -2.3242  0.8208
19400TIP3   OH279614   1.434   1.179  14.020 -0.6142  0.6772  0.5352
19400TIP3    H179615   1.463   1.194  13.930 -1.1811  2.8058  0.6583
19400TIP3    H279616   1.345   1.214  14.022 -1.4793 -1.3829  1.3883
19401TIP3   OH279617   4.770   1.494  14.098 -0.2259 -0.2180 -0.0266
19401TIP3    H179618   4.793   1.490  14.005  2.7372 -1.8887  0.6677
19401TIP3    H279619   4.736   1.583  14.109 -0.5991  0.0668 -2.6638
19402TIP3   OH279620   2.430   4.766  14.139 -0.2271  0.6593 -0.0757
19402TIP3    H179621   2.367   4.766  14.067  0.3646  0.3663 -0.6017
19402TIP3    H279622   2.377   4.748  14.217 -0.9355  1.3692 -0.3695
19403TIP3   OH279623   5.696   5.705   0.267  0.5859  0.0604  0.2679
19403TIP3    H179624   5.624   5.753   0.227 -0.1239 -1.1949 -0.0326
19403TIP3    H279625   5.755   5.772   0.301 -1.4981  1.1731  1.9602
19404TIP3   OH279626   4.861   2.044   2.097 -1.0788 -0.0202 -0.3179
19404TIP3    H179627   4.833   2.097   2.022  0.2966 -0.6704 -1.3507
19404TIP3    H279628   4.900   1.966   2.057  0.0375 -0.2081  1.0686
19405TIP3   OH279629   2.018   6.558  15.017 -0.1616  0.3484  0.1596
19405TIP3    H179630   2.004   6.464  15.028 -0.9993  0.2676 -1.3002
19405TIP3    H279631   2.113   6.568  15.014 -0.0718 -0.5503 -0.3906
19406TIP3   OH279632   4.290   3.063  12.990 -0.0362 -1.0950 -0.1220
19406TIP3    H179633   4.267   3.104  12.907 -0.1857  1.6042  1.1303
19406TIP3    H279634   4.206   3.036  13.028  0.0129 -2.1085 -0.6994
19407TIP3   OH279635   4.444   5.836  12.331  0.1552  0.4772 -0.5181
19407TIP3    H179636   4.505   5.772  12.294 -1.6989 -0.6685 -1.8001
19407TIP3    H279637   4.491   5.874  12.405  1.6807 -1.7374 -0.2294
19408TIP3   OH279638   2.011   2.671  10.530 -0.7229 -0.0689  0.2712
19408TIP3    H179639   2.098   2.650  10.564 -0.3591 -2.4259 -1.8581
19408TIP3    H279640   1.953   2.610  10.576 -1.0690  0.5038  0.6110
19409TIP3   OH279641   5.444   0.891   1.444 -0.5648  0.0299  0.3045
19409TIP3    H179642   5.389   0.833   1.391  0.4024  1.0807 -1.9596
19409TIP3    H279643   5.390   0.968   1.459 -0.6252 -0.0297  0.4048
19410TIP3   OH279644   1.446   2.993  16.095 -0.1102 -0.3530 -0.8252
19410TIP3    H179645   1.470   3.071  16.145 -4.2627  1.1668 -0.8708
19410TIP3    H279646   1.507   2.993  16.020  2.0936  0.8748  0.8558
19411TIP3   OH279647   5.820   1.681   2.217 -0.0627 -0.4905  0.4462
19411TIP3    H179648   5.903   1.676   2.264  0.0752  0.6066  0.3518
19411TIP3    H279649   5.769   1.746   2.266 -0.0804  0.3455 -0.6566
19412TIP3   OH279650   0.031   5.269  15.505  0.1556  0.3125  0.3123
19412TIP3    H179651   0.047   5.219  15.425  0.3993  1.1305 -0.1567
19412TIP3    H279652   0.108   5.326  15.513 -0.9047  1.8663 -0.1164
19413TIP3   OH279653   5.839   1.561   0.183 -0.2716 -0.2102  0.6623
19413TIP3    H179654   5.842   1.466   0.194 -0.0121 -0.3998 -0.9006
19413TIP3    H279655   5.745   1.581   0.176 -0.3562 -0.2718  1.4924
19414TIP3   OH279656   6.385   6.117   4.635  0.1401 -1.0530  0.6249
19414TIP3    H179657   6.471   6.108   4.594 -0.1190 -0.7760  0.0030
19414TIP3    H279658   6.361   6.209   4.620  0.1407 -0.8838  1.6094
19415TIP3   OH279659   2.417   0.413  12.154  0.2610  0.1764  0.1820
19415TIP3    H179660   2.376   0.399  12.239 -2.2319  0.3286 -0.9197
19415TIP3    H279661   2.482   0.481  12.169 -0.3572  0.4214  1.9060
19416TIP3   OH279662   4.496   3.803   2.875  0.6171 -0.2333  0.2903
19416TIP3    H179663   4.524   3.819   2.784 -0.1801  0.4918  0.1606
19416TIP3    H279664   4.554   3.858   2.928  0.7708 -0.2927  0.1847
19417TIP3   OH279665   4.777   6.675  13.371  0.2171 -0.3912  0.0531
19417TIP3    H179666   4.729   6.702  13.293 -0.4468 -1.5081  0.0506
19417TIP3    H279667   4.817   6.755  13.404 -2.2145  0.7284  0.4542
19418TIP3   OH279668   6.710   0.889  11.819 -0.3234 -0.1179  0.2723
19418TIP3    H179669   6.763   0.963  11.847  0.8107 -1.2757  1.3120
19418TIP3    H279670   6.701   0.900  11.724 -1.0348  1.8570  0.5239
19419TIP3   OH279671   0.217   2.410   1.235 -0.1577  0.5602 -0.4917
19419TIP3    H179672   0.311   2.428   1.238 -0.3870  1.8507 -0.5854
19419TIP3    H279673   0.206   2.353   1.158  0.7001 -0.7032  0.2843
19420TIP3   OH279674   2.133   0.972  15.004 -0.2727  0.1347  0.7694
19420TIP3    H179675   2.114   1.053  14.957 -1.4908 -0.4488  0.2139
19420TIP3    H279676   2.220   0.986  15.042 -0.1856  1.4406  0.1363
19421TIP3   OH279677   1.302   2.990   2.011  0.5293 -0.6052  0.2219
19421TIP3    H179678   1.273   3.062   2.067 -0.9962  0.5171 -1.9024
19421TIP3    H279679   1.223   2.960   1.968  1.7580 -0.8241 -2.0137
19422TIP3   OH279680   3.266   5.851  15.173  0.5269 -0.4512  0.2427
19422TIP3    H179681   3.287   5.918  15.238  0.8721 -0.6535  0.3443
19422TIP3    H279682   3.299   5.770  15.212  0.1716 -0.6669  0.0922
19423TIP3   OH279683   0.632   4.128  15.587 -0.0268  0.0921 -0.4143
19423TIP3    H179684   0.555   4.119  15.530 -0.7097  1.1638  0.3193
19423TIP3    H279685   0.647   4.039  15.620 -0.1921 -0.3654 -1.5166
19424TIP3   OH279686   1.896   3.787   6.137 -0.0212 -1.1200 -0.6500
19424TIP3    H179687   1.983   3.802   6.100  0.2780 -0.7069  0.1960
19424TIP3    H279688   1.873   3.869   6.180 -1.2753 -0.8818 -1.6961
19425TIP3   OH279689   2.550   5.966  16.843 -0.0011 -0.0032 -0.0492
19425TIP3    H179690   2.611   5.900  16.874 -1.4597 -1.5670 -0.3192
19425TIP3    H279691   2.464   5.931  16.867 -1.1648 -0.6034 -4.3276
19426TIP3   OH279692   0.981   6.080   3.640  0.4250  0.4322 -0.1983
19426TIP3    H179693   1.058   6.084   3.584  0.7214 -2.3987 -0.1424
19426TIP3    H279694   1.015   6.073   3.729  0.1338 -0.5533 -0.1486
19427TIP3   OH279695   3.826   4.655   4.367 -0.5591  0.7129  0.4140
19427TIP3    H179696   3.909   4.675   4.324  0.1348 -0.9684  0.8834
19427TIP3    H279697   3.849   4.589   4.433 -2.1896  0.6074  0.9175
19428TIP3   OH279698   5.775   5.515  16.931  0.2726  0.2554  0.2293
19428TIP3    H179699   5.755   5.603  16.896  1.0759 -0.5320 -2.4429
19428TIP3    H279700   5.803   5.531  17.021  0.9672  2.8195 -0.3601
19429TIP3   OH279701   2.263   1.020  13.191 -0.2277 -0.0191 -0.3085
19429TIP3    H179702   2.176   1.056  13.206 -0.2040 -0.1922  0.2641
19429TIP3    H279703   2.321   1.076  13.243 -0.2218 -1.0414  0.8121
19430TIP3   OH279704   0.412   3.630  13.059 -0.1975  0.6492  0.3839
19430TIP3    H179705   0.403   3.719  13.025 -3.1367 -0.1944 -1.4604
19430TIP3    H279706   0.405   3.639  13.154 -1.0914  2.3609  0.1880
19431TIP3   OH279707   1.606   3.155  14.707  0.3373  0.0917  0.0744
19431TIP3    H179708   1.545   3.105  14.654  0.9595 -1.9133  1.1288
19431TIP3    H279709   1.648   3.215  14.646 -2.9220  1.9031 -0.6073
19432TIP3   OH279710   3.918   6.025   6.105 -0.0031  0.2656  0.2306
19432TIP3    H179711   3.907   5.974   6.185  2.0607 -1.3276 -0.4232
19432TIP3    H279712   3.897   5.964   6.034  0.2248  1.0158 -0.5020
19433TIP3   OH279713   3.570   2.141  15.083  0.2144 -0.1645 -0.2889
19433TIP3    H179714   3.559   2.200  15.158  1.9436 -0.3198  0.1315
19433TIP3    H279715   3.609   2.196  15.015 -1.5979  0.0464 -1.2323
19434TIP3   OH279716   3.016   6.505   1.986  0.1801 -0.6088  0.4760
19434TIP3    H179717   3.103   6.466   1.996 -0.4092 -1.9089  0.8000
19434TIP3    H279718   3.000   6.503   1.892  1.7581  2.6003  0.0299
19435TIP3   OH279719   6.570   2.913  14.702  0.5511 -0.7979 -0.2610
19435TIP3    H179720   6.571   2.836  14.645  1.3580 -1.2007  0.2800
19435TIP3    H279721   6.567   2.877  14.791  0.4741 -0.2016 -0.0203
19436TIP3   OH279722   1.726   5.671   0.323  0.0494  0.6777 -0.2838
19436TIP3    H179723   1.764   5.636   0.404 -0.1067  1.4948  0.1557
19436TIP3    H279724   1.654   5.726   0.353  0.2593  1.3292 -0.9624
19437TIP3   OH279725   2.303   2.681   4.505  0.2941 -0.2425 -0.0106
19437TIP3    H179726   2.387   2.636   4.507 -0.1022 -1.0008 -0.1063
19437TIP3    H279727   2.261   2.651   4.424  0.1569  0.5529 -0.2446
19438TIP3   OH279728   3.282   2.267   6.587  0.0859  0.0853  0.0746
19438TIP3    H179729   3.203   2.318   6.567 -0.0571  0.2118  0.9010
19438TIP3    H279730   3.261   2.178   6.560  0.3690  0.4610 -1.4645
19439TIP3   OH279731   0.570   2.220  12.593  0.3749  0.4973 -0.0574
19439TIP3    H179732   0.501   2.260  12.541 -0.8738 -2.4552 -0.8795
19439TIP3    H279733   0.550   2.244  12.684 -0.7201  1.0981 -0.4494
19440TIP3   OH279734   6.589   6.531  13.558  0.1682 -0.0607  0.0731
19440TIP3    H179735   6.500   6.503  13.539  0.3172  0.5696 -1.7707
19440TIP3    H279736   6.580   6.591  13.631 -1.0084  0.4255 -0.4455
19441TIP3   OH279737   2.063   0.112   2.653 -0.0538 -0.0853  0.5480
19441TIP3    H179738   2.092   0.203   2.642 -0.3913  0.5052  3.6586
19441TIP3    H279739   2.141   0.065   2.682  0.6755 -1.4111 -3.0692
19442TIP3   OH279740   2.588   2.183  16.615 -0.2922  0.2981 -0.5081
19442TIP3    H179741   2.567   2.266  16.659  0.5399 -0.2686  0.9840
19442TIP3    H279742   2.666   2.203  16.563 -0.8357  0.7624 -1.1815
19443TIP3   OH279743   5.564   5.612  13.856 -0.0273 -0.3556  0.7595
19443TIP3    H179744   5.654   5.612  13.887  0.2744 -0.2411 -0.1015
19443TIP3    H279745   5.562   5.548  13.786  0.1979  1.8844 -1.4290
19444TIP3   OH279746   5.871   4.975  14.744  0.1082  0.1036 -0.3008
19444TIP3    H179747   5.830   5.059  14.766 -0.1723  0.2604 -1.3752
19444TIP3    H279748   5.845   4.916  14.815 -1.0114  0.5075 -0.3603
19445TIP3   OH279749   4.437   3.179   3.264  0.0532  0.0787  0.2838
19445TIP3    H179750   4.396   3.093   3.261  3.2756 -1.7322  1.9429
19445TIP3    H279751   4.526   3.164   3.232  0.9529  2.6143  1.3446
19446TIP3   OH279752   6.536   6.484   1.985  0.1367  0.4544 -0.1445
19446TIP3    H179753   6.517   6.563   2.035  1.6758  0.2763  0.7568
19446TIP3    H279754   6.630   6.469   1.996 -0.1757 -1.7616  0.1227
19447TIP3   OH279755   4.923   1.115   3.201  0.4198  0.2607 -0.1067
19447TIP3    H179756   5.004   1.150   3.238  1.3238 -0.4527 -1.3318
19447TIP3    H279757   4.903   1.039   3.255  1.9455 -1.0071 -1.2187
19448TIP3   OH279758   2.697   4.196  13.048  0.0779  0.3147 -0.1608
19448TIP3    H179759   2.695   4.193  13.143  1.3535 -3.3088 -0.1114
19448TIP3    H279760   2.783   4.233  13.026  0.2301  0.1351  0.1303
19449TIP3   OH279761   3.431   4.043   3.434  0.1872 -0.9114 -0.1365
19449TIP3    H179762   3.391   3.984   3.370  1.1891 -2.1742  0.3521
19449TIP3    H279763   3.414   4.002   3.519  0.6880 -0.3718  0.2341
19450TIP3   OH279764   4.949   5.261  12.080  0.0841  0.5298  0.1015
19450TIP3    H179765   4.953   5.295  11.991 -0.9326  1.1079  0.2615
19450TIP3    H279766   4.900   5.180  12.073  0.2020  0.4582  0.1041
19451TIP3   OH279767   2.155   1.105   2.085 -0.0220 -0.2009 -0.2714
19451TIP3    H179768   2.201   1.021   2.091 -1.0216 -0.6850  1.8439
19451TIP3    H279769   2.094   1.103   2.159 -3.6766  0.2580 -3.0209
19452TIP3   OH279770   5.254   4.014   2.856  0.3408  0.5589 -0.3541
19452TIP3    H179771   5.196   3.993   2.929  2.1520  1.1280  1.3654
19452TIP3    H279772   5.298   3.932   2.835 -0.3072  0.3554 -0.9643
19453TIP3   OH279773   5.599   2.205  13.254  0.3043 -0.3724 -0.1088
19453TIP3    H179774   5.594   2.299  13.239  1.1470 -0.3863 -0.5645
19453TIP3    H279775   5.538   2.188  13.325 -0.4018  0.4066 -0.5191
19454TIP3   OH279776   1.951   6.095  10.996 -0.5460 -0.3022  0.1485
19454TIP3    H179777   1.961   6.004  11.024  0.8713  0.7473  3.6632
19454TIP3    H279778   1.989   6.097  10.908  2.5648 -2.5785  1.2365
19455TIP3   OH279779   6.461   1.968   2.451  0.2845  0.0583 -0.3377
19455TIP3    H179780   6.391   1.986   2.389 -0.6005 -0.5980  0.4573
19455TIP3    H279781   6.488   1.878   2.432 -1.0046 -0.6916  1.1598
19456TIP3   OH279782   6.364   2.980   6.044 -0.8950  0.3223  0.0030
19456TIP3    H179783   6.369   2.941   5.957  1.7294 -0.9333  0.6163
19456TIP3    H279784   6.407   3.065   6.034  0.2187 -0.1995  0.2215
19457TIP3   OH279785   4.262   2.691  12.885 -0.4169  0.0747  0.0309
19457TIP3    H179786   4.187   2.741  12.855 -1.6655 -0.7948  1.5892
19457TIP3    H279787   4.246   2.675  12.978  2.2045  0.7359  0.6980
19458TIP3   OH279788   4.162   2.943  15.328  0.0484  0.4217 -0.4373
19458TIP3    H179789   4.131   2.911  15.413 -1.7519 -0.2209 -1.2803
19458TIP3    H279790   4.236   2.887  15.306  0.5972  0.6550  0.7240
19459TIP3   OH279791   6.513   5.939   4.047 -0.5344  0.0455 -0.3439
19459TIP3    H179792   6.578   5.927   3.977 -0.2348  0.2274 -0.1020
19459TIP3    H279793   6.566   5.945   4.126 -0.9598 -2.0267  0.1427
19460TIP3   OH279794   2.950   3.579   0.385 -0.1884 -0.1537 -0.5504
19460TIP3    H179795   2.914   3.526   0.456  1.1290 -1.7333 -0.9924
19460TIP3    H279796   2.937   3.669   0.413 -0.6047 -0.7304  1.2261
19461TIP3   OH279797   1.954   0.520  16.042  0.6412  0.5870 -0.4369
19461TIP3    H179798   1.918   0.573  15.972  1.5553  2.0058  0.1229
19461TIP3    H279799   1.938   0.571  16.122  2.0822  0.3158  0.0506
19462TIP3   OH279800   5.221   3.439  12.724 -0.2221  0.1144 -0.1152
19462TIP3    H179801   5.311   3.440  12.755 -0.1357 -1.1279 -0.2783
19462TIP3    H279802   5.168   3.446  12.803  0.0105  0.0207  0.0505
19463TIP3   OH279803   5.943   6.031  11.551  0.0582  0.7115 -0.4151
19463TIP3    H179804   5.986   5.990  11.476  2.4167  1.4838  0.4104
19463TIP3    H279805   5.954   6.125  11.537  0.5932  0.8725  0.8950
19464TIP3   OH279806   6.370   4.740  14.050 -0.1509  0.0125  0.0215
19464TIP3    H179807   6.381   4.808  13.983  2.0401  0.0010  0.2719
19464TIP3    H279808   6.293   4.768  14.100 -0.2031  1.5023 -0.8108
19465TIP3   OH279809   4.122   1.380   2.707  0.1063  0.2042  0.0162
19465TIP3    H179810   4.125   1.336   2.792 -0.4427  0.0168 -0.0542
19465TIP3    H279811   4.182   1.330   2.651 -0.3121 -0.2962  0.0111
19466TIP3   OH279812   6.698   0.573  13.294  0.4301 -0.4211 -0.0721
19466TIP3    H179813   6.695   0.634  13.368  0.9880 -0.8451  0.3115
19466TIP3    H279814   6.620   0.518  13.305 -0.9698  1.2165 -1.3242
19467TIP3   OH279815   5.221   6.753  11.751  0.4414  0.2058  0.4027
19467TIP3    H179816   5.192   6.782  11.837  0.8176  0.1167  0.5614
19467TIP3    H279817   5.147   6.771  11.693 -0.2186 -0.7138  0.9346
19468TIP3   OH279818   3.711   5.731  11.566 -0.4958 -0.2517  0.0207
19468TIP3    H179819   3.649   5.802  11.581 -2.7186 -2.2345  0.7233
19468TIP3    H279820   3.679   5.659  11.619  3.0248 -1.1238  1.2037
19469TIP3   OH279821   3.042   1.418  13.074  0.0996 -0.3012  0.1461
19469TIP3    H179822   3.126   1.464  13.075  0.5981 -1.1939 -0.0590
19469TIP3    H279823   3.063   1.329  13.102 -0.3020 -1.2867 -2.4643
19470TIP3   OH279824   1.375   3.274   0.233  0.1885 -0.6640  0.1157
19470TIP3    H179825   1.285   3.306   0.224 -0.2915 -0.9662  2.9709
19470TIP3    H279826   1.427   3.336   0.183 -1.3200  1.2790  0.8103
19471TIP3   OH279827   4.787   0.256  13.171 -0.2244 -0.4045  0.6278
19471TIP3    H179828   4.799   0.242  13.264 -1.2218  0.8027  0.9670
19471TIP3    H279829   4.696   0.286  13.162  0.2391  0.7589 -0.5591
19472TIP3   OH279830   1.642   0.716  16.153 -0.2140 -0.1008  0.1521
19472TIP3    H179831   1.688   0.765  16.085 -1.4086  0.4609 -0.2800
19472TIP3    H279832   1.564   0.681  16.110 -0.7385 -0.1498  1.1003
19473TIP3   OH279833   5.397   2.471   3.555 -0.1806  0.0640  0.5628
19473TIP3    H179834   5.469   2.412   3.575 -0.3434 -0.9518 -1.6232
19473TIP3    H279835   5.328   2.415   3.519 -0.5684  1.4708 -1.0080
19474TIP3   OH279836   6.174   0.316  14.059  0.5882 -0.2757  0.0987
19474TIP3    H179837   6.193   0.381  14.128 -1.1838  0.5305 -0.1287
19474TIP3    H279838   6.079   0.315  14.052  0.5985 -2.4930 -0.3507
19475TIP3   OH279839   6.683   3.050  16.736  0.2015 -0.1039 -0.6740
19475TIP3    H179840   6.619   3.085  16.798 -0.0504 -0.1096 -0.9246
19475TIP3    H279841   6.630   3.022  16.661  0.5844  0.6768 -1.2447
19476TIP3   OH279842   5.808   6.660  13.346  0.1421  0.3033 -0.2735
19476TIP3    H179843   5.901   6.653  13.326 -0.0931  1.9948 -2.3822
19476TIP3    H279844   5.766   6.600  13.284 -0.3300  2.4167 -2.1513
19477TIP3   OH279845   2.857   1.441   1.810  0.6066 -0.3307 -0.5843
19477TIP3    H179846   2.906   1.504   1.758 -0.5005 -1.2771 -2.9449
19477TIP3    H279847   2.903   1.358   1.797 -0.5082 -0.8661 -1.3444
19478TIP3   OH279848   0.893   5.558   2.110  0.0817 -0.1369  0.6069
19478TIP3    H179849   0.825   5.491   2.099  0.3418 -0.3990  0.5720
19478TIP3    H279850   0.959   5.516   2.166  0.6202 -0.1847 -0.0459
19479TIP3   OH279851   6.460   3.613   2.634 -0.3243 -0.4314 -0.3999
19479TIP3    H179852   6.397   3.675   2.598 -0.5721 -0.9563 -0.8968
19479TIP3    H279853   6.449   3.535   2.580  1.9546  0.0346 -1.6822
19480TIP3   OH279854   4.676   2.660  12.479 -0.2710  0.2090 -0.4234
19480TIP3    H179855   4.769   2.684  12.477  0.0880 -1.0844 -0.8349
19480TIP3    H279856   4.650   2.658  12.386 -1.0846  1.8186 -0.2628
19481TIP3   OH279857   5.273   6.239  15.955 -1.0412 -0.0252 -0.4507
19481TIP3    H179858   5.303   6.294  15.883  1.2607 -0.6394 -0.0618
19481TIP3    H279859   5.271   6.297  16.031  3.0150 -0.5985  0.3328
19482TIP3   OH279860   6.298   5.840  14.709  0.1602  0.1838  0.0514
19482TIP3    H179861   6.359   5.878  14.646  1.0714 -0.3649  0.5839
19482TIP3    H279862   6.333   5.864  14.795 -0.6172  0.2341  0.3643
19483TIP3   OH279863   3.136   1.439   6.790  0.6928  0.5579 -0.6811
19483TIP3    H179864   3.144   1.384   6.868  0.8168  1.5814  0.0331
19483TIP3    H279865   3.118   1.376   6.719 -0.9063 -0.2723  0.4005
19484TIP3   OH279866   3.824   2.874   5.019 -0.0345  0.0174  0.5863
19484TIP3    H179867   3.853   2.877   4.928  1.8620  0.9254  1.1497
19484TIP3    H279868   3.847   2.960   5.054 -2.0475  0.2051  1.5740
19485TIP3   OH279869   0.187   5.344  11.257 -0.4802 -0.2142 -0.0033
19485TIP3    H179870   0.227   5.399  11.324  0.3322  1.2481 -1.5848
19485TIP3    H279871   0.240   5.265  11.256  1.1084  0.8052 -0.5854
19486TIP3   OH279872   0.758   6.690   4.992  0.0163  0.0821 -0.0250
19486TIP3    H179873   0.738   6.603   4.958 -1.1236 -0.1202  1.0945
19486TIP3    H279874   0.693   6.747   4.952  0.5489  0.3755 -0.4890
19487TIP3   OH279875   0.382   4.187  13.577  0.1541 -0.4093  0.2740
19487TIP3    H179876   0.458   4.222  13.531  0.3664 -1.5018 -0.2369
19487TIP3    H279877   0.419   4.125  13.640 -0.3861 -2.0954 -1.0309
19488TIP3   OH279878   3.578   4.599   6.157 -0.1122 -0.2459 -0.2294
19488TIP3    H179879   3.483   4.608   6.162 -0.1520 -0.9921  0.8229
19488TIP3    H279880   3.596   4.513   6.196  0.8955 -0.7108 -1.6402
19489TIP3   OH279881   4.152   6.141  12.913 -0.2796 -0.0632  0.2372
19489TIP3    H179882   4.203   6.062  12.933  0.3474  0.5608  1.1576
19489TIP3    H279883   4.061   6.111  12.913  0.0158 -1.0223 -0.6161
19490TIP3   OH279884   6.631   5.456  16.373  0.7419  0.4705  0.6042
19490TIP3    H179885   6.712   5.435  16.419  0.2080  0.9605  1.8187
19490TIP3    H279886   6.582   5.510  16.435 -1.1665 -1.0436  0.4778
19491TIP3   OH279887   4.800   4.696   1.011  0.3270 -0.0493 -0.3507
19491TIP3    H179888   4.849   4.625   1.054 -0.0277  0.4496  0.9299
19491TIP3    H279889   4.734   4.651   0.959  0.3857 -0.6795  0.1058
19492TIP3   OH279890   4.069   4.443  16.275  0.1459 -0.0754  0.6787
19492TIP3    H179891   4.122   4.380  16.325  2.0222  1.9413  1.3576
19492TIP3    H279892   4.036   4.504  16.340 -0.3743  0.5495 -0.1491
19493TIP3   OH279893   1.228   4.666  12.047  0.4399  0.3206 -0.5134
19493TIP3    H179894   1.162   4.690  11.983 -0.0031 -2.0626 -1.0525
19493TIP3    H279895   1.193   4.587  12.089  2.5731 -0.5564 -0.2575
19494TIP3   OH279896   3.950   2.894  16.282 -0.5697 -0.5554  0.0768
19494TIP3    H179897   4.014   2.855  16.342 -0.4609  1.2606  1.2287
19494TIP3    H279898   3.880   2.924  16.340 -0.0360  2.0935 -0.5193
19495TIP3   OH279899   5.383   4.550  15.293 -0.2770 -0.7427  0.4075
19495TIP3    H179900   5.400   4.644  15.291  0.2734 -0.7357  2.8182
19495TIP3    H279901   5.344   4.531  15.208  1.0612  1.3596 -0.7463
19496TIP3   OH279902   1.698   6.080  10.863  0.0709 -1.0255 -0.0866
19496TIP3    H179903   1.766   6.125  10.913 -0.7608 -0.7206  0.7955
19496TIP3    H279904   1.693   5.992  10.902 -1.6542 -0.2936  1.4648
19497TIP3   OH279905   4.699   2.929  17.308 -0.5853 -0.4352  0.3610
19497TIP3    H179906   4.785   2.909  17.269 -0.5097 -0.3021  0.4592
19497TIP3    H279907   4.637   2.880  17.254 -0.7101  1.3467 -1.2323
19498TIP3   OH279908   3.987   1.032  12.158  0.3575  0.3568  0.2130
19498TIP3    H179909   3.894   1.040  12.179  0.2167  0.1416 -0.3054
19498TIP3    H279910   4.018   1.123  12.152  0.1437  0.4306  0.2157
19499TIP3   OH279911   4.782   3.856  16.478  0.0978 -0.0668  0.3477
19499TIP3    H179912   4.794   3.762  16.466  1.4232  0.3414 -2.1259
19499TIP3    H279913   4.870   3.891  16.490 -0.3645  0.9066  1.0866
19500TIP3   OH279914   5.082   0.624   2.842  0.1070 -0.2178 -0.0467
19500TIP3    H179915   5.080   0.546   2.896 -0.7559  0.0537  0.3355
19500TIP3    H279916   5.162   0.616   2.790  1.8434  0.2755  2.3689
19501TIP3   OH279917   5.015   0.867   2.612 -0.0516 -0.5353 -0.0504
19501TIP3    H179918   5.046   0.955   2.591  1.1734 -1.7224 -4.3295
19501TIP3    H279919   5.029   0.858   2.706 -0.6683  3.9098  0.6892
19502TIP3   OH279920   4.655   4.462   2.947  0.2523  0.0467  0.0522
19502TIP3    H179921   4.711   4.408   2.893  2.0437  1.4654  0.3807
19502TIP3    H279922   4.595   4.504   2.886 -0.6225 -1.6038 -0.2865
19503TIP3   OH279923   2.416   3.417   5.444  0.2018 -1.0680 -0.2188
19503TIP3    H179924   2.450   3.378   5.525 -0.7829 -0.1525  0.6663
19503TIP3    H279925   2.341   3.361   5.421 -0.6087 -0.3129  0.5093
19504TIP3   OH279926   5.037   4.624   3.527 -0.2325 -0.3215 -0.0649
19504TIP3    H179927   4.970   4.657   3.467  0.0421 -0.3008 -0.3583
19504TIP3    H279928   5.116   4.615   3.474  0.3450  0.8699  0.5524
19505TIP3   OH279929   0.819   0.521   1.765 -0.1658 -0.0420  0.2455
19505TIP3    H179930   0.887   0.582   1.792 -0.6701  0.3653  0.6372
19505TIP3    H279931   0.852   0.435   1.790 -0.3812  0.2784  1.7380
19506TIP3   OH279932   2.142   3.207  15.488 -0.1693 -0.1755 -0.3499
19506TIP3    H179933   2.155   3.202  15.393 -0.7638 -0.1116 -0.4392
19506TIP3    H279934   2.115   3.297  15.504  0.7205  0.0367 -0.0104
19507TIP3   OH279935   3.629   6.385  11.358 -0.0846 -0.7356  0.4207
19507TIP3    H179936   3.680   6.314  11.396 -0.4273 -0.0617  2.2338
19507TIP3    H279937   3.681   6.414  11.283  1.4449 -1.0798  1.3047
19508TIP3   OH279938   2.175   3.779   3.501 -0.3036 -0.1376 -0.3503
19508TIP3    H179939   2.116   3.744   3.434 -0.6142  0.6833 -0.5117
19508TIP3    H279940   2.127   3.851   3.542 -0.2195 -0.7865  0.9464
19509TIP3   OH279941   1.497   6.626   0.849 -0.6885 -0.3653 -0.2862
19509TIP3    H179942   1.423   6.566   0.840 -0.0082 -1.3415  0.3134
19509TIP3    H279943   1.495   6.653   0.940 -0.4603 -0.1837 -0.3338
19510TIP3   OH279944   1.319   4.612  11.498 -0.0853 -0.0844  0.4395
19510TIP3    H179945   1.368   4.592  11.418  0.4206  1.5161  0.3092
19510TIP3    H279946   1.233   4.639  11.468  0.4900  1.7545  0.2765
19511TIP3   OH279947   4.375   2.341   4.957 -0.0646  0.1924  0.1489
19511TIP3    H179948   4.376   2.277   4.886 -0.4296  0.9179 -0.5232
19511TIP3    H279949   4.316   2.410   4.927 -1.7484 -0.3646  1.9389
19512TIP3   OH279950   6.589   0.627  16.870  0.2757 -0.2770 -0.3022
19512TIP3    H179951   6.538   0.596  16.795  1.3233 -0.6564 -0.8674
19512TIP3    H279952   6.678   0.635  16.837  0.8880 -1.1130  1.0869
19513TIP3   OH279953   3.395   4.437  13.043  0.3069 -0.6752  0.1433
19513TIP3    H179954   3.445   4.404  12.968 -0.5054 -0.1049 -0.6534
19513TIP3    H279955   3.462   4.466  13.105  0.9729  0.2654 -0.9934
19514TIP3   OH279956   6.429   0.556  16.664 -0.4110 -0.3185 -0.3857
19514TIP3    H179957   6.486   0.568  16.588 -0.3972 -0.0146 -0.3299
19514TIP3    H279958   6.341   0.574  16.631 -0.3274  0.5785 -0.1650
19515TIP3   OH279959   5.776   2.159   4.653 -0.1369  0.3271 -0.1189
19515TIP3    H179960   5.802   2.090   4.715 -1.5418 -0.0178  0.1174
19515TIP3    H279961   5.771   2.238   4.706  2.4138  0.8913 -0.5649
19516TIP3   OH279962   4.532   0.386   2.142 -0.2496 -0.1310  0.1421
19516TIP3    H179963   4.580   0.407   2.222  1.1245 -0.3320 -0.6026
19516TIP3    H279964   4.522   0.470   2.098 -0.2152 -0.1504  0.0977
19517TIP3   OH279965   1.488   5.344   6.108  0.6442 -0.6621  0.2101
19517TIP3    H179966   1.526   5.354   6.196  0.7983  1.8317 -0.0654
19517TIP3    H279967   1.496   5.431   6.069  0.6019 -1.7208 -2.3103
19518TIP3   OH279968   6.362   0.169   4.564  0.1961 -0.6539 -0.3694
19518TIP3    H179969   6.389   0.228   4.635 -0.7320 -0.8538  0.1798
19518TIP3    H279970   6.405   0.203   4.486  0.0299  0.4928  0.0187
19519TIP3   OH279971   5.691   1.220   2.014 -0.1669  0.2529  0.6073
19519TIP3    H179972   5.626   1.183   2.074 -2.0774  4.4801  1.4927
19519TIP3    H279973   5.639   1.263   1.946  1.8396  0.8378 -0.6464
19520TIP3   OH279974   3.218   5.971   3.219  0.5377  0.1427 -0.6100
19520TIP3    H179975   3.221   6.067   3.213 -0.8011  0.1911 -0.7864
19520TIP3    H279976   3.307   5.946   3.243  0.7202  1.4908  0.2207
19521TIP3   OH279977   2.058   2.953  13.566  0.1839  0.2696 -0.2206
19521TIP3    H179978   2.010   2.999  13.635 -1.2043  0.7387 -1.4337
19521TIP3    H279979   2.123   3.016  13.535  0.0003  0.4887 -0.1594
19522TIP3   OH279980   3.204   0.759  16.013  0.2828 -0.1057 -0.0448
19522TIP3    H179981   3.235   0.734  15.926 -1.0081 -0.9337 -0.2906
19522TIP3    H279982   3.110   0.740  16.012  0.2574 -0.2256  1.5631
19523TIP3   OH279983   1.603   4.575   1.376  0.4461  0.1459 -0.4275
19523TIP3    H179984   1.551   4.560   1.297 -0.0477  1.6459 -0.4240
19523TIP3    H279985   1.541   4.559   1.448  0.9378 -1.3784 -0.3051
19524TIP3   OH279986   3.897   5.421  13.779 -0.2103  0.0756 -0.2365
19524TIP3    H179987   3.823   5.477  13.754 -1.4137 -1.4867 -0.3087
19524TIP3    H279988   3.952   5.417  13.701 -0.8966 -0.0348 -0.7228
19525TIP3   OH279989   2.120   4.487  13.784 -0.1588 -0.6890 -0.5237
19525TIP3    H179990   2.191   4.477  13.847  0.5429  1.5270 -0.8581
19525TIP3    H279991   2.163   4.519  13.705 -1.3175 -1.0672 -1.3306
19526TIP3   OH279992   5.868   4.274  16.523 -0.6665  0.0864  0.2566
19526TIP3    H179993   5.856   4.182  16.501 -1.8123  0.3506 -0.2885
19526TIP3    H279994   5.828   4.322  16.450 -1.6320  0.9990  1.3286
19527TIP3   OH279995   1.534   2.431   2.353 -0.0027 -0.0065 -0.1471
19527TIP3    H179996   1.484   2.409   2.275 -1.1243 -1.0526  0.8112
19527TIP3    H279997   1.593   2.501   2.326  1.4021 -1.9569 -2.5411
19528TIP3   OH279998   4.515   6.257   3.918  0.0452 -0.0972 -0.4727
19528TIP3    H179999   4.521   6.280   4.010 -0.8129 -0.5899 -0.2797
19528TIP3    H280000   4.505   6.340   3.872  0.8549  0.1767 -0.1655
19529TIP3   OH280001   3.715   1.677  16.384 -0.1314 -0.7723 -0.0008
19529TIP3    H180002   3.662   1.702  16.460  1.7618 -0.1155  1.1552
19529TIP3    H280003   3.666   1.709  16.309 -0.2134  2.0396  1.1554
19530TIP3   OH280004   4.517   1.129  13.313  0.2481  0.0055  0.0374
19530TIP3    H180005   4.524   1.224  13.302 -0.1023  0.1014  0.6042
19530TIP3    H280006   4.486   1.098  13.228 -2.0435  0.6886  0.5223
19531TIP3   OH280007   2.159   5.811   3.901  0.1758  0.6061  0.0053
19531TIP3    H180008   2.153   5.810   3.996 -1.9425  3.1878  0.0281
19531TIP3    H280009   2.135   5.901   3.876  0.2402 -0.0835 -2.9787
19532TIP3   OH280010   6.142   1.866  14.440  0.0106  0.5720 -0.2562
19532TIP3    H180011   6.212   1.818  14.396 -0.4642  0.1753 -0.5885
19532TIP3    H280012   6.132   1.946  14.388 -2.2195 -0.9776 -2.4340
19533TIP3   OH280013   6.195   3.288  12.137  0.2911 -0.1740 -0.4317
19533TIP3    H180014   6.283   3.298  12.172  0.5108  0.9139 -1.2476
19533TIP3    H280015   6.142   3.264  12.212  1.0099  0.6773  0.3697
19534TIP3   OH280016   5.813   3.869   2.747 -0.0307 -0.0062 -0.4679
19534TIP3    H180017   5.778   3.781   2.731 -2.0229  0.5087  0.7754
19534TIP3    H280018   5.873   3.857   2.821  0.5768 -0.4860 -1.0251
19535TIP3   OH280019   0.302   1.944  12.184 -0.1252 -0.1085 -0.8030
19535TIP3    H180020   0.259   2.026  12.209 -0.4024 -1.1897  2.8490
19535TIP3    H280021   0.241   1.876  12.211  1.3367 -1.5814 -1.0864
19536TIP3   OH280022   0.740   6.565   5.460  0.5337 -0.5528  0.1821
19536TIP3    H180023   0.814   6.527   5.412  0.0647 -1.3418  0.0664
19536TIP3    H280024   0.699   6.625   5.398  1.6939  0.7318  0.5893
19537TIP3   OH280025   0.569   4.895  15.016 -0.2789  0.1337 -0.2249
19537TIP3    H180026   0.619   4.823  14.977 -1.7447 -0.8050 -0.4489
19537TIP3    H280027   0.502   4.852  15.069  0.5754  1.3731  1.9998
19538TIP3   OH280028   2.760   1.363  14.580 -0.1783  0.0007  1.0347
19538TIP3    H180029   2.677   1.396  14.543 -0.1788 -1.6684 -0.6037
19538TIP3    H280030   2.827   1.412  14.533 -0.2122 -0.7381  0.1954
19539TIP3   OH280031   6.460   5.073  17.170 -0.0886 -0.0193 -0.2527
19539TIP3    H180032   6.366   5.085  17.182 -0.0076 -1.4580  3.0490
19539TIP3    H280033   6.467   4.999  17.110 -1.1048 -0.2529 -0.1001
19540TIP3   OH280034   5.708   0.272   4.613  0.0366 -0.1942 -0.0482
19540TIP3    H180035   5.688   0.366   4.618  0.2900 -0.0340 -1.4475
19540TIP3    H280036   5.777   0.266   4.547 -0.0817 -1.3866 -0.0871
19541TIP3   OH280037   3.058   0.965   3.138  0.0008  0.4333 -0.2200
19541TIP3    H180038   3.041   1.037   3.199 -2.9567  0.8345 -1.3710
19541TIP3    H280039   3.109   1.004   3.067 -2.7441  1.8785 -1.5311
19542TIP3   OH280040   6.225   4.481  14.734 -0.3163  0.2767 -0.3350
19542TIP3    H180041   6.266   4.539  14.669 -0.5861  0.1344 -0.6318
19542TIP3    H280042   6.148   4.529  14.763  1.6272  1.9737  2.5103
19543TIP3   OH280043   6.759   4.292   1.616 -0.2016 -0.5491 -0.2716
19543TIP3    H180044   6.749   4.258   1.527  0.1344 -1.0745 -0.1118
19543TIP3    H280045   6.674   4.330   1.636 -1.2488 -2.9553  0.2386
19544TIP3   OH280046   0.048   2.338   5.955 -0.0058 -0.3905  0.2815
19544TIP3    H180047   0.132   2.367   5.990 -0.7273  2.2827  0.0280
19544TIP3    H280048   0.035   2.251   5.992  2.7045 -0.7559  0.5596
19545TIP3   OH280049   4.272   5.571   5.016  0.0186  0.8455 -0.2565
19545TIP3    H180050   4.200   5.532   5.065  0.4670  1.1794  0.6856
19545TIP3    H280051   4.346   5.571   5.076  0.7307  0.7927 -1.1061
19546TIP3   OH280052   4.501   4.073  14.287 -0.0033  0.0208  0.7440
19546TIP3    H180053   4.592   4.103  14.287  0.1963 -0.3762  2.9120
19546TIP3    H280054   4.450   4.151  14.265  0.8375  0.1988 -0.6922
19547TIP3   OH280055   1.526   5.533  12.692 -0.6200 -0.1193  0.0423
19547TIP3    H180056   1.463   5.463  12.676 -0.6226  0.0232 -0.5829
19547TIP3    H280057   1.488   5.610  12.650 -0.4943  0.2015  0.5087
19548TIP3   OH280058   5.320   0.224  14.124 -0.3185  0.2486 -0.0535
19548TIP3    H180059   5.344   0.269  14.205  0.7048 -0.4868  0.0788
19548TIP3    H280060   5.348   0.282  14.054  0.1889  0.2233  0.1223
19549TIP3   OH280061   2.595   5.891  14.045  0.1232  0.1165 -0.1750
19549TIP3    H180062   2.524   5.874  13.984  0.8776  0.9433 -1.3309
19549TIP3    H280063   2.560   5.957  14.105 -0.3664 -0.1397 -0.1746
19550TIP3   OH280064   2.268   6.659   1.399 -0.3503  0.4115 -0.2003
19550TIP3    H180065   2.320   6.704   1.466  0.1112 -0.0677 -0.2350
19550TIP3    H280066   2.183   6.704   1.401 -0.8381 -0.4999  1.6945
19551TIP3   OH280067   0.811   4.452  13.021  0.0635  0.2896 -0.5276
19551TIP3    H180068   0.774   4.521  12.967  1.2255  0.1471 -1.5652
19551TIP3    H280069   0.905   4.456  13.003  0.1208 -1.8735 -1.0228
19552TIP3   OH280070   4.251   2.036  14.436 -0.5625 -1.0867 -0.0800
19552TIP3    H180071   4.183   2.080  14.487  0.1799 -0.4436  0.3691
19552TIP3    H280072   4.254   1.947  14.473  0.1644 -0.5521  1.2522
19553TIP3   OH280073   2.603   2.007  14.488  0.0298  0.5029 -0.2729
19553TIP3    H180074   2.541   1.945  14.527  0.5100 -0.3382 -0.7998
19553TIP3    H280075   2.588   1.998  14.394  2.7318 -1.7240 -0.6062
19554TIP3   OH280076   5.022   1.091   2.912  0.4159  0.4572  0.6042
19554TIP3    H180077   4.974   1.137   2.981 -1.2778 -1.0338  0.4973
19554TIP3    H280078   5.046   1.159   2.851  1.3412  1.7219  2.2911
19555TIP3   OH280079   2.867   4.050  12.462  0.1817  1.0157 -0.1424
19555TIP3    H180080   2.925   4.012  12.397 -0.5926  0.8614 -0.7553
19555TIP3    H280081   2.867   3.987  12.535 -1.0594 -0.1819 -1.1279
19556TIP3   OH280082   4.744   6.399   4.048  0.2381  0.1811 -0.3201
19556TIP3    H180083   4.765   6.492   4.051  2.9440 -0.3654  0.1273
19556TIP3    H280084   4.826   6.357   4.022 -0.8017 -2.1327 -0.0918
19557TIP3   OH280085   3.471   0.077   1.665  0.1977  0.1073 -0.0814
19557TIP3    H180086   3.474   0.024   1.744  0.7647  1.1844  0.6443
19557TIP3    H280087   3.511   0.160   1.690 -1.0767  1.0611 -1.0490
19558TIP3   OH280088   3.194   1.610   1.867  0.2220  0.1314  0.6855
19558TIP3    H180089   3.183   1.568   1.952  0.9949  0.4480  0.9456
19558TIP3    H280090   3.285   1.595   1.843 -0.0054 -0.0157 -0.1225
19559TIP3   OH280091   6.486   5.900   1.430 -0.2095 -0.1489 -0.3894
19559TIP3    H180092   6.558   5.880   1.490 -1.0644  1.3602  1.2466
19559TIP3    H280093   6.476   5.995   1.437 -2.5396 -0.3565 -0.3355
19560TIP3   OH280094   5.951   2.770   5.341  0.2092 -0.3717 -0.5930
19560TIP3    H180095   5.934   2.759   5.434 -1.5409  1.2560 -0.6688
19560TIP3    H280096   5.969   2.681   5.310  1.1010 -0.9131  1.3113
19561TIP3   OH280097   3.130   3.050  12.327  0.0440  0.1664 -0.4857
19561TIP3    H180098   3.051   3.041  12.380  1.0238 -1.0619  0.7999
19561TIP3    H280099   3.139   3.145  12.315 -0.5221  0.4451  1.0474
19562TIP3   OH280100   5.958   3.925   6.157  0.8210  0.6763  0.1467
19562TIP3    H180101   6.011   3.963   6.227  1.3331  0.1627  0.0539
19562TIP3    H280102   5.968   3.830   6.169 -0.0396  0.5703  0.0884
19563TIP3   OH280103   4.618   1.361  15.053  0.3932 -0.2956  0.1548
19563TIP3    H180104   4.580   1.275  15.035  0.8656 -0.6158  0.6468
19563TIP3    H280105   4.639   1.397  14.967 -0.9226 -0.1455 -0.1354
19564TIP3   OH280106   1.125   3.137   6.718  0.1938  0.1089  0.0389
19564TIP3    H180107   1.214   3.162   6.694 -0.5188  2.2707 -0.6189
19564TIP3    H280108   1.090   3.096   6.639 -0.2445  1.8265 -0.7123
19565TIP3   OH280109   5.747   4.135  11.632 -0.1085 -0.3635  0.6246
19565TIP3    H180110   5.734   4.214  11.579  1.0074 -0.1488  0.6417
19565TIP3    H280111   5.692   4.149  11.709 -1.2683 -0.3977 -0.1630
19566TIP3   OH280112   5.674   1.759   1.138 -0.1151 -0.4820 -0.1486
19566TIP3    H180113   5.711   1.813   1.067  0.4276  1.0558  1.2154
19566TIP3    H280114   5.748   1.743   1.196 -0.6802 -1.1754  0.3972
19567TIP3   OH280115   0.892   3.573   0.057 -0.1161 -0.0160  0.0960
19567TIP3    H180116   0.871   3.594   0.147  1.5530  0.4086  0.4130
19567TIP3    H280117   0.942   3.648   0.025 -0.4113 -0.2961 -1.0884
19568TIP3   OH280118   6.693   3.407   6.204  0.7557  0.1478  0.1929
19568TIP3    H180119   6.690   3.491   6.250 -0.1689  0.1705  0.1124
19568TIP3    H280120   6.656   3.344   6.265  3.1839 -0.6052  0.9936
19569TIP3   OH280121   3.504   4.523  15.479 -0.4410 -0.1578  0.3101
19569TIP3    H180122   3.578   4.523  15.539  0.0480  0.2034 -0.2742
19569TIP3    H280123   3.467   4.435  15.486  1.5349 -1.1777 -1.1653
19570TIP3   OH280124   1.251   5.516   5.616  0.0640 -0.1141 -0.8038
19570TIP3    H180125   1.196   5.477   5.684 -0.9114  1.1227 -0.8371
19570TIP3    H280126   1.340   5.486   5.637 -0.1150  0.6796  1.3693
19571TIP3   OH280127   2.310   3.895   5.675 -0.2755 -0.1649 -0.2090
19571TIP3    H180128   2.231   3.858   5.637  0.2817 -1.2035 -0.4063
19571TIP3    H280129   2.301   3.880   5.769 -0.5181  0.1404 -0.1819
19572TIP3   OH280130   4.868   4.139  12.571 -0.5517  0.0648  0.7132
19572TIP3    H180131   4.932   4.209  12.565  1.4669 -1.6699  0.5861
19572TIP3    H280132   4.806   4.155  12.500 -0.6610  2.1162  1.2027
19573TIP3   OH280133   0.516   0.393  11.400 -0.1139 -0.0513 -0.2742
19573TIP3    H180134   0.466   0.336  11.342 -0.8694 -0.2744  0.5880
19573TIP3    H280135   0.481   0.376  11.487  0.4783  0.8467  0.1527
19574TIP3   OH280136   4.509   6.386   2.732  0.0258 -0.1658  0.1160
19574TIP3    H180137   4.603   6.370   2.723  0.1837 -0.7387  2.1976
19574TIP3    H280138   4.471   6.299   2.746 -0.9211  0.0008 -1.1355
19575TIP3   OH280139   4.973   4.654  12.564 -0.1293  0.3017 -0.1802
19575TIP3    H180140   5.042   4.704  12.520  0.5796 -0.6577 -0.1938
19575TIP3    H280141   4.893   4.674  12.515  0.6707 -0.9563 -2.1074
19576TIP3   OH280142   0.571   0.441   1.771 -0.7791  0.2225 -0.2086
19576TIP3    H180143   0.551   0.457   1.679 -1.3153  1.9326  0.1591
19576TIP3    H280144   0.658   0.479   1.784  0.5815 -2.5121 -0.5921
19577TIP3   OH280145   4.985   4.875   3.688  0.4706  0.0134  0.1928
19577TIP3    H180146   5.033   4.794   3.669  1.6753  0.6900  0.2487
19577TIP3    H280147   5.030   4.942   3.636 -0.9438  0.5404 -0.4014
19578TIP3   OH280148   6.309   0.336  10.999  0.2426 -0.2076  0.3502
19578TIP3    H180149   6.365   0.284  11.056  0.5708 -0.5774 -0.2999
19578TIP3    H280150   6.362   0.353  10.921 -0.1721  0.3516  0.1818
19579TIP3   OH280151   5.907   0.708  16.484 -0.1074 -0.2016  0.2011
19579TIP3    H180152   5.939   0.750  16.404  2.0607 -0.9370  0.6205
19579TIP3    H280153   5.826   0.666  16.458 -0.0995  0.6284 -1.2874
19580TIP3   OH280154   4.666   5.971   3.137 -0.1312 -0.1030 -0.1297
19580TIP3    H180155   4.694   5.888   3.176 -0.3426  0.4069  1.1546
19580TIP3    H280156   4.575   5.956   3.111 -0.0358 -0.4014 -0.2920
19581TIP3   OH280157   6.612   4.780   3.034  0.1115  0.8766  0.4323
19581TIP3    H180158   6.642   4.793   2.944  0.0740  0.4339  0.3523
19581TIP3    H280159   6.627   4.687   3.051 -1.3805  0.5903  0.3298
19582TIP3   OH280160   2.256   1.353   3.221 -0.2677 -0.2651 -0.0182
19582TIP3    H180161   2.220   1.439   3.200  1.9669  0.9628  0.8322
19582TIP3    H280162   2.300   1.325   3.141  2.2161  1.1901  0.7301
19583TIP3   OH280163   2.864   2.246   1.150 -0.1088 -0.4431  0.8745
19583TIP3    H180164   2.959   2.234   1.145  0.0318 -0.0849  2.2763
19583TIP3    H280165   2.834   2.234   1.060  1.3146 -0.1516  0.3255
19584TIP3   OH280166   6.684   4.477  14.826 -0.0952  0.3737  0.0736
19584TIP3    H180167   6.710   4.400  14.877 -0.9591  0.7941  1.1986
19584TIP3    H280168   6.729   4.467  14.742  1.0563 -0.5372  0.7774
19585TIP3   OH280169   1.619   0.238   6.237  0.4094 -0.6965  0.5078
19585TIP3    H180170   1.674   0.207   6.308 -0.2057 -1.5880  0.6145
19585TIP3    H280171   1.546   0.282   6.280  1.0905  0.6324  0.3640
19586TIP3   OH280172   3.319   4.452  14.546 -0.5410 -0.3559  0.0568
19586TIP3    H180173   3.390   4.467  14.483 -0.1766 -0.9545  0.3179
19586TIP3    H280174   3.250   4.410  14.495 -0.1424 -1.0794  0.1102
19587TIP3   OH280175   2.010   5.474  12.028 -0.0281  0.2390  0.6453
19587TIP3    H180176   2.051   5.388  12.037 -0.5862  0.0201  1.2259
19587TIP3    H280177   2.065   5.520  11.965 -0.9492 -1.3069 -1.4211
19588TIP3   OH280178   0.656   4.945   2.401  0.1055  0.1268 -0.4781
19588TIP3    H180179   0.585   4.982   2.348  0.1146 -2.3470 -2.4045
19588TIP3    H280180   0.618   4.933   2.488 -0.8743  1.5292 -0.6816
19589TIP3   OH280181   5.740   3.900  13.182  0.3321 -0.1457  0.3453
19589TIP3    H180182   5.726   3.981  13.132  4.7773  0.4294 -0.4081
19589TIP3    H280183   5.724   3.830  13.119 -0.0450  0.2867 -0.0507
19590TIP3   OH280184   5.969   0.744   1.397 -0.1838 -0.0230 -0.1534
19590TIP3    H180185   6.044   0.791   1.360  1.7371 -1.7806  1.2529
19590TIP3    H280186   5.894   0.799   1.376  1.4706  1.8625 -1.6191
19591TIP3   OH280187   2.404   3.151  13.766 -0.5798  0.2490 -0.2750
19591TIP3    H180188   2.496   3.173  13.747 -1.1607  2.5750 -0.7555
19591TIP3    H280189   2.402   3.142  13.861  0.6004 -2.4866 -0.4197
19592TIP3   OH280190   0.395   6.644   0.757  0.0311  0.0293 -0.4663
19592TIP3    H180191   0.417   6.551   0.752 -1.4431 -0.2628 -2.6451
19592TIP3    H280192   0.303   6.645   0.786  0.5441  0.9144  1.2585
19593TIP3   OH280193   5.656   2.136  12.643 -0.5888  0.3659  0.3813
19593TIP3    H180194   5.600   2.084  12.585 -2.5693  1.8845  0.7953
19593TIP3    H280195   5.618   2.224  12.638 -0.3644  0.7053  3.3794
19594TIP3   OH280196   2.466   5.597   2.560  0.4141  0.2117 -0.7447
19594TIP3    H180197   2.376   5.611   2.589  1.7049  1.8040  3.2480
19594TIP3    H280198   2.500   5.685   2.542  1.8802 -0.0364  0.5405
19595TIP3   OH280199   5.628   5.222   4.809 -0.0658  0.3636 -0.4997
19595TIP3    H180200   5.604   5.172   4.886  0.0724 -1.2489 -1.4621
19595TIP3    H280201   5.544   5.254   4.773 -0.2455 -0.0428 -0.4417
19596TIP3   OH280202   4.853   4.290  16.884  0.4946 -0.0038  0.0390
19596TIP3    H180203   4.781   4.330  16.933 -0.9927  0.2574 -2.1980
19596TIP3    H280204   4.880   4.216  16.937 -0.3885  0.8002  1.6694
19597TIP3   OH280205   5.623   0.599   4.845 -0.5516 -0.2175 -0.2448
19597TIP3    H180206   5.680   0.560   4.911 -1.5488 -2.6508 -0.7181
19597TIP3    H280207   5.680   0.659   4.797  0.7787 -0.1875  1.2835
19598TIP3   OH280208   6.616   1.420   1.847  0.1067 -0.1482  0.5219
19598TIP3    H180209   6.580   1.451   1.930 -1.7568  0.8477 -0.5764
19598TIP3    H280210   6.558   1.348   1.821 -0.6095  0.8681 -0.8388
19599TIP3   OH280211   5.979   5.934   2.979  0.1148 -0.5540  0.3043
19599TIP3    H180212   6.020   5.957   2.895  1.5513 -0.9291  0.8716
19599TIP3    H280213   5.892   5.903   2.955 -0.4060  1.6171 -0.8334
19600TIP3   OH280214   0.174   3.228   3.015  0.4935  0.2202 -0.0175
19600TIP3    H180215   0.105   3.168   2.986 -0.8836  2.1415 -1.0080
19600TIP3    H280216   0.255   3.187   2.986 -0.5161 -0.2943 -2.3859
19601TIP3   OH280217   5.339   2.420   5.600 -0.1965  0.0288 -0.0877
19601TIP3    H180218   5.278   2.348   5.616  0.3709 -0.5954 -0.6699
19601TIP3    H280219   5.285   2.499   5.608 -1.2654 -0.5401 -1.3218
19602TIP3   OH280220   4.684   5.702   3.171  0.1887 -0.5088  0.2401
19602TIP3    H180221   4.692   5.610   3.145 -2.0727 -0.9751  1.0091
19602TIP3    H280222   4.627   5.741   3.106 -0.6765 -0.2193  1.1513
19603TIP3   OH280223   1.220   1.504   1.513  0.0781  0.3275  0.3245
19603TIP3    H180224   1.288   1.490   1.580  0.8864  1.6530 -0.1822
19603TIP3    H280225   1.145   1.536   1.562 -0.3654 -1.5437  0.9466
19604TIP3   OH280226   3.920   2.538  16.187 -0.5005  0.1098  0.0592
19604TIP3    H180227   3.847   2.498  16.140 -0.5627  0.4442 -0.1335
19604TIP3    H280228   3.928   2.626  16.149 -0.4590  0.3329  0.5803
19605TIP3   OH280229   6.111   2.079  13.837 -0.2071  0.2126 -1.0909
19605TIP3    H180230   6.194   2.094  13.883 -0.9516 -0.2996  0.5078
19605TIP3    H280231   6.102   1.984  13.834 -0.5469  0.2577 -1.6122
19606TIP3   OH280232   1.508   3.069  15.395  0.2100  0.3850 -0.9170
19606TIP3    H180233   1.519   3.040  15.304  1.0197 -1.9335 -0.1651
19606TIP3    H280234   1.579   3.133  15.409  0.6062  0.1218 -1.6779
19607TIP3   OH280235   5.759   1.578  11.446 -1.1221  0.5818  0.2899
19607TIP3    H180236   5.799   1.575  11.359  1.3859  0.1926  1.3740
19607TIP3    H280237   5.692   1.646  11.439 -1.7059 -0.1432 -2.1984
19608TIP3   OH280238   2.296   4.217   5.104  0.4023 -0.6221  0.0045
19608TIP3    H180239   2.326   4.283   5.041 -0.0466  0.0307  0.4536
19608TIP3    H280240   2.353   4.141   5.089  0.4242 -0.4170 -1.0588
19609TIP3   OH280241   4.460   1.850  16.709  0.4627 -0.8154  0.6091
19609TIP3    H180242   4.509   1.909  16.652 -0.8734 -0.7418 -0.5158
19609TIP3    H280243   4.462   1.892  16.795  0.3386  0.3829  0.0409
19610TIP3   OH280244   5.588   2.778  13.281  0.1698  0.3251  0.8872
19610TIP3    H180245   5.603   2.810  13.370 -0.5868  0.5002  0.9625
19610TIP3    H280246   5.595   2.856  13.226  0.8579  0.1787  0.7645
19611TIP3   OH280247   4.417   0.114   5.952 -0.0113  0.0385 -0.3854
19611TIP3    H180248   4.433   0.103   6.046 -0.5088  0.0454 -0.2963
19611TIP3    H280249   4.419   0.025   5.917  0.3714  0.0520 -0.4041
19612TIP3   OH280250   0.304   4.851  14.407 -0.2989 -0.1369  0.3270
19612TIP3    H180251   0.386   4.884  14.371 -0.0465 -0.5292  0.5373
19612TIP3    H280252   0.239   4.918  14.385 -0.3227 -0.7217 -1.5312
19613TIP3   OH280253   2.766   4.558  14.861  0.5776 -0.3147  0.3328
19613TIP3    H180254   2.721   4.560  14.776  0.3581  0.6562  0.4686
19613TIP3    H280255   2.697   4.572  14.925  0.6007 -1.8948  0.7591
19614TIP3   OH280256   5.079   1.854  15.702  0.0477 -0.0953 -0.0241
19614TIP3    H180257   5.149   1.799  15.738 -0.5616  0.2539  1.8010
19614TIP3    H280258   5.052   1.909  15.776 -1.7435  0.1835 -0.8433
19615TIP3   OH280259   3.971   4.598  13.517 -0.3023  0.2946 -0.2809
19615TIP3    H180260   3.897   4.577  13.574 -0.4439  0.0885 -0.5366
19615TIP3    H280261   4.005   4.680  13.552 -0.5786  0.3303 -0.0863
19616TIP3   OH280262   3.191   6.021   3.972  0.3576  0.5310 -0.4079
19616TIP3    H180263   3.161   5.977   4.051 -0.3668 -0.6168 -1.2870
19616TIP3    H280264   3.208   6.111   3.999 -6.4852  2.2940 -0.2486
19617TIP3   OH280265   3.225   3.186   6.018 -0.2457  0.0128 -0.2451
19617TIP3    H180266   3.274   3.177   6.099 -0.3560  0.2449 -0.1517
19617TIP3    H280267   3.286   3.226   5.956 -0.5338  0.9789  0.0825
19618TIP3   OH280268   1.006   2.568   3.053  0.2976 -0.4025 -0.3617
19618TIP3    H180269   1.026   2.502   2.986  1.0352 -0.3125 -0.2369
19618TIP3    H280270   1.042   2.532   3.134 -1.8672 -1.1920  0.3161
19619TIP3   OH280271   0.952   4.972  16.434 -0.1673 -0.3655  0.3002
19619TIP3    H180272   0.959   4.877  16.421  0.3496 -0.0945 -1.7812
19619TIP3    H280273   0.880   4.998  16.376 -1.0217  0.3946  1.6642
19620TIP3   OH280274   1.130   4.438  12.169 -0.3059  0.7719 -0.6431
19620TIP3    H180275   1.172   4.352  12.167 -2.2319 -0.3894  2.1997
19620TIP3    H280276   1.160   4.478  12.250 -3.3037  0.5050  0.7318
19621TIP3   OH280277   0.275   6.076   1.617  0.3476  0.1893  0.1579
19621TIP3    H180278   0.211   6.119   1.674 -1.5266 -1.0773 -0.9063
19621TIP3    H280279   0.324   6.019   1.676  0.4499  1.0845  0.9698
19622TIP3   OH280280   3.504   2.637  15.768  0.2244  0.1298  0.2936
19622TIP3    H180281   3.444   2.616  15.839  0.4418  0.2753  0.5243
19622TIP3    H280282   3.546   2.554  15.746  0.4236  0.1511  0.5881
19623TIP3   OH280283   4.736   2.751  16.585 -0.3613 -0.5800  0.2290
19623TIP3    H180284   4.785   2.754  16.503  0.2396  2.1424  0.5780
19623TIP3    H280285   4.782   2.687  16.639  2.3577  1.1887  0.1998
19624TIP3   OH280286   5.699   1.941  12.959 -0.3290 -0.7869 -0.1739
19624TIP3    H180287   5.756   1.906  12.890  0.2722 -0.3785  0.1020
19624TIP3    H280288   5.714   1.882  13.033  0.4022 -0.1736  0.1734
19625TIP3   OH280289   4.343   6.224  11.681  0.1083 -0.1941  0.2937
19625TIP3    H180290   4.300   6.266  11.606 -0.3493  1.1466  1.2642
19625TIP3    H280291   4.434   6.251  11.675  0.3261 -1.0350 -0.4002
19626TIP3   OH280292   2.903   0.608  11.652  0.0425  0.2304  0.4896
19626TIP3    H180293   2.956   0.529  11.663  1.5964  1.2867  1.0073
19626TIP3    H280294   2.966   0.675  11.624 -1.6088  0.7588 -2.4099
19627TIP3   OH280295   0.209   5.452  14.208  0.0191  0.9366  0.4304
19627TIP3    H180296   0.133   5.469  14.263 -0.0595 -2.0788  1.4617
19627TIP3    H280297   0.216   5.528  14.150 -4.0982  1.1022 -0.0978
19628TIP3   OH280298   4.851   3.284   5.922 -0.1432  0.2791  0.6150
19628TIP3    H180299   4.863   3.353   5.987  1.3305 -0.2603  0.9603
19628TIP3    H280300   4.825   3.207   5.972 -1.3001  0.4257  0.2820
19629TIP3   OH280301   0.879   3.513  17.167  0.2036 -0.0082  0.7410
19629TIP3    H180302   0.799   3.463  17.179 -0.9539  1.5980  0.1874
19629TIP3    H280303   0.890   3.561  17.249 -1.6503  2.6922 -0.4100
19630TIP3   OH280304   3.091   4.275  12.247 -1.1151  0.1367  0.0857
19630TIP3    H180305   3.141   4.280  12.166  0.6511  0.3728  1.1288
19630TIP3    H280306   3.006   4.241  12.221  0.1575 -2.0361 -1.5727
19631TIP3   OH280307   3.211   2.352   3.152 -0.1324 -0.4475  0.3192
19631TIP3    H180308   3.216   2.406   3.073 -0.7255 -3.5319 -2.0130
19631TIP3    H280309   3.127   2.373   3.192 -0.5951 -0.0592 -0.8467
19632TIP3   OH280310   4.405   6.533  13.956 -0.2471 -1.0480  0.2801
19632TIP3    H180311   4.334   6.585  13.919 -1.0742 -1.7419  0.8416
19632TIP3    H280312   4.437   6.585  14.030 -1.3419 -1.4969  1.0888
19633TIP3   OH280313   5.571   2.959   5.278  0.4147 -0.3245  0.3348
19633TIP3    H180314   5.550   2.958   5.372  1.1243  1.6883  0.5622
19633TIP3    H280315   5.548   2.871   5.248 -0.1254 -0.9276  2.3237
19634TIP3   OH280316   6.295   1.319   1.074 -0.2375 -0.2967  0.5059
19634TIP3    H180317   6.227   1.288   1.015  0.2411 -1.0097  0.3081
19634TIP3    H280318   6.374   1.323   1.019  0.2682 -1.1984  1.1411
19635TIP3   OH280319   2.247   4.858  14.708  0.1976  0.0643  0.2568
19635TIP3    H180320   2.254   4.911  14.628  1.0160  0.2987  0.4727
19635TIP3    H280321   2.189   4.909  14.765 -1.1584 -0.5507 -0.5223
19636TIP3   OH280322   6.601   0.734   2.706  0.2463  0.6316  0.4157
19636TIP3    H180323   6.637   0.661   2.655 -2.0652  0.3316 -0.9035
19636TIP3    H280324   6.596   0.700   2.795  1.5071  0.0789  0.2990
19637TIP3   OH280325   2.692   5.030   4.143  0.1755 -0.1343  0.3956
19637TIP3    H180326   2.753   5.051   4.214  0.7934  1.4387 -0.5588
19637TIP3    H280327   2.747   5.023   4.065 -0.5198 -1.6388  0.0088
19638TIP3   OH280328   2.451   3.145   5.278  0.4362  0.3071 -0.1489
19638TIP3    H180329   2.479   3.129   5.188  2.0175 -0.6010  0.4785
19638TIP3    H280330   2.527   3.185   5.321  0.7967 -2.0102  1.5417
19639TIP3   OH280331   5.255   2.984   5.442  0.9055  0.3527  0.0264
19639TIP3    H180332   5.237   2.898   5.404  1.5397  0.7450 -1.2338
19639TIP3    H280333   5.323   2.967   5.508  1.7389  0.0071 -0.8947
19640TIP3   OH280334   2.058   3.672   4.059 -0.1246  0.2159  0.3509
19640TIP3    H180335   2.069   3.766   4.071 -0.2185  0.2324  0.3034
19640TIP3    H280336   2.076   3.657   3.966 -2.6491  0.5583 -0.2782
19641TIP3   OH280337   3.206   6.636  14.643  0.0241 -0.1587 -0.4300
19641TIP3    H180338   3.114   6.654  14.658  0.5235  1.4282  0.9544
19641TIP3    H280339   3.246   6.721  14.627  1.6669 -0.4885  1.4982
19642TIP3   OH280340   6.202   3.471  12.488  0.3638  0.5839  0.4208
19642TIP3    H180341   6.253   3.528  12.545  1.0437 -1.4282  1.9549
19642TIP3    H280342   6.135   3.433  12.546  0.5964 -0.9549 -0.2682
19643TIP3   OH280343   6.316   2.031  16.494 -0.0629 -0.1915  0.5893
19643TIP3    H180344   6.312   1.953  16.550 -1.5413 -0.4794  0.1263
19643TIP3    H280345   6.383   2.011  16.429  0.3101 -0.6338  1.1004
19644TIP3   OH280346   3.026   6.614   5.838 -0.1398  0.3654  0.3541
19644TIP3    H180347   3.109   6.602   5.791  0.2551 -1.6027  1.4384
19644TIP3    H280348   2.963   6.634   5.770  0.5456 -1.7160 -0.9956
19645TIP3   OH280349   3.043   4.637   0.806  0.4689 -0.1240 -0.4045
19645TIP3    H180350   3.076   4.711   0.755  1.1554  0.7843  1.2727
19645TIP3    H280351   2.955   4.622   0.772  0.0743  1.8794 -0.3933
19646TIP3   OH280352   6.115   4.479   2.291  0.5567  0.2151 -0.1822
19646TIP3    H180353   6.139   4.487   2.384  1.8239 -0.7224 -0.3952
19646TIP3    H280354   6.022   4.501   2.288  0.1440 -1.0845  1.5263
19647TIP3   OH280355   3.199   5.990   6.392  0.1193 -0.5533 -0.0001
19647TIP3    H180356   3.239   5.974   6.477 -2.2463 -0.5546  1.2131
19647TIP3    H280357   3.150   6.072   6.403  0.1137 -0.3281 -1.4891
19648TIP3   OH280358   4.346   3.836  15.235  0.2819  0.9509 -0.1044
19648TIP3    H180359   4.321   3.747  15.257 -0.4083  1.0263 -0.5473
19648TIP3    H280360   4.386   3.871  15.315 -0.9020  0.7622  0.5867
19649TIP3   OH280361   3.650   0.159   2.314 -0.6254  0.0880 -0.1844
19649TIP3    H180362   3.604   0.235   2.277 -1.0278  0.5288  1.1641
19649TIP3    H280363   3.732   0.196   2.347 -0.0139 -0.4045 -1.0986
19650TIP3   OH280364   3.039   2.532   3.929 -0.2297 -0.3242  0.5644
19650TIP3    H180365   3.024   2.449   3.975 -2.5176 -0.9105 -1.0394
19650TIP3    H280366   3.014   2.514   3.838  3.5758  0.9202 -0.9200
19651TIP3   OH280367   2.823   0.050  11.801  0.0262  1.0608 -0.0572
19651TIP3    H180368   2.763   0.123  11.784 -0.8808  0.8275  1.8844
19651TIP3    H280369   2.809   0.029  11.893  0.2977 -1.5465 -0.5496
19652TIP3   OH280370   2.752   0.096  12.060  0.7141  0.7508  0.2257
19652TIP3    H180371   2.801   0.147  12.125  0.6294 -1.6595  2.3642
19652TIP3    H280372   2.661   0.101  12.090  0.5985  0.0092  0.0048
19653TIP3   OH280373   6.108   2.649   3.245 -1.1362  0.0045  0.4062
19653TIP3    H180374   6.037   2.613   3.192  0.4148 -2.4033 -0.1679
19653TIP3    H280375   6.098   2.607   3.330 -0.2278 -0.5930  0.2264
19654TIP3   OH280376   1.050   0.119   4.777  0.1997  0.6590 -0.4054
19654TIP3    H180377   1.121   0.068   4.738 -0.1928  1.1507 -1.8323
19654TIP3    H280378   1.075   0.210   4.761  0.1703  0.8982  0.8062
19655TIP3   OH280379   5.273   3.270   0.674  0.1513 -0.2285  1.1929
19655TIP3    H180380   5.351   3.318   0.701  0.2349  0.9366 -0.9170
19655TIP3    H280381   5.207   3.338   0.656 -0.6513 -1.0605  0.8882
19656TIP3   OH280382   2.985   0.758   0.553  0.0136  0.1981  0.5049
19656TIP3    H180383   3.030   0.715   0.480 -0.2086  0.1098  0.4184
19656TIP3    H280384   2.957   0.685   0.609  0.0389  0.2562  0.5918
19657TIP3   OH280385   0.852   0.973  16.906 -0.5345 -0.2120  0.1179
19657TIP3    H180386   0.781   0.986  16.969 -0.8252 -1.4847  0.0906
19657TIP3    H280387   0.879   1.061  16.881 -0.4877  0.3269  1.9376
19658TIP3   OH280388   4.250   6.074   0.044  0.3246 -0.4482 -0.6266
19658TIP3    H180389   4.306   6.046   0.117 -0.7936 -1.1966 -0.0285
19658TIP3    H280390   4.276   6.165   0.028 -0.4576  0.2727  1.7662
19659TIP3   OH280391   3.769   2.615   0.959 -0.1428 -0.2593  0.5655
19659TIP3    H180392   3.854   2.638   0.997 -0.1866 -0.7225  0.9491
19659TIP3    H280393   3.705   2.637   1.026 -0.0267 -3.5421  1.9106
19660TIP3   OH280394   4.428   2.315   0.473  0.3168  0.5378 -0.5321
19660TIP3    H180395   4.519   2.284   0.476  0.2649  0.4255  0.0196
19660TIP3    H280396   4.379   2.244   0.432 -0.3506 -1.5992  3.4561
19661TIP3   OH280397   2.765   4.643  11.248  0.9573  0.1941 -0.2933
19661TIP3    H180398   2.788   4.684  11.332 -4.0645  1.7431  0.6767
19661TIP3    H280399   2.780   4.711  11.183  1.4994  0.2156 -0.1554
19662TIP3   OH280400   4.778   4.599   5.688 -0.5624  0.2333  0.2815
19662TIP3    H180401   4.707   4.573   5.630  0.6352 -0.7012 -0.7867
19662TIP3    H280402   4.818   4.675   5.645 -0.3428  0.2062  0.4361
19663TIP3   OH280403   4.978   3.546   4.722 -0.0521 -0.4355  0.5884
19663TIP3    H180404   5.035   3.567   4.796 -1.0264  0.3032  1.1523
19663TIP3    H280405   5.000   3.456   4.699  1.1213 -0.2600  0.9815
19664TIP3   OH280406   4.439   3.957   1.022 -0.7628  0.2230 -0.4778
19664TIP3    H180407   4.496   3.881   1.011  1.9732  1.7707  1.5556
19664TIP3    H280408   4.414   3.982   0.933  0.8208 -1.2521 -1.3863
19665TIP3   OH280409   4.800   2.348  12.378 -0.3264 -0.2621  0.6229
19665TIP3    H180410   4.725   2.289  12.371 -0.8008  0.0082  2.7722
19665TIP3    H280411   4.764   2.435  12.369 -0.0625 -0.1750  0.3759
19666TIP3   OH280412   5.296   4.272  16.747 -0.1359  0.2528 -0.4352
19666TIP3    H180413   5.371   4.274  16.687 -0.0145 -0.8149 -0.3520
19666TIP3    H280414   5.240   4.343  16.718 -1.0298 -1.3589 -3.0885
19667TIP3   OH280415   4.509   2.117  14.491 -0.1097  0.9301  0.5425
19667TIP3    H180416   4.420   2.083  14.483 -0.0811  1.0463 -0.3129
19667TIP3    H280417   4.497   2.206  14.526 -0.4898  1.7262 -1.4684
19668TIP3   OH280418   5.280   2.989  13.121 -0.2740 -0.0137  0.4775
19668TIP3    H180419   5.298   2.998  13.027 -1.1196 -1.3192  0.1626
19668TIP3    H280420   5.269   3.079  13.152 -0.5726  0.4062 -0.7930
19669TIP3   OH280421   1.740   5.564  12.019 -0.1279 -0.3712  0.1643
19669TIP3    H180422   1.771   5.637  11.965 -1.1838 -1.3611 -1.9353
19669TIP3    H280423   1.820   5.524  12.053  0.4513  2.1195  1.9736
19670TIP3   OH280424   3.000   6.254  13.459 -0.0743  0.0621 -0.6519
19670TIP3    H180425   3.060   6.268  13.533  0.2154  2.8172 -1.2827
19670TIP3    H280426   2.972   6.163  13.468  1.2877 -0.2184  1.8337
19671TIP3   OH280427   1.843   5.804  11.875  0.2976 -1.1126  0.1565
19671TIP3    H180428   1.932   5.810  11.842  0.2203 -2.1675 -0.2757
19671TIP3    H280429   1.794   5.870  11.825  0.7230 -0.8631  0.0622
19672TIP3   OH280430   6.183   2.430  14.149  0.1472 -0.1486  0.0818
19672TIP3    H180431   6.189   2.480  14.068 -0.4176 -0.2079  0.0014
19672TIP3    H280432   6.195   2.339  14.122  0.7026 -0.1062  0.1671
19673TIP3   OH280433   5.609   2.258  15.738 -0.7959  0.4753  0.1098
19673TIP3    H180434   5.546   2.285  15.671  0.3709  0.0514 -1.2053
19673TIP3    H280435   5.606   2.162  15.736  0.6815  0.4183 -0.7928
19674TIP3   OH280436   6.153   1.231  15.292 -0.2196  0.0964 -0.2230
19674TIP3    H180437   6.098   1.264  15.221 -1.5247 -1.3140  0.0613
19674TIP3    H280438   6.211   1.168  15.249  0.1824  0.5115 -0.2946
19675TIP3   OH280439   0.708   3.706   2.233  0.2589 -0.4605 -1.0077
19675TIP3    H180440   0.773   3.776   2.230  1.1617 -1.2413 -0.2833
19675TIP3    H280441   0.687   3.690   2.141  2.7947 -1.7069 -1.4592
19676TIP3   OH280442   4.831   1.360  13.610 -0.2642 -0.5017 -1.0513
19676TIP3    H180443   4.750   1.315  13.632  1.1338 -2.5038  0.2934
19676TIP3    H280444   4.866   1.389  13.694  1.0081 -0.7266 -1.4878
19677TIP3   OH280445   4.214   3.759   2.815  0.0236  0.6678 -0.2819
19677TIP3    H180446   4.210   3.793   2.726  0.1145 -0.8362 -0.8861
19677TIP3    H280447   4.306   3.767   2.840 -0.4014  3.7831  0.8454
19678TIP3   OH280448   1.680   4.693   6.412  0.3181 -0.3690  0.2542
19678TIP3    H180449   1.773   4.701   6.388 -0.5131  1.9806 -2.9045
19678TIP3    H280450   1.673   4.741   6.495  1.9593 -0.9888  0.8002
19679TIP3   OH280451   4.626   5.623  10.773  0.2935  0.6198  0.3826
19679TIP3    H180452   4.621   5.715  10.747 -1.1378  0.4565 -0.0001
19679TIP3    H280453   4.535   5.594  10.777  0.7124 -0.7427  0.6633
19680TIP3   OH280454   1.223   0.387  16.042 -0.0485  0.1664 -0.0014
19680TIP3    H180455   1.187   0.390  15.954 -2.8793 -1.3824  0.9899
19680TIP3    H280456   1.186   0.308  16.081  2.1219  0.1146  2.1969
19681TIP3   OH280457   5.663   5.061   4.589  0.1380 -0.0650 -0.4489
19681TIP3    H180458   5.578   5.018   4.573 -0.0609  0.8222 -1.9807
19681TIP3    H280459   5.649   5.112   4.669 -0.6976 -0.1226 -0.5457
19682TIP3   OH280460   6.460   3.355  15.371 -0.3378 -0.0380 -0.1838
19682TIP3    H180461   6.407   3.330  15.295 -0.6158  0.3771 -0.1295
19682TIP3    H280462   6.549   3.363  15.336 -0.5495  0.6557 -0.5809
19683TIP3   OH280463   0.213   2.316   3.250 -0.0481  0.5599  0.5374
19683TIP3    H180464   0.255   2.347   3.170  0.1354 -0.0539  0.3913
19683TIP3    H280465   0.119   2.317   3.231  0.0081  0.1783  0.2223
19684TIP3   OH280466   3.801   4.425   3.375  0.2094  0.6375 -0.1274
19684TIP3    H180467   3.769   4.390   3.458  1.4653 -1.2887 -0.4081
19684TIP3    H280468   3.831   4.349   3.326  0.0099  1.7846 -2.1564
19685TIP3   OH280469   1.232   1.828  15.854  0.0804  0.1508 -0.0931
19685TIP3    H180470   1.240   1.733  15.847  2.6642  0.2555  0.5446
19685TIP3    H280471   1.163   1.850  15.791  0.0045 -2.0391 -0.8838
19686TIP3   OH280472   4.972   3.440  11.427 -0.3076 -0.2211 -0.0972
19686TIP3    H180473   4.952   3.349  11.407  0.7279 -0.6206  0.5644
19686TIP3    H280474   4.958   3.486  11.345 -2.0242 -0.7491 -0.1368
19687TIP3   OH280475   1.694   3.108  11.855 -0.3478  0.3524  0.6710
19687TIP3    H180476   1.756   3.039  11.877 -0.1210  0.4958  0.4968
19687TIP3    H280477   1.741   3.189  11.873  1.2055  0.6309 -3.4605
19688TIP3   OH280478   1.306   0.658   4.138 -0.1102  0.0127 -0.0559
19688TIP3    H180479   1.243   0.616   4.079 -0.6858 -0.2261  0.7159
19688TIP3    H280480   1.326   0.591   4.204  0.6086  0.2428 -0.0265
19689TIP3   OH280481   4.315   4.328   2.950  0.4259 -0.0038  0.5543
19689TIP3    H180482   4.355   4.350   3.034 -0.1753  1.4117  0.4980
19689TIP3    H280483   4.304   4.412   2.906 -0.2386 -0.6240 -0.5082
19690TIP3   OH280484   2.757   3.504  12.841 -0.2490 -0.0950  0.3070
19690TIP3    H180485   2.757   3.483  12.748 -1.4432 -1.3482  0.5556
19690TIP3    H280486   2.705   3.434  12.881  0.6794  0.1312  1.9816
19691TIP3   OH280487   2.290   5.239   5.479 -0.1400 -0.3269 -0.5465
19691TIP3    H180488   2.281   5.145   5.496 -2.5512 -0.2800 -1.1937
19691TIP3    H280489   2.304   5.244   5.384  0.0901 -0.0193 -0.4976
19692TIP3   OH280490   2.038   0.150   3.678  0.2108  0.2544 -0.2073
19692TIP3    H180491   2.132   0.165   3.678 -0.0408  2.1069  0.8014
19692TIP3    H280492   2.009   0.182   3.764 -1.5372  1.0841 -1.0661
19693TIP3   OH280493   4.980   3.589   6.348 -0.2194  0.3574  0.2780
19693TIP3    H180494   5.048   3.562   6.409  0.1238 -0.2305 -0.3549
19693TIP3    H280495   4.925   3.649   6.399  0.3585  0.2904  1.0022
19694TIP3   OH280496   2.890   6.596  11.107  0.3035 -0.3660 -0.0823
19694TIP3    H180497   2.864   6.506  11.089 -0.6360 -0.0819 -0.2136
19694TIP3    H280498   2.821   6.649  11.067  0.2746  0.3831  0.9244
19695TIP3   OH280499   1.533   6.507  11.255 -0.4572  0.1384 -0.1997
19695TIP3    H180500   1.624   6.492  11.279 -1.0072  0.7444  2.5748
19695TIP3    H280501   1.536   6.580  11.193  0.8879  0.8536  0.6673
19696TIP3   OH280502   4.969   4.141   2.479  0.1662  0.4024 -0.0004
19696TIP3    H180503   4.977   4.056   2.436  0.5047  0.1910  0.4692
19696TIP3    H280504   4.964   4.204   2.408  1.3339  0.1191 -0.3502
19697TIP3   OH280505   0.146   4.371  12.473  0.3770 -0.3249 -0.2621
19697TIP3    H180506   0.230   4.390  12.432  0.1246 -0.6906 -0.9649
19697TIP3    H280507   0.082   4.378  12.401 -0.3140  0.8333  0.4358
19698TIP3   OH280508   2.493   0.235  13.509 -0.5614 -0.0469 -0.0951
19698TIP3    H180509   2.565   0.185  13.548 -0.5187  1.3015  1.6956
19698TIP3    H280510   2.432   0.249  13.581 -0.7039  2.1781 -0.5691
19699TIP3   OH280511   3.044   6.526  13.782 -0.2995 -0.0620  0.1857
19699TIP3    H180512   3.102   6.548  13.855  0.8765  0.3757 -0.8621
19699TIP3    H280513   3.070   6.438  13.756 -1.6285 -0.7797  1.1184
19700TIP3   OH280514   5.315   0.914   2.419  0.4564 -0.0219  0.3531
19700TIP3    H180515   5.398   0.938   2.380  0.9098 -0.3780  1.0732
19700TIP3    H280516   5.338   0.878   2.505 -0.4248 -0.2643  0.5022
19701TIP3   OH280517   0.024   1.823  11.632 -0.0986 -0.1173 -0.1897
19701TIP3    H180518   0.024   1.830  11.537  1.4545  1.2161 -0.1420
19701TIP3    H280519   0.030   1.729  11.650 -1.4828 -0.4507 -1.3695
19702TIP3   OH280520   4.246   4.470   1.369 -0.5721  0.0153 -0.5527
19702TIP3    H180521   4.202   4.467   1.285 -0.5755 -2.6911 -0.5547
19702TIP3    H280522   4.177   4.484   1.433 -0.6318  1.5696 -0.9215
19703TIP3   OH280523   6.333   3.532   3.791 -0.3166  0.0017 -0.6671
19703TIP3    H180524   6.284   3.594   3.737 -1.7113 -0.1212  0.3984
19703TIP3    H280525   6.280   3.523   3.870  1.3612 -0.2877  0.4626
19704TIP3   OH280526   1.599   1.946   2.118  0.2495  0.1079 -0.3835
19704TIP3    H180527   1.626   2.027   2.075  2.0155  0.0319  0.4939
19704TIP3    H280528   1.546   1.975   2.192  2.3579  0.6594  1.0147
19705TIP3   OH280529   4.956   6.623   4.143  0.6610  0.5830  0.8970
19705TIP3    H180530   5.009   6.635   4.222  0.0194  1.2451  1.2400
19705TIP3    H280531   4.901   6.701   4.139  0.5049  0.4381 -0.0740
19706TIP3   OH280532   1.088   1.421  17.045 -0.3234  0.2602  0.7021
19706TIP3    H180533   1.166   1.409  17.100  2.1461 -0.6124 -2.6326
19706TIP3    H280534   1.108   1.498  16.992 -1.2557 -0.5345 -0.8841
19707TIP3   OH280535   2.498   1.721  14.046  0.4922  0.8412  0.5567
19707TIP3    H180536   2.497   1.783  13.973  0.7311 -0.3902 -0.5369
19707TIP3    H280537   2.410   1.728  14.084  0.4202  1.6243  0.2721
19708TIP3   OH280538   1.259   2.014  11.858  0.7087 -0.1736 -0.3922
19708TIP3    H180539   1.306   2.014  11.775  1.5400  0.1680  0.0663
19708TIP3    H280540   1.224   1.925  11.867  0.5303 -0.1856 -1.1406
19709TIP3   OH280541   5.969   6.619   0.988  0.1490 -0.4311  0.5847
19709TIP3    H180542   5.886   6.572   1.000 -0.6627  1.5073  3.5700
19709TIP3    H280543   5.981   6.621   0.893 -1.5635 -3.4586  0.1560
19710TIP3   OH280544   1.853   5.496   4.864  0.3925 -0.6619  0.2949
19710TIP3    H180545   1.877   5.527   4.951  0.2080  0.9043 -0.1929
19710TIP3    H280546   1.936   5.475   4.822  0.5940  0.1935  0.2626
19711TIP3   OH280547   4.212   5.912   4.370 -0.0885  0.2562 -0.9393
19711TIP3    H180548   4.262   5.991   4.351  0.2156 -0.2679 -2.4567
19711TIP3    H280549   4.261   5.841   4.327 -0.0417 -0.8624  0.8736
19712TIP3   OH280550   0.900   5.747  12.663 -0.2083 -0.0557  0.1510
19712TIP3    H180551   0.943   5.801  12.730  0.1176 -0.7247  0.4841
19712TIP3    H280552   0.970   5.717  12.606 -0.4635  0.3555 -0.3963
19713TIP3   OH280553   5.542   2.817  12.820 -0.2081 -0.3496  0.1901
19713TIP3    H180554   5.488   2.767  12.881  0.2804 -1.9054 -0.5987
19713TIP3    H280555   5.509   2.793  12.733  0.5168  0.1537 -0.2381
19714TIP3   OH280556   6.309   4.732   3.200 -0.3031 -0.5583 -0.2178
19714TIP3    H180557   6.251   4.718   3.275 -0.5877  1.7081  0.0663
19714TIP3    H280558   6.272   4.809   3.156  1.3062 -0.3287 -1.2264
19715TIP3   OH280559   4.567   4.096  16.687  0.0305  0.5131  0.3089
19715TIP3    H180560   4.596   4.027  16.747 -1.0930  0.9400  1.3861
19715TIP3    H280561   4.512   4.051  16.624  1.4453  0.0131 -0.6038
19716TIP3   OH280562   0.817   4.650  16.575  0.0402 -0.4737  0.2153
19716TIP3    H180563   0.813   4.582  16.642 -0.9077 -0.1845  0.4744
19716TIP3    H280564   0.883   4.620  16.513 -0.1969 -1.5122  0.4524
19717TIP3   OH280565   0.294   2.159   5.409  0.0296 -0.2425 -0.0206
19717TIP3    H180566   0.305   2.084   5.467  0.0945 -0.8860 -0.8519
19717TIP3    H280567   0.209   2.146   5.368  0.5543 -0.4952 -1.0574
19718TIP3   OH280568   2.519   3.772   5.211  0.6113 -0.1202  0.0008
19718TIP3    H180569   2.483   3.834   5.147  1.0454 -0.1630 -0.2855
19718TIP3    H280570   2.472   3.691   5.195  0.3808  0.0014  0.0565
19719TIP3   OH280571   0.847   6.313  14.453  0.3020 -0.4098 -0.5872
19719TIP3    H180572   0.898   6.234  14.473  1.0356 -0.5421 -2.7714
19719TIP3    H280573   0.763   6.279  14.421 -0.2437 -0.2249  0.5800
19720TIP3   OH280574   3.779   5.371   5.692 -0.3027 -0.0465  0.4287
19720TIP3    H180575   3.704   5.429   5.705  0.6744  0.8006  2.9994
19720TIP3    H280576   3.853   5.430   5.676  1.0265 -0.2347  4.6834
19721TIP3   OH280577   4.330   4.976  12.327  0.0811  0.2384  0.4342
19721TIP3    H180578   4.418   4.939  12.333 -0.4619 -1.1554  0.1216
19721TIP3    H280579   4.339   5.063  12.366  1.3776 -0.2567  1.3399
19722TIP3   OH280580   2.477   3.455  16.044  0.3573 -0.9622 -0.5946
19722TIP3    H180581   2.568   3.452  16.013  0.4040  0.5181 -0.7049
19722TIP3    H280582   2.470   3.382  16.106  2.1257 -0.1492  0.6724
19723TIP3   OH280583   5.296   1.105   1.576  0.1062  0.3683  0.6668
19723TIP3    H180584   5.226   1.170   1.576  0.0354  0.4017  3.1665
19723TIP3    H280585   5.377   1.156   1.580  0.1656  0.3167  0.1403
19724TIP3   OH280586   4.445   2.606   5.886  0.7500  0.5691  0.4119
19724TIP3    H180587   4.397   2.571   5.811  0.0454  1.0556  0.6230
19724TIP3    H280588   4.419   2.550   5.959  1.2567  0.2413  0.3525
19725TIP3   OH280589   5.329   2.055  14.173 -0.0500  0.7225  0.6412
19725TIP3    H180590   5.323   1.968  14.134  0.0334 -0.3272  2.8242
19725TIP3    H280591   5.409   2.052  14.226 -0.4755  1.8377  1.3813
19726TIP3   OH280592   6.215   4.257   5.805 -0.3327 -0.1279 -0.2884
19726TIP3    H180593   6.187   4.208   5.882 -1.7878  1.3466  0.2024
19726TIP3    H280594   6.144   4.245   5.742 -0.6987  1.2729 -0.1695
19727TIP3   OH280595   6.055   0.795  17.266 -0.4781  0.8472 -0.2051
19727TIP3    H180596   6.057   0.848  17.187 -0.3939  1.3746  0.1486
19727TIP3    H280597   6.140   0.750  17.266 -1.1304 -0.4434 -1.2771
19728TIP3   OH280598   5.956   3.783  10.635  0.1486  0.4115  0.4102
19728TIP3    H180599   6.003   3.856  10.594  0.5265  0.8644  1.5959
19728TIP3    H280600   5.872   3.779  10.588  0.5638  0.9038 -0.3863
19729TIP3   OH280601   3.961   6.482  15.024  0.0474  0.2633 -0.0986
19729TIP3    H180602   3.961   6.412  14.959  0.0724  0.6974 -0.5741
19729TIP3    H280603   4.015   6.449  15.096 -0.4161 -0.4341 -0.0594
19730TIP3   OH280604   4.224   5.215   1.095  0.0500  0.2322 -0.1982
19730TIP3    H180605   4.213   5.261   1.178 -1.3640 -0.6815  0.1570
19730TIP3    H280606   4.284   5.270   1.045 -1.4844  2.4242  0.2292
19731TIP3   OH280607   6.608   6.665  11.116 -0.1498 -0.0492 -0.5240
19731TIP3    H180608   6.643   6.709  11.038  1.2809 -1.5758 -0.7857
19731TIP3    H280609   6.685   6.635  11.164 -1.0609 -1.4401  0.1149
19732TIP3   OH280610   6.542   2.849   0.566  0.2403  0.3954 -0.0383
19732TIP3    H180611   6.495   2.770   0.538 -1.1588  1.1975  0.0014
19732TIP3    H280612   6.554   2.899   0.485  0.1141  0.6671  0.1115
19733TIP3   OH280613   4.569   1.387  14.254  0.2500 -0.2548  0.0767
19733TIP3    H180614   4.548   1.477  14.280  0.8862 -0.3659  1.0403
19733TIP3    H280615   4.660   1.391  14.225 -0.0676 -0.3826 -0.9628
19734TIP3   OH280616   0.053   3.504   0.883 -0.0993  0.5193 -0.0092
19734TIP3    H180617   0.136   3.488   0.837 -0.2943 -0.7705  0.0339
19734TIP3    H280618   0.004   3.423   0.870 -0.7196  0.6771  1.2814
19735TIP3   OH280619   3.272   4.115   4.221 -0.1240  0.1466  0.0201
19735TIP3    H180620   3.347   4.133   4.165 -0.0265 -1.4952 -0.4303
19735TIP3    H280621   3.300   4.043   4.277 -1.4221 -0.6801 -0.3345
19736TIP3   OH280622   4.242   4.260  16.449 -0.5822 -0.3879 -0.2321
19736TIP3    H180623   4.187   4.214  16.513 -0.7134 -0.9882 -0.7692
19736TIP3    H280624   4.307   4.307  16.502 -0.7685 -0.7766  0.3456
19737TIP3   OH280625   0.016   5.327  14.648  0.2325 -0.3922  0.1801
19737TIP3    H180626   0.038   5.242  14.685 -0.9456 -1.4308 -1.3479
19737TIP3    H280627  -0.057   5.309  14.589  0.7245  1.4710 -1.1015
19738TIP3   OH280628   6.276   1.570  11.304 -0.2633  0.0852 -0.1895
19738TIP3    H180629   6.332   1.606  11.235 -1.3918 -0.3258 -1.3543
19738TIP3    H280630   6.297   1.622  11.381  0.2818  1.2587 -1.0980
19739TIP3   OH280631   1.731   6.504  13.485  0.5898  0.8008 -0.4704
19739TIP3    H180632   1.656   6.452  13.454  1.5523  0.2032 -1.9093
19739TIP3    H280633   1.740   6.480  13.577  0.7094 -1.2898 -0.9765
19740TIP3   OH280634   4.717   6.127   2.515  0.6600  0.5734  0.0702
19740TIP3    H180635   4.780   6.186   2.473  0.6872 -0.4672 -1.4087
19740TIP3    H280636   4.685   6.072   2.444  0.9634 -1.5142  1.4728
19741TIP3   OH280637   2.215   3.368  11.884  0.7224  0.4012  0.6369
19741TIP3    H180638   2.148   3.420  11.840  0.5932  1.5087  2.0594
19741TIP3    H280639   2.191   3.373  11.977  2.1930 -0.0553  1.0589
19742TIP3   OH280640   0.986   4.716   3.714  0.0289  0.1595  0.8874
19742TIP3    H180641   0.906   4.765   3.695 -0.5711 -0.7148  1.1260
19742TIP3    H280642   0.971   4.629   3.676  0.5916 -0.2313  1.5373
19743TIP3   OH280643   4.047   6.111  13.800  0.5995 -0.9041  0.4119
19743TIP3    H180644   4.088   6.167  13.735 -0.3068 -0.2351  0.3916
19743TIP3    H280645   4.033   6.169  13.875 -1.0392 -0.8745  0.1200
19744TIP3   OH280646   4.046   4.387  11.635  0.4446  0.1894 -0.1747
19744TIP3    H180647   4.002   4.458  11.588  0.9898  1.2402  0.8617
19744TIP3    H280648   4.120   4.363  11.580  1.3173  1.6863  0.3068
19745TIP3   OH280649   5.886   2.258   3.579 -0.0201  0.5999 -0.0621
19745TIP3    H180650   5.943   2.333   3.600 -0.1569  0.7310 -0.1561
19745TIP3    H280651   5.896   2.199   3.653  0.0583  0.7295  0.0318
19746TIP3   OH280652   5.014   2.492  13.959  0.3001  0.2453  0.2356
19746TIP3    H180653   5.061   2.553  13.901  1.8699 -0.7518  0.4076
19746TIP3    H280654   5.077   2.469  14.027 -0.6446 -0.6809  0.8332
19747TIP3   OH280655   6.104   0.646  14.832  0.0422 -0.6328 -0.3157
19747TIP3    H180656   6.108   0.654  14.928  0.6412  0.6746 -0.4180
19747TIP3    H280657   6.106   0.552  14.816 -0.6632 -0.9043  0.9729
19748TIP3   OH280658   2.943   5.531  16.904 -0.2866 -0.5365 -0.3185
19748TIP3    H180659   2.947   5.444  16.863  0.8819 -0.7513  0.2033
19748TIP3    H280660   2.910   5.515  16.992 -0.3096 -0.4135 -0.3040
19749TIP3   OH280661   6.485   3.767  12.892  0.1060 -0.0754  0.7298
19749TIP3    H180662   6.544   3.691  12.895  1.3235  0.8429  3.5082
19749TIP3    H280663   6.399   3.731  12.914  0.3554 -0.8841  0.4123
19750TIP3   OH280664   0.116   3.435   0.228 -0.4902 -0.1910  0.0774
19750TIP3    H180665   0.204   3.459   0.258  0.3341 -1.6599 -1.0321
19750TIP3    H280666   0.060   3.505   0.261  1.1120  0.8860  0.6606
19751TIP3   OH280667   4.698   3.126  10.909 -0.0918  0.3039  0.2368
19751TIP3    H180668   4.706   3.203  10.853  1.0516 -0.4903 -0.7623
19751TIP3    H280669   4.650   3.062  10.855  2.6098 -1.1212 -0.6499
19752TIP3   OH280670   2.001   4.129  16.830 -0.0701  0.2033  0.4395
19752TIP3    H180671   2.036   4.166  16.748 -0.4461 -0.0546  0.1596
19752TIP3    H280672   2.072   4.072  16.862  0.1447  0.4366  0.3834
19753TIP3   OH280673   0.954   0.805  17.235 -0.5474  0.5002 -0.3373
19753TIP3    H180674   0.943   0.885  17.287  1.2026  0.8398 -0.4207
19753TIP3    H280675   1.035   0.819  17.186 -2.2128  0.2818 -3.3926
19754TIP3   OH280676   0.850   5.745  14.223  0.1477  0.2673  0.7266
19754TIP3    H180677   0.845   5.668  14.167 -0.3531  0.1857  0.8709
19754TIP3    H280678   0.780   5.731  14.287 -0.0329  0.9054  0.6701
19755TIP3   OH280679   2.225   5.919  11.605  0.1410  0.3447  0.0359
19755TIP3    H180680   2.191   5.992  11.553 -0.2575  0.7265  0.8043
19755TIP3    H280681   2.305   5.954  11.644  0.3026  0.1502 -0.1289
19756TIP3   OH280682   3.938   2.409  13.810  0.2404  0.6173 -0.0185
19756TIP3    H180683   3.846   2.383  13.818 -0.0123  1.2086 -0.8970
19756TIP3    H280684   3.950   2.477  13.876 -0.4354  1.7813 -1.0649
19757TIP3   OH280685   0.384   3.725   3.103 -0.1298  0.3799  0.9056
19757TIP3    H180686   0.414   3.718   3.193  0.9351 -0.3275  0.5262
19757TIP3    H280687   0.458   3.692   3.051 -1.2341 -0.5691 -0.1370
19758TIP3   OH280688   5.330   6.466   5.561 -0.4314 -0.0334 -0.1476
19758TIP3    H180689   5.360   6.499   5.476 -1.5678 -1.9819 -1.3715
19758TIP3    H280690   5.409   6.428   5.600 -0.4744 -2.0081 -1.8097
19759TIP3   OH280691   3.694   1.060  16.616  0.6673 -0.0591 -0.2918
19759TIP3    H180692   3.769   1.093  16.666  1.5332  1.6676 -2.5805
19759TIP3    H280693   3.640   1.137  16.600 -0.3634 -0.8532 -0.7523
19760TIP3   OH280694   0.428   0.358  16.307  0.6768 -0.5798  0.2989
19760TIP3    H180695   0.454   0.447  16.330 -0.8047  0.5625 -2.0271
19760TIP3    H280696   0.386   0.324  16.386  0.6213  1.0558  1.0072
19761TIP3   OH280697   6.414   2.232   3.215 -0.2614 -0.1029 -0.4197
19761TIP3    H180698   6.430   2.138   3.211  1.6215  0.1994 -1.2832
19761TIP3    H280699   6.324   2.240   3.246 -0.1953 -2.1624  0.4723
19762TIP3   OH280700   4.378   6.260  12.789 -0.4669 -0.1443  0.0929
19762TIP3    H180701   4.396   6.186  12.731  0.0824 -1.8211  2.2400
19762TIP3    H280702   4.302   6.233  12.840  0.2202  0.3878  1.4697
19763TIP3   OH280703   2.029   4.370   4.649  0.7014 -0.1094 -0.1922
19763TIP3    H180704   1.976   4.291   4.655  1.2275 -0.4079  0.6760
19763TIP3    H280705   2.070   4.379   4.735 -0.0395  1.6151  0.0241
19764TIP3   OH280706   3.159   4.387   0.833 -0.1560  0.4148  0.4166
19764TIP3    H180707   3.090   4.332   0.871 -0.0266 -0.4247 -0.5213
19764TIP3    H280708   3.115   4.468   0.807 -0.8637 -0.2303 -0.4406
19765TIP3   OH280709   1.388   2.165  16.822 -0.3743  0.6364 -0.3983
19765TIP3    H180710   1.471   2.138  16.785 -0.1184  2.4721 -1.2650
19765TIP3    H280711   1.322   2.131  16.762 -0.2489 -0.4797  0.0790
19766TIP3   OH280712   1.682   6.101   4.738 -0.1698  0.2111 -0.0798
19766TIP3    H180713   1.647   6.101   4.649 -0.9539 -0.8846  0.2160
19766TIP3    H280714   1.750   6.033   4.737  0.0155  0.3917  0.0910
19767TIP3   OH280715   0.891   6.582   0.095 -0.4042 -0.5460  0.1688
19767TIP3    H180716   0.860   6.664   0.056  0.7735  0.0568  0.4119
19767TIP3    H280717   0.971   6.561   0.046  0.0544 -0.7959  0.9969
19768TIP3   OH280718   6.399   3.864  11.665  0.3951  0.1918  0.6564
19768TIP3    H180719   6.489   3.830  11.664 -0.4165 -2.1761  0.9183
19768TIP3    H280720   6.409   3.959  11.670  2.8690  0.1135 -1.0757
19769TIP3   OH280721   4.952   5.061  16.201 -0.0206  0.3484  0.5712
19769TIP3    H180722   4.969   4.967  16.198  2.1869  0.7157 -0.3252
19769TIP3    H280723   4.889   5.072  16.272 -0.6742 -1.8437  0.3817
19770TIP3   OH280724   4.894   1.544  14.876 -1.0469  0.3288  0.1462
19770TIP3    H180725   4.867   1.599  14.803  1.6842  1.1171 -0.3519
19770TIP3    H280726   4.940   1.471  14.836 -0.2424  0.3383  1.0269
19771TIP3   OH280727   0.889   1.226  16.566 -0.7747  0.4475  0.8459
19771TIP3    H180728   0.833   1.304  16.572 -1.7967 -0.2728  1.0282
19771TIP3    H280729   0.921   1.213  16.655 -0.6591  0.6216  0.8302
19772TIP3   OH280730   3.364   5.359  12.152 -0.2254  0.0478  0.1149
19772TIP3    H180731   3.284   5.368  12.203 -1.6438  0.3405 -2.0457
19772TIP3    H280732   3.387   5.448  12.126  0.0887 -0.1513 -0.3147
19773TIP3   OH280733   1.963   1.148  12.360  0.1988  0.0496 -0.6219
19773TIP3    H180734   1.999   1.129  12.446  0.8732  1.1209 -0.6482
19773TIP3    H280735   1.922   1.066  12.332 -1.3477  0.0839  1.3346
19774TIP3   OH280736   6.005   0.511  11.016 -0.3174  0.4513  0.0218
19774TIP3    H180737   5.954   0.522  11.097 -1.0513 -0.1372 -0.3427
19774TIP3    H280738   5.939   0.502  10.947  0.2668 -0.6941 -0.4170
19775TIP3   OH280739   3.943   5.776  12.883 -0.5040  0.0319  0.1790
19775TIP3    H180740   3.904   5.765  12.970 -0.7301  0.1469  0.0942
19775TIP3    H280741   3.873   5.815  12.831 -0.1318  0.6462  0.1372
19776TIP3   OH280742   5.455   6.257  17.228  0.6036  0.8180  0.8763
19776TIP3    H180743   5.406   6.201  17.289  0.8968  1.3399  1.6134
19776TIP3    H280744   5.388   6.307  17.182  0.3146 -0.4882 -0.1544
19777TIP3   OH280745   1.739   5.194   1.466 -0.0824  0.0677  0.6639
19777TIP3    H180746   1.830   5.169   1.452  0.2570  1.9668 -1.0019
19777TIP3    H280747   1.696   5.114   1.495  2.1830 -0.7650  1.9657
19778TIP3   OH280748   3.744   4.370  17.040 -0.4887  1.0658 -0.0877
19778TIP3    H180749   3.717   4.299  17.098 -0.7596  0.3440 -1.0763
19778TIP3    H280750   3.750   4.447  17.097  1.1183  0.0051  1.2825
19779TIP3   OH280751   1.035   5.377   0.759  0.7081  0.2418 -0.5944
19779TIP3    H180752   1.049   5.414   0.847 -1.3944  1.8461 -0.8512
19779TIP3    H280753   1.060   5.448   0.699  1.1206 -0.4609 -1.2606
19780TIP3   OH280754   0.932   4.012  13.615 -0.4242 -0.5154 -0.2884
19780TIP3    H180755   0.925   3.932  13.563 -0.2021  0.1851 -1.4196
19780TIP3    H280756   0.846   4.054  13.606  0.2895  0.6864 -1.9259
19781TIP3   OH280757   6.438   4.315   5.280  0.0704 -0.3746 -0.7073
19781TIP3    H180758   6.472   4.389   5.329 -0.6980  0.9057 -1.9999
19781TIP3    H280759   6.482   4.238   5.317  0.2029  0.6052  1.2932
19782TIP3   OH280760   6.476   1.823  11.299 -0.3505  0.1554  0.4393
19782TIP3    H180761   6.552   1.853  11.348 -1.1158  2.9533  0.1019
19782TIP3    H280762   6.507   1.746  11.252  2.2377  1.1181  0.3917
19783TIP3   OH280763   1.392   2.645  16.598  0.5083 -0.0025  0.3989
19783TIP3    H180764   1.485   2.635  16.615  0.5927  1.2008  0.7789
19783TIP3    H280765   1.387   2.715  16.532 -0.1516  0.8329  1.2933
19784TIP3   OH280766   3.301   6.377   3.451  0.1783  0.0074 -0.3029
19784TIP3    H180767   3.327   6.463   3.484 -0.1026  0.6940 -1.7738
19784TIP3    H280768   3.226   6.352   3.506  0.6565  0.4090  0.5446
19785TIP3   OH280769   3.451   1.546   4.384  0.0401  0.0386 -0.1858
19785TIP3    H180770   3.427   1.528   4.474  2.2514  1.3623  0.7389
19785TIP3    H280771   3.441   1.462   4.339 -3.2823 -0.1592  0.6707
19786TIP3   OH280772   0.968   0.853  15.724  0.0464 -0.3375  0.0983
19786TIP3    H180773   1.051   0.897  15.705  1.1863 -1.1407  2.7227
19786TIP3    H280774   0.907   0.886  15.658  2.0789  1.3423 -1.0594
19787TIP3   OH280775   4.199   0.380  14.573  0.2474  0.7751 -0.1046
19787TIP3    H180776   4.131   0.429  14.619 -0.3606 -1.2073  1.2157
19787TIP3    H280777   4.281   0.418  14.604 -0.1383 -0.3411  2.5889
19788TIP3   OH280778   3.534   3.348  14.149 -0.0777  0.3801 -0.3100
19788TIP3    H180779   3.599   3.330  14.217  0.4650 -0.2923 -0.9896
19788TIP3    H280780   3.529   3.444  14.145  0.6213  0.4350 -0.0103
19789TIP3   OH280781   6.137   0.054  15.580  0.3732  0.4577 -0.0910
19789TIP3    H180782   6.049   0.051  15.543  0.3102  0.8370  0.0208
19789TIP3    H280783   6.195   0.057  15.504  0.2272  1.7432 -0.1793
19790TIP3   OH280784   6.047   5.251  16.290 -0.6424  0.1564  0.1356
19790TIP3    H180785   5.986   5.316  16.326 -0.4306  0.7896 -0.6144
19790TIP3    H280786   6.133   5.292  16.299 -0.7078  1.1105 -2.5734
19791TIP3   OH280787   4.834   5.122  14.554  0.1371 -0.6838  0.3480
19791TIP3    H180788   4.837   5.026  14.554  0.5711 -0.6849 -1.0587
19791TIP3    H280789   4.761   5.145  14.497  1.6611 -0.1971 -1.5279
19792TIP3   OH280790   3.150   0.036  14.943  0.3825 -0.3351  0.3286
19792TIP3    H180791   3.240   0.061  14.923 -0.0934  1.7477  0.5052
19792TIP3    H280792   3.099   0.067  14.868 -0.0607 -2.7175 -0.4185
19793TIP3   OH280793   0.446   6.063   2.204 -0.2848 -0.1351  0.0847
19793TIP3    H180794   0.522   6.041   2.149  0.5915  1.4705  0.5751
19793TIP3    H280795   0.424   5.982   2.248  2.0295 -0.3670  0.9453
19794TIP3   OH280796   4.392   4.303   6.639 -0.0980  0.5370 -0.3169
19794TIP3    H180797   4.402   4.382   6.693 -0.9561 -0.6012  1.6353
19794TIP3    H280798   4.310   4.264   6.670 -0.3613 -0.4471 -2.1525
19795TIP3   OH280799   3.392   0.507  13.088  0.0697 -0.5345 -0.2119
19795TIP3    H180800   3.368   0.553  13.007  0.3367  0.8950  0.4749
19795TIP3    H280801   3.339   0.549  13.156  0.8843 -0.7245  0.5673
19796TIP3   OH280802   2.939   3.972  15.896  0.3671  0.5182 -0.3947
19796TIP3    H180803   2.970   3.910  15.830  0.1140  0.5571 -0.5502
19796TIP3    H280804   2.917   4.051  15.847 -0.2132  0.4058 -0.3140
19797TIP3   OH280805   2.695   0.486   2.898 -0.0265  0.2178 -0.0895
19797TIP3    H180806   2.678   0.559   2.957 -3.7276 -0.8224  0.3509
19797TIP3    H280807   2.648   0.509   2.817 -1.9069 -1.8941  0.3191
19798TIP3   OH280808   3.860   4.804  14.239 -0.4733  0.1174  0.7781
19798TIP3    H180809   3.875   4.863  14.164 -1.4391  1.0658  1.2963
19798TIP3    H280810   3.857   4.717  14.200  2.0726  0.2392  0.1265
19799TIP3   OH280811   5.269   3.588   0.931 -0.2380 -0.2438  0.1195
19799TIP3    H180812   5.340   3.566   0.872  0.6836  3.6771 -0.5080
19799TIP3    H280813   5.312   3.615   1.012 -0.9217  1.7632 -0.1212
19800TIP3   OH280814   1.774   4.025   3.369 -0.1556  0.2399  0.3233
19800TIP3    H180815   1.838   4.001   3.303  0.8347 -0.7658  1.6012
19800TIP3    H280816   1.793   4.116   3.389 -1.1187  0.8772 -1.4507
19801TIP3   OH280817   3.414   0.734   6.451 -0.2716 -0.1846  0.1307
19801TIP3    H180818   3.323   0.741   6.423 -0.3550  0.7195  0.5888
19801TIP3    H280819   3.447   0.824   6.445  0.9012 -0.6592 -1.0502
19802TIP3   OH280820   3.546   5.321  16.908  0.2844 -0.7336  0.8600
19802TIP3    H180821   3.463   5.281  16.881  0.6807 -0.5194 -0.7900
19802TIP3    H280822   3.573   5.372  16.831  1.0508  0.6506  2.0096
19803TIP3   OH280823   1.183   4.014   0.334 -0.4373 -0.1076 -0.1480
19803TIP3    H180824   1.105   3.958   0.333 -0.4229 -0.1624  0.7820
19803TIP3    H280825   1.190   4.043   0.425  0.3550  0.2848 -0.3279
19804TIP3   OH280826   4.961   3.557  11.157  0.3250 -0.0406 -0.0062
19804TIP3    H180827   4.944   3.649  11.138 -1.3012 -0.6717 -1.9212
19804TIP3    H280828   4.988   3.519  11.073  0.6697 -1.3772  0.6774
19805TIP3   OH280829   6.272   6.690   6.547  0.3164 -0.2500  0.4773
19805TIP3    H180830   6.269   6.674   6.453 -2.5836 -0.6645  0.5484
19805TIP3    H280831   6.284   6.603   6.586  2.1389 -0.0122  0.5373
19806TIP3   OH280832   4.450   3.325   3.797  0.4596  0.4272  0.3821
19806TIP3    H180833   4.526   3.342   3.742  0.4517  0.8627  0.5005
19806TIP3    H280834   4.390   3.398   3.778 -1.1153 -1.3054 -1.7578
19807TIP3   OH280835   4.190   2.574   1.973 -0.4706  0.0198 -0.3402
19807TIP3    H180836   4.146   2.519   1.908 -0.2349  1.3568 -1.6857
19807TIP3    H280837   4.283   2.561   1.956 -0.4150  0.9717 -0.8037
19808TIP3   OH280838   0.029   6.713   4.134  0.1970  0.0503 -0.0720
19808TIP3    H180839   0.116   6.678   4.111 -0.8132 -1.1431 -2.4686
19808TIP3    H280840  -0.010   6.644   4.188  0.0694 -0.2536 -0.5474
19809TIP3   OH280841   6.654   5.041  10.840 -0.5465 -0.5343  0.1558
19809TIP3    H180842   6.704   5.064  10.762 -1.0676 -1.7214 -0.5669
19809TIP3    H280843   6.645   4.945  10.835 -1.0355 -0.5762  1.4010
19810TIP3   OH280844   4.407   3.200   3.533  0.0155  0.0078  0.6917
19810TIP3    H180845   4.401   3.195   3.437 -1.9215 -1.7326  0.8371
19810TIP3    H280846   4.461   3.125   3.558 -2.2084 -1.5653  1.0785
19811TIP3   OH280847   0.685   0.135  16.904 -0.1034  0.1462  0.1034
19811TIP3    H180848   0.773   0.165  16.926  0.6135 -0.3474 -1.8747
19811TIP3    H280849   0.684   0.130  16.809 -1.5836 -1.8811  0.1436
19812TIP3   OH280850   1.001   5.427   1.317  0.2549  0.2163 -0.1570
19812TIP3    H180851   1.054   5.370   1.372  0.3544 -0.8764 -1.3129
19812TIP3    H280852   1.008   5.388   1.229 -3.2515 -0.6125 -0.2174
19813TIP3   OH280853   5.129   4.425   4.339 -0.4534 -0.0008  0.4699
19813TIP3    H180854   5.080   4.346   4.362 -0.5738 -0.1318 -0.2115
19813TIP3    H280855   5.216   4.412   4.377  0.0668 -1.2390 -1.0891
19814TIP3   OH280856   0.735   5.399   2.394 -0.0123  0.7818 -0.3533
19814TIP3    H180857   0.657   5.343   2.397  0.7465 -0.2709  0.6055
19814TIP3    H280858   0.774   5.380   2.309  0.2129 -0.1481 -0.0571
19815TIP3   OH280859   4.343   2.345   4.219  0.2658 -0.5294 -0.7300
19815TIP3    H180860   4.297   2.382   4.294  2.3949 -2.8702  1.9380
19815TIP3    H280861   4.327   2.407   4.148  0.0467  3.0585  2.1881
19816TIP3   OH280862   3.627   6.256   4.249  0.5983 -0.4115  0.4101
19816TIP3    H180863   3.606   6.258   4.343  0.5281 -1.4810  0.4321
19816TIP3    H280864   3.644   6.347   4.226 -0.9750  0.0871  1.1012
19817TIP3   OH280865   3.210   3.733   5.534  0.7474  0.8149 -0.3448
19817TIP3    H180866   3.176   3.647   5.560  1.4559  0.5240 -0.3795
19817TIP3    H280867   3.135   3.777   5.494  0.1696  0.5124  0.3741
19818TIP3   OH280868   1.259   2.537  13.447  0.2654 -0.4626  0.0654
19818TIP3    H180869   1.278   2.445  13.429 -0.7953 -0.5958 -0.4537
19818TIP3    H280870   1.295   2.584  13.372 -1.6414 -0.7439 -1.0762
19819TIP3   OH280871   5.562   5.092   5.634 -0.1924  0.2840 -0.1350
19819TIP3    H180872   5.648   5.083   5.593 -0.7145 -2.2648 -0.8572
19819TIP3    H280873   5.555   5.018   5.693 -1.9068  0.4017 -0.1279
19820TIP3   OH280874   2.874   3.518   2.863  0.2212 -0.7086 -0.6159
19820TIP3    H180875   2.930   3.595   2.861  2.2182 -2.0535  0.0577
19820TIP3    H280876   2.810   3.533   2.794 -0.1871  2.0292  0.2371
19821TIP3   OH280877   5.685   1.509  13.442 -0.5749 -0.0307  0.8986
19821TIP3    H180878   5.743   1.441  13.407 -0.2220  1.6797 -2.1606
19821TIP3    H280879   5.744   1.581  13.466 -1.1999  0.7061  0.2834
19822TIP3   OH280880   5.936   2.373  14.004  0.0757  0.1308  0.6085
19822TIP3    H180881   5.855   2.345  14.047 -2.1098  3.3008 -1.0202
19822TIP3    H280882   5.975   2.435  14.066  1.5314 -1.6090  1.5189
19823TIP3   OH280883   6.744   3.202  15.717  0.2913 -0.2817  0.0743
19823TIP3    H180884   6.767   3.295  15.720 -0.7746 -0.0265  0.8830
19823TIP3    H280885   6.724   3.185  15.625 -0.1029  0.4450  0.0182
19824TIP3   OH280886   2.845   0.586   0.731 -0.2850 -0.3311 -0.2219
19824TIP3    H180887   2.776   0.616   0.791 -0.4807  0.5593 -0.8781
19824TIP3    H280888   2.842   0.491   0.738 -2.0368 -0.3522 -0.7332
19825TIP3   OH280889   3.189   1.204  15.993  0.4423 -0.8121 -0.0921
19825TIP3    H180890   3.151   1.163  15.916  0.4130  0.0627 -0.5535
19825TIP3    H280891   3.236   1.133  16.037 -2.6707 -2.3040  1.2019
19826TIP3   OH280892   6.663   5.941   5.330 -0.1334  0.2927  0.0812
19826TIP3    H180893   6.659   5.992   5.249 -0.9677  0.4961  0.2329
19826TIP3    H280894   6.574   5.905   5.339 -0.1968  0.6747  1.1520
19827TIP3   OH280895   3.792   3.156  14.917  0.1305 -0.1711  0.0265
19827TIP3    H180896   3.863   3.175  14.855 -0.0427 -3.1284 -1.2260
19827TIP3    H280897   3.833   3.159  15.003  1.1004  0.8912 -0.4474
19828TIP3   OH280898   2.358   2.198   2.955 -0.3503  0.2388  0.3948
19828TIP3    H180899   2.321   2.149   2.882  0.6328  1.9009 -1.3060
19828TIP3    H280900   2.439   2.151   2.976  0.4317  0.8933 -1.0193
19829TIP3   OH280901   5.857   2.480   1.337 -0.2542 -0.3248 -0.2389
19829TIP3    H180902   5.898   2.420   1.275 -0.0124  1.9434 -2.4649
19829TIP3    H280903   5.861   2.435   1.421  2.8456 -2.0096 -1.1432
19830TIP3   OH280904   1.496   4.669   3.532 -0.2350 -0.5768 -0.8753
19830TIP3    H180905   1.415   4.651   3.579  1.5265 -0.1408  2.6643
19830TIP3    H280906   1.562   4.617   3.578  1.6779 -0.1617 -2.9897
19831TIP3   OH280907   4.199   6.432   4.346  0.7488 -0.0900 -0.1602
19831TIP3    H180908   4.248   6.360   4.385  1.0026 -0.5324 -1.2452
19831TIP3    H280909   4.173   6.486   4.420  0.9645 -1.0375  0.6386
19832TIP3   OH280910   3.115   1.864   5.155 -0.2896  0.4733  0.3470
19832TIP3    H180911   3.052   1.858   5.226  0.5442  1.6473  1.2277
19832TIP3    H280912   3.094   1.947   5.111  0.4207  0.7224  0.4565
19833TIP3   OH280913   5.702   0.384   3.880  0.2363 -0.2856 -0.1139
19833TIP3    H180914   5.666   0.380   3.969 -1.8388  0.7997 -0.8159
19833TIP3    H280915   5.725   0.294   3.859  0.2084 -0.6484  1.3087
19834TIP3   OH280916   0.960   6.584  17.074  0.6519 -0.8674 -0.5844
19834TIP3    H180917   1.055   6.580  17.063  0.5744  0.4415 -2.0397
19834TIP3    H280918   0.948   6.624  17.160  1.4032 -1.6728 -0.0900
19835TIP3   OH280919   6.546   4.182   0.519  0.5204 -0.5589 -0.1133
19835TIP3    H180920   6.573   4.121   0.587  1.2823 -1.8238 -1.4868
19835TIP3    H280921   6.457   4.155   0.497  0.6128 -0.7594 -0.2493
19836TIP3   OH280922   0.985   1.284  14.510 -0.6493  0.3519 -0.7896
19836TIP3    H180923   1.076   1.288  14.480 -1.1308  0.0875 -2.3840
19836TIP3    H280924   0.991   1.294  14.605  1.1361 -0.7428 -0.7224
19837TIP3   OH280925   0.015   0.512   4.381 -0.0385 -0.0595  0.5894
19837TIP3    H180926  -0.059   0.489   4.436 -0.1369 -0.3160  0.3487
19837TIP3    H280927   0.017   0.445   4.313 -1.3518  1.5097 -1.1043
19838TIP3   OH280928   4.132   1.884  12.634 -0.0695 -0.3682  0.1632
19838TIP3    H180929   4.141   1.958  12.693 -0.1421 -0.1955 -0.0412
19838TIP3    H280930   4.078   1.916  12.562 -0.4077 -0.7290  0.2507
19839TIP3   OH280931   3.776   2.340  12.727  0.3411 -0.2152 -0.0976
19839TIP3    H180932   3.788   2.264  12.670  0.7757 -1.2332  1.3017
19839TIP3    H280933   3.864   2.361  12.758  0.4025  1.6317 -1.3693
19840TIP3   OH280934   5.589   0.346   4.138  0.3682 -0.1090 -0.2006
19840TIP3    H180935   5.504   0.312   4.110  0.1055 -1.0937  1.6149
19840TIP3    H280936   5.569   0.396   4.217  1.1242  2.1853 -1.3760
19841TIP3   OH280937   6.653   5.641   0.544 -0.3041  0.2433 -0.3314
19841TIP3    H180938   6.562   5.613   0.548 -0.8577  1.8596 -0.7964
19841TIP3    H280939   6.649   5.735   0.526  1.4272  0.6994  1.2629
19842TIP3   OH280940   2.371   0.866  14.041 -0.4312 -0.2976  0.5740
19842TIP3    H180941   2.327   0.795  13.994 -1.6579  0.5577  0.3954
19842TIP3    H280942   2.464   0.852  14.022 -0.6567 -1.7327  0.3794
19843TIP3   OH280943   5.719   3.031   1.693 -0.3117  0.0914  0.4323
19843TIP3    H180944   5.733   3.023   1.598 -1.4041  0.2294  0.2459
19843TIP3    H280945   5.717   2.941   1.725  0.2941  0.0503  0.3682
19844TIP3   OH280946   2.525   1.368  11.306 -0.2122 -0.2905 -0.0825
19844TIP3    H180947   2.522   1.274  11.325  0.1659 -0.4692 -0.8938
19844TIP3    H280948   2.517   1.374  11.211 -1.6161  0.5778  0.0601
19845TIP3   OH280949   4.143   3.649  14.540  0.3038 -0.1596 -0.9936
19845TIP3    H180950   4.184   3.564  14.557  1.2493 -0.0255 -2.3657
19845TIP3    H280951   4.159   3.664  14.446 -2.5761  0.1012 -1.5298
19846TIP3   OH280952   6.385   3.427   3.233 -0.2875 -0.0131  0.1197
19846TIP3    H180953   6.422   3.442   3.320  1.8237 -1.4748 -0.4452
19846TIP3    H280954   6.350   3.337   3.237 -0.0806 -0.1274 -0.5634
19847TIP3   OH280955   6.693   1.209  13.514  0.0144 -0.5879  0.2799
19847TIP3    H180956   6.744   1.143  13.562 -0.5331 -1.9341 -0.9088
19847TIP3    H280957   6.618   1.226  13.570  0.8157  0.0188  1.1954
19848TIP3   OH280958   1.940   2.440   5.941  0.0058  0.1036  0.7770
19848TIP3    H180959   2.021   2.478   5.908 -0.2201 -0.0714 -0.0215
19848TIP3    H280960   1.917   2.494   6.016 -0.7213  2.1096 -0.7805
19849TIP3   OH280961   3.412   3.179  11.244  0.5683 -0.3476  0.3772
19849TIP3    H180962   3.451   3.092  11.230  3.2867  0.8323 -0.0974
19849TIP3    H280963   3.388   3.208  11.156  0.9923 -0.0894  0.3395
19850TIP3   OH280964   5.192   3.360  14.909  0.3157 -0.0434 -0.4604
19850TIP3    H180965   5.218   3.339  14.819  0.6294 -0.5748 -0.2514
19850TIP3    H280966   5.161   3.277  14.945  0.1018  0.1889 -0.1081
19851TIP3   OH280967   3.892   2.965   1.631 -0.2527  0.2037 -0.2114
19851TIP3    H180968   3.929   2.906   1.565  0.1844  0.0512  0.1676
19851TIP3    H280969   3.874   2.910   1.706 -3.4098 -0.2096 -1.1173
19852TIP3   OH280970   2.696   0.989  11.723 -0.2544 -0.2293  0.6717
19852TIP3    H180971   2.684   1.040  11.804  2.6582 -0.9905  1.7148
19852TIP3    H280972   2.758   1.041  11.672 -0.7418 -0.5978 -0.3108
19853TIP3   OH280973   5.839   5.867   5.451  0.1988 -0.1341  0.6118
19853TIP3    H180974   5.759   5.814   5.449 -0.1590  0.3745  0.9270
19853TIP3    H280975   5.870   5.866   5.360 -0.5935  0.2753  0.3169
19854TIP3   OH280976   3.552   6.318  10.754 -0.1264 -0.0732  0.5313
19854TIP3    H180977   3.578   6.278  10.671  1.1782  1.1194  0.3330
19854TIP3    H280978   3.575   6.252  10.820  0.4746 -0.3203  0.0853
19855TIP3   OH280979   5.985   3.838  12.279  0.5158 -0.1449 -0.0275
19855TIP3    H180980   5.900   3.874  12.254  0.6937 -0.2219 -0.7681
19855TIP3    H280981   5.996   3.762  12.221  0.1175 -1.4435  1.5273
19856TIP3   OH280982   5.854   2.635   2.102 -1.0293 -0.6614  0.0479
19856TIP3    H180983   5.830   2.725   2.123 -2.0258 -0.7233 -0.7455
19856TIP3    H280984   5.823   2.583   2.176  0.3888 -0.2650  0.9544
19857TIP3   OH280985   4.930   0.842   2.344  0.5584 -0.9723 -0.2522
19857TIP3    H180986   4.868   0.898   2.392  0.5294  0.5733 -1.9944
19857TIP3    H280987   4.989   0.809   2.412 -0.0446  0.3692  0.9810
19858TIP3   OH280988   5.554   3.063  17.210  0.6986 -0.2483  0.1706
19858TIP3    H180989   5.529   3.009  17.134 -1.3275 -0.6102  1.0451
19858TIP3    H280990   5.540   3.153  17.181  0.9668 -0.3229 -0.2127
19859TIP3   OH280991   5.631   5.449  16.159 -0.2923 -0.5251  0.3322
19859TIP3    H180992   5.588   5.364  16.152 -1.5916  0.0275  1.2378
19859TIP3    H280993   5.563   5.513  16.136  1.6117  0.2377 -4.4441
19860TIP3   OH280994   1.633   0.320  12.011 -0.5522  0.2832  0.1181
19860TIP3    H180995   1.623   0.225  12.021 -1.0191  0.3164 -0.0046
19860TIP3    H280996   1.603   0.356  12.094  2.6230  0.1788  1.4322
19861TIP3   OH280997   3.799   1.069  14.535 -0.1431  0.1148  0.2369
19861TIP3    H180998   3.893   1.068  14.554 -0.0676  0.4382 -0.1355
19861TIP3    H280999   3.789   1.010  14.460 -0.1693  0.4971 -0.0589
19862TIP3   OH281000   5.026   3.463   1.989 -0.0385  0.4451 -0.1197
19862TIP3    H181001   5.002   3.383   1.941  0.8835  0.3736 -0.4841
19862TIP3    H281002   5.002   3.445   2.080 -1.2108  0.3306 -0.4379
19863TIP3   OH281003   0.515   6.172  14.440 -0.4450  0.0945 -0.3689
19863TIP3    H181004   0.439   6.124  14.474 -0.6344  1.0574  0.6329
19863TIP3    H281005   0.509   6.163  14.345 -0.3879 -1.9663 -0.2234
19864TIP3   OH281006   2.289   4.138  11.609 -0.2990  0.5613  0.1587
19864TIP3    H181007   2.244   4.177  11.684  0.9920  1.2479  0.6109
19864TIP3    H281008   2.363   4.197  11.592 -1.0832  0.9786 -2.2779
19865TIP3   OH281009   5.827   3.267   0.226 -0.0076  0.0025  0.5067
19865TIP3    H181010   5.772   3.202   0.182  0.6071  0.6902 -1.3777
19865TIP3    H281011   5.780   3.349   0.215  0.2542  0.2113  0.9706
19866TIP3   OH281012   3.506   3.690   6.528 -0.9466 -0.0807  0.1389
19866TIP3    H181013   3.560   3.614   6.503 -2.3598 -1.0476 -0.0957
19866TIP3    H281014   3.568   3.750   6.570  0.3785 -0.9832 -0.4360
19867TIP3   OH281015   2.632   4.623  11.702  0.1323 -0.4600  1.0144
19867TIP3    H181016   2.598   4.627  11.613  1.4795  1.8700  0.5092
19867TIP3    H281017   2.558   4.593  11.755 -1.4876  0.5821 -0.5497
19868TIP3   OH281018   0.061   5.560  12.671 -0.4884  0.6372 -0.1760
19868TIP3    H181019  -0.021   5.527  12.709 -1.0351  0.1241 -1.7330
19868TIP3    H281020   0.042   5.650  12.646 -0.9759  0.1662 -1.5915
19869TIP3   OH281021   5.774   0.839   4.127 -0.7503 -0.1357  0.9432
19869TIP3    H181022   5.852   0.820   4.074 -1.3760  0.2774 -0.1818
19869TIP3    H281023   5.787   0.791   4.208 -0.4561 -2.1058 -0.2059
19870TIP3   OH281024   4.649   1.727  14.081  0.2163 -0.2824  0.5207
19870TIP3    H181025   4.647   1.795  14.013 -0.7090 -1.1336 -0.3362
19870TIP3    H281026   4.557   1.707  14.098  0.4327 -0.1256  2.0192
19871TIP3   OH281027   5.875   1.755   1.326 -0.2662  0.3417  0.3734
19871TIP3    H181028   5.812   1.724   1.392 -0.1105 -0.9571 -0.0495
19871TIP3    H281029   5.959   1.718   1.355 -0.2265 -0.3910 -0.6284
19872TIP3   OH281030   3.883   6.335  16.474 -0.0703  0.0083 -0.0304
19872TIP3    H181031   3.851   6.423  16.493  2.6823  1.4140 -1.3098
19872TIP3    H281032   3.900   6.336  16.379 -1.8850 -2.6513 -0.5009
19873TIP3   OH281033   3.010   4.382  15.244  0.3427  0.5955 -0.2741
19873TIP3    H181034   3.038   4.461  15.290  0.6219  0.2084  0.2357
19873TIP3    H281035   3.080   4.319  15.260  1.2151  0.9052 -2.5380
19874TIP3   OH281036   4.092   1.411  15.464  0.0461  0.1205 -0.9510
19874TIP3    H181037   4.112   1.495  15.507 -1.4318 -0.0806  0.2304
19874TIP3    H281038   4.094   1.431  15.371  1.1802  1.1170 -0.7438
19875TIP3   OH281039   0.123   5.938   0.722  0.0791 -0.4332  0.0273
19875TIP3    H181040   0.064   6.012   0.709 -0.4129 -0.7245  0.5740
19875TIP3    H281041   0.179   5.964   0.796  0.1572 -0.4572 -0.0227
19876TIP3   OH281042   4.616   5.641  13.409  0.1245 -0.6358  0.4163
19876TIP3    H181043   4.667   5.562  13.395  0.2612 -0.4686 -0.0555
19876TIP3    H281044   4.527   5.617  13.385  0.2897 -0.4584 -0.4183
19877TIP3   OH281045   2.916   4.811   2.865 -0.2820 -0.3091 -0.2455
19877TIP3    H181046   2.989   4.869   2.887  0.3104 -0.6621 -1.1753
19877TIP3    H281047   2.878   4.787   2.949 -1.3697  2.4266  0.1310
19878TIP3   OH281048   3.334   4.734  13.720  0.1448 -0.3169 -0.0032
19878TIP3    H181049   3.289   4.819  13.722  1.9699  0.7009  0.1371
19878TIP3    H281050   3.344   4.714  13.627 -0.5506 -0.5250 -0.0330
19879TIP3   OH281051   6.471   3.440  13.897  0.2979  0.3591 -0.3705
19879TIP3    H181052   6.392   3.437  13.952  1.5092  0.0391  1.4612
19879TIP3    H281053   6.490   3.348  13.877  0.7691  0.3372  0.1195
19880TIP3   OH281054   3.775   6.425  14.289  0.6490  0.1242 -0.3719
19880TIP3    H181055   3.712   6.369  14.244  0.2277  1.0711 -0.9909
19880TIP3    H281056   3.724   6.468  14.358  1.1194 -0.7272  0.5342
19881TIP3   OH281057   2.296   0.215  13.764  0.1813 -0.0136 -0.1127
19881TIP3    H181058   2.240   0.147  13.725  0.4384 -0.0946 -0.3485
19881TIP3    H281059   2.236   0.272  13.811  0.0237 -0.7487  0.5999
19882TIP3   OH281060   3.803   3.479   2.990  0.2437  0.6581 -0.5311
19882TIP3    H181061   3.810   3.472   2.895 -0.5099  1.0569 -0.6249
19882TIP3    H281062   3.710   3.468   3.009  0.3223  1.0125  0.1174
19883TIP3   OH281063   3.047   4.795  15.758  0.2349  0.2420 -0.1715
19883TIP3    H181064   3.094   4.769  15.837  0.1465  1.3931  0.2869
19883TIP3    H281065   3.083   4.740  15.688  0.7320 -0.3754  0.5587
19884TIP3   OH281066   0.775   1.441   2.522 -0.3964 -0.3284  0.0629
19884TIP3    H181067   0.782   1.362   2.469  0.2363  0.0931 -0.5018
19884TIP3    H281068   0.865   1.470   2.534 -0.5459 -0.2597  1.1541
19885TIP3   OH281069   3.416   5.622   5.218  0.1247  0.1166  0.2202
19885TIP3    H181070   3.399   5.711   5.188 -0.4303 -0.1462 -0.2552
19885TIP3    H281071   3.432   5.572   5.138  0.5459 -0.1942  0.4912
19886TIP3   OH281072   5.511   0.143   4.784 -0.4626 -0.1535  0.2768
19886TIP3    H181073   5.588   0.187   4.748  0.3926  0.1248  2.3043
19886TIP3    H281074   5.513   0.056   4.744  0.0865  0.3213 -0.7692
19887TIP3   OH281075   6.310   3.194   4.860  0.8260  0.5883 -0.3495
19887TIP3    H181076   6.367   3.228   4.792  2.3397 -0.7826  0.1808
19887TIP3    H281077   6.368   3.148   4.921 -0.6845  0.2355  0.9093
19888TIP3   OH281078   4.892   0.085  15.014 -0.6644 -0.6434 -0.2785
19888TIP3    H181079   4.863   0.149  14.949  2.4970  1.1607 -0.0939
19888TIP3    H281080   4.863   0.120  15.098  0.4761  0.2477 -0.2384
19889TIP3   OH281081   3.589   5.658   2.076 -0.2116  0.1646 -0.4592
19889TIP3    H181082   3.614   5.658   1.983  0.5262 -0.9381 -0.2827
19889TIP3    H281083   3.669   5.633   2.122  0.6466  4.5557  0.8873
19890TIP3   OH281084   6.324   6.743  10.572  0.4925 -0.1486 -0.2649
19890TIP3    H181085   6.409   6.731  10.528  0.7169 -1.1686  0.4185
19890TIP3    H281086   6.270   6.671  10.540  0.4642 -0.5539  0.6657
19891TIP3   OH281087   0.361   3.593  12.567 -0.1647  0.3526 -0.0130
19891TIP3    H181088   0.339   3.501  12.555  0.6573  0.2343 -0.6906
19891TIP3    H281089   0.401   3.597  12.654  1.6178 -0.3075 -0.7469
19892TIP3   OH281090   1.532   4.875  11.442 -0.1734 -0.2042 -0.1009
19892TIP3    H181091   1.487   4.818  11.379  0.6568  0.0783 -0.9718
19892TIP3    H281092   1.621   4.841  11.445 -0.1813 -0.1717  0.8977
19893TIP3   OH281093   5.314   2.434   5.115  0.4134  0.7611  0.3769
19893TIP3    H181094   5.296   2.498   5.046 -0.2091  2.2564  1.8703
19893TIP3    H281095   5.310   2.484   5.197 -0.2496 -1.2116  1.6285
19894TIP3   OH281096   5.262   3.011  15.730  0.0187  0.9420 -0.4116
19894TIP3    H181097   5.287   2.948  15.797  0.5679  1.9974  0.4036
19894TIP3    H281098   5.171   3.034  15.752 -0.2670  0.2743 -0.8562
19895TIP3   OH281099   1.264   0.899  13.476  0.8724 -0.1147 -0.4934
19895TIP3    H181100   1.174   0.931  13.483  0.6078 -0.6134 -1.4667
19895TIP3    H281101   1.260   0.809  13.508  1.2270  0.1644  0.3701
19896TIP3   OH281102   4.362   2.305  10.758 -0.6991 -0.3571 -0.4567
19896TIP3    H181103   4.404   2.389  10.739  0.7768 -1.4808 -2.6050
19896TIP3    H281104   4.269   2.319  10.739 -0.3340  0.5660 -1.6295
19897TIP3   OH281105   1.950   2.697  14.995  0.0138 -0.7461 -0.1589
19897TIP3    H181106   1.979   2.609  15.020 -1.8486 -0.7013  2.6546
19897TIP3    H281107   1.855   2.689  14.988 -0.7432  1.6435  3.9545
19898TIP3   OH281108   1.270   2.950  16.778 -0.3012 -0.4160  0.1155
19898TIP3    H181109   1.233   2.869  16.742  0.4516  0.1624 -2.1210
19898TIP3    H281110   1.196   2.993  16.821 -0.7248 -2.2351  1.3239
19899TIP3   OH281111   1.217   3.104   3.783 -0.4904 -0.0512  0.0346
19899TIP3    H181112   1.233   3.101   3.689 -1.7294  0.1115 -0.2033
19899TIP3    H281113   1.280   3.043   3.821  0.3350  0.2302 -0.8465
19900TIP3   OH281114   6.319   6.066   1.899 -0.3815  0.3260 -0.0708
19900TIP3    H181115   6.402   6.072   1.851  1.2036  1.1197  2.5594
19900TIP3    H281116   6.289   6.157   1.906 -1.2477  0.0901 -0.5916
19901TIP3   OH281117   0.283   6.588   2.133  0.4902 -0.4354  0.1539
19901TIP3    H181118   0.303   6.494   2.131 -1.4159 -0.8890  0.4365
19901TIP3    H281119   0.315   6.617   2.219 -0.5029 -1.2425  0.8215
19902TIP3   OH281120   5.137   2.659   4.557 -0.3709  0.2516  0.6234
19902TIP3    H181121   5.162   2.663   4.649 -0.4688 -0.1674  0.6723
19902TIP3    H281122   5.176   2.578   4.525  0.2188  0.7229  0.1217
19903TIP3   OH281123   1.419   5.727   5.421  0.3830 -0.0355 -0.7064
19903TIP3    H181124   1.453   5.654   5.369 -1.6434  0.4261 -2.8881
19903TIP3    H281125   1.352   5.687   5.477  1.8683 -0.3679  0.9241
19904TIP3   OH281126   4.638   1.884   4.988  0.5595 -0.1838  0.2476
19904TIP3    H181127   4.544   1.868   5.001  0.4309  0.7087  0.5066
19904TIP3    H281128   4.661   1.830   4.913 -0.6131  1.0501 -1.0689
19905TIP3   OH281129   4.248   6.375  11.894  0.4477 -0.0691  0.3803
19905TIP3    H181130   4.158   6.341  11.902 -0.7592  2.7146 -0.1616
19905TIP3    H281131   4.288   6.321  11.826 -0.8364 -1.3391  0.5843
19906TIP3   OH281132   2.751   1.999  16.369 -0.0036  0.2998  0.4474
19906TIP3    H181133   2.807   1.996  16.447  0.0582  0.0450  0.3949
19906TIP3    H281134   2.738   2.092  16.353  0.2347  0.3592  0.5859
19907TIP3   OH281135   4.185   2.389   3.172 -0.2386 -0.3620 -0.2397
19907TIP3    H181136   4.207   2.296   3.187 -0.5355 -0.1787  1.5852
19907TIP3    H281137   4.090   2.391   3.171 -0.3820  0.2565  2.8891
19908TIP3   OH281138   5.429   6.451   4.019  0.3461 -0.1048 -0.1328
19908TIP3    H181139   5.524   6.464   4.021  0.2845  0.2627  0.8880
19908TIP3    H281140   5.394   6.538   3.999  0.2290 -0.2839 -0.7171
19909TIP3   OH281141   2.920   1.895  12.081  0.4272  0.4986 -0.6310
19909TIP3    H181142   2.977   1.885  12.005  0.7020 -1.2101 -0.2422
19909TIP3    H281143   2.850   1.953  12.050  0.8293  0.3013 -2.0129
19910TIP3   OH281144   4.076   3.701  13.107 -0.3498 -0.4056  0.0875
19910TIP3    H181145   4.013   3.693  13.178  0.1098 -0.5589  0.4840
19910TIP3    H281146   4.110   3.790  13.115 -0.6737 -0.2440 -0.2685
19911TIP3   OH281147   5.613   5.548  17.360  0.2474  0.1215  0.5250
19911TIP3    H181148   5.537   5.509  17.316  1.0934 -0.0945 -0.8117
19911TIP3    H281149   5.610   5.512  17.449 -2.3007  1.6496  1.1729
19912TIP3   OH281150   5.705   5.715  14.729 -0.3996  0.3452  0.2455
19912TIP3    H181151   5.674   5.804  14.712  0.7912  0.8595  0.6449
19912TIP3    H281152   5.776   5.702  14.666  0.1674  0.1032  0.9261
19913TIP3   OH281153   1.166   4.999   3.985 -0.3981  0.1671  0.0617
19913TIP3    H181154   1.113   5.005   4.065  0.3637  0.3812  0.5579
19913TIP3    H281155   1.110   5.036   3.917 -0.3420  1.8192  0.8676
19914TIP3   OH281156   6.344   1.523  13.470 -0.9903  0.4391 -0.2915
19914TIP3    H181157   6.391   1.602  13.496 -1.7210  0.3262  1.5982
19914TIP3    H281158   6.412   1.460  13.447 -0.2410  0.6668  1.2061
19915TIP3   OH281159   6.102   3.354   1.326 -0.8257 -0.2139  0.3199
19915TIP3    H181160   6.034   3.299   1.288 -0.7196 -0.4879  0.5244
19915TIP3    H281161   6.177   3.296   1.337 -1.4374 -0.6381  2.7003
19916TIP3   OH281162   2.459   3.727  10.611 -0.4942 -0.1079  0.3348
19916TIP3    H181163   2.412   3.644  10.606 -0.6519  0.0328 -1.2096
19916TIP3    H281164   2.541   3.712  10.563 -1.1391  0.9679 -1.2244
19917TIP3   OH281165   0.368   4.392   3.394  0.5280 -0.1172  0.1811
19917TIP3    H181166   0.439   4.449   3.421  1.9183 -1.5169 -0.4035
19917TIP3    H281167   0.385   4.374   3.302 -1.2136  0.3910 -0.2809
19918TIP3   OH281168   3.490   1.331  13.990 -0.0884  0.0397  0.2309
19918TIP3    H181169   3.528   1.296  14.070 -1.3103 -1.3875  0.2339
19918TIP3    H281170   3.546   1.298  13.920 -0.1921 -0.4495  0.3703
19919TIP3   OH281171   3.483   6.450  14.018  0.1505  0.4344  0.2856
19919TIP3    H181172   3.506   6.368  13.974  0.6742  1.0703 -0.6589
19919TIP3    H281173   3.566   6.487  14.045 -0.1387  0.2829  1.4205
19920TIP3   OH281174   0.792   0.202   4.725 -0.0262  0.4239 -0.3333
19920TIP3    H181175   0.792   0.278   4.668 -0.3587 -0.5443 -1.6770
19920TIP3    H281176   0.877   0.161   4.711 -0.4289 -0.2736 -0.7663
19921TIP3   OH281177   4.023   2.838  12.745 -0.8452  0.2864  0.3026
19921TIP3    H181178   3.999   2.904  12.810  0.9573  0.5288  0.7622
19921TIP3    H281179   3.963   2.854  12.671 -1.2569  1.6235  0.9018
19922TIP3   OH281180   4.902   1.499  13.826  0.2931  0.3767 -0.6116
19922TIP3    H181181   4.987   1.468  13.856 -0.0407 -2.9136 -2.5039
19922TIP3    H281182   4.921   1.578  13.775  1.8958  0.8002  0.5669
19923TIP3   OH281183   2.002   0.832   5.281 -0.3212  0.2676 -0.1139
19923TIP3    H181184   1.939   0.776   5.327 -1.4416  2.2797  0.9350
19923TIP3    H281185   1.985   0.920   5.316  3.4795  0.8515  0.6559
19924TIP3   OH281186   2.655   2.239   5.150 -0.5292 -0.4759 -0.2141
19924TIP3    H181187   2.680   2.283   5.069 -1.2426  0.8165  0.2349
19924TIP3    H281188   2.675   2.303   5.219 -1.6874 -0.8143  0.4575
19925TIP3   OH281189   5.054   6.445  14.867 -0.3593 -0.3779 -0.7451
19925TIP3    H181190   5.045   6.504  14.792 -1.2892  1.4492  0.7229
19925TIP3    H281191   5.064   6.359  14.828 -1.1959  0.4545 -2.9713
19926TIP3   OH281192   2.063   4.683  12.592 -0.2883 -0.1470  0.1925
19926TIP3    H181193   2.044   4.593  12.566  2.7427 -1.3091  1.5578
19926TIP3    H281194   2.081   4.678  12.686  1.5980  1.5254 -0.0141
19927TIP3   OH281195   2.907   4.366  12.983  0.0097  0.0616 -0.4149
19927TIP3    H181196   2.907   4.425  13.058  0.6486  1.3921 -1.3952
19927TIP3    H281197   2.997   4.370  12.950  0.1273 -1.6769 -0.3755
19928TIP3   OH281198   3.174   1.991   2.219  0.1535  0.2827  0.0057
19928TIP3    H181199   3.243   2.057   2.231  0.5868 -0.1935  0.1980
19928TIP3    H281200   3.191   1.955   2.132 -0.3240  0.6952 -0.2617
19929TIP3   OH281201   2.200   6.516   0.718 -0.1528 -0.4180  0.0783
19929TIP3    H181202   2.208   6.535   0.624 -0.1319  0.5318  0.2716
19929TIP3    H281203   2.107   6.496   0.730 -0.0868 -0.9191 -0.2091
19930TIP3   OH281204   1.806   2.661  16.070 -0.0997  0.0500  0.1397
19930TIP3    H181205   1.746   2.703  16.132 -0.2323  0.7506 -0.4568
19930TIP3    H281206   1.750   2.605  16.017 -0.3872  1.3132 -0.9514
19931TIP3   OH281207   1.424   1.814   4.985 -0.1078  0.4723 -0.1785
19931TIP3    H181208   1.348   1.755   4.987  0.3480 -0.1022  0.9078
19931TIP3    H281209   1.410   1.868   4.907 -1.5093  0.2157 -0.1353
19932TIP3   OH281210   5.496   6.028  12.889 -0.2432  0.3636  0.6575
19932TIP3    H181211   5.482   5.933  12.894  0.4912  0.2526  0.7652
19932TIP3    H281212   5.432   6.059  12.826  0.2270 -0.3685 -0.2034
19933TIP3   OH281213   2.255   0.920   4.053  0.8593 -0.1774 -0.3682
19933TIP3    H181214   2.253   0.929   3.957  1.2127 -1.4173 -0.5121
19933TIP3    H281215   2.333   0.969   4.080  0.5702  0.4641 -0.6710
19934TIP3   OH281216   0.543   5.363  14.979  0.4406  0.0394 -0.7568
19934TIP3    H181217   0.549   5.447  14.933 -1.1457  0.0135 -1.0704
19934TIP3    H281218   0.583   5.379  15.064  0.0020  1.1731 -0.7468
19935TIP3   OH281219   6.153   5.769   0.175  0.0283  0.0970 -0.3864
19935TIP3    H181220   6.220   5.813   0.228 -0.1510 -0.1818  0.0752
19935TIP3    H281221   6.185   5.680   0.164 -0.3467 -0.0864 -0.0161
19936TIP3   OH281222   2.041   1.418  14.509 -0.1545  0.1417 -0.4507
19936TIP3    H181223   1.990   1.477  14.453 -0.9914 -0.5288 -0.4106
19936TIP3    H281224   1.989   1.409  14.588  0.5680  0.3121  0.0566
19937TIP3   OH281225   3.906   3.798  13.963 -0.0632 -0.1431  0.3385
19937TIP3    H181226   3.893   3.764  14.051  0.0170 -0.3480  0.2701
19937TIP3    H281227   3.836   3.759  13.911 -0.1444  0.0218  0.3229
19938TIP3   OH281228   5.427   1.750   3.767  0.9908 -0.7052 -0.2989
19938TIP3    H181229   5.376   1.808   3.824  0.2022 -1.3973 -0.2802
19938TIP3    H281230   5.453   1.807   3.694  2.7074  0.3980  1.0984
19939TIP3   OH281231   2.155   5.435  14.109 -0.8166 -0.0117 -0.2105
19939TIP3    H181232   2.060   5.421  14.108 -0.7380 -0.6120 -0.0109
19939TIP3    H281233   2.169   5.507  14.048 -1.4548  0.4302  0.1501
19940TIP3   OH281234   0.714   4.555   2.178 -0.2851  0.1435  0.4880
19940TIP3    H181235   0.757   4.470   2.168 -0.4584  0.1791 -0.6003
19940TIP3    H281236   0.768   4.601   2.243  0.1932 -0.5362  0.5875
19941TIP3   OH281237   4.299   5.705  11.675 -0.1656  0.5291 -0.6514
19941TIP3    H181238   4.358   5.734  11.605 -0.7956  0.7211 -1.1171
19941TIP3    H281239   4.271   5.785  11.718 -1.8025  0.6479 -1.8531
19942TIP3   OH281240   4.938   4.512  15.916  0.0696  0.6787  0.6411
19942TIP3    H181241   5.010   4.496  15.854 -1.7373 -1.3103 -1.0986
19942TIP3    H281242   4.945   4.440  15.978  1.4628  2.3010  2.5131
19943TIP3   OH281243   0.390   5.635  16.919  0.1477 -0.6032  0.6001
19943TIP3    H181244   0.328   5.624  16.991  0.5892  1.6246  1.4192
19943TIP3    H281245   0.335   5.656  16.843 -0.1841  1.1260  1.2646
19944TIP3   OH281246   2.130   5.703  14.013 -0.6116  0.0676 -0.3786
19944TIP3    H181247   2.182   5.764  14.066 -0.4178  0.8929 -1.4872
19944TIP3    H281248   2.193   5.668  13.950 -1.1250  0.0725 -0.8928
19945TIP3   OH281249   1.118   5.627   4.582  0.3449  0.4042 -0.0252
19945TIP3    H181250   1.082   5.575   4.511  0.3786  1.0002 -0.4870
19945TIP3    H281251   1.090   5.582   4.662 -0.7805  0.4225 -0.3854
19946TIP3   OH281252   5.629   4.383   6.605 -0.5013 -0.5919  0.4987
19946TIP3    H181253   5.561   4.401   6.540  0.1971  0.8146  0.1040
19946TIP3    H281254   5.654   4.291   6.589 -1.0954 -0.5925 -0.5085
19947TIP3   OH281255   3.424   5.484   0.277  0.2337 -0.8615  0.1336
19947TIP3    H181256   3.392   5.394   0.282  0.3318 -0.9421 -0.5941
19947TIP3    H281257   3.345   5.538   0.280 -0.1263 -1.0903 -2.6600
19948TIP3   OH281258   3.490   1.550  11.034  0.0812  0.5620 -0.0965
19948TIP3    H181259   3.428   1.500  11.087 -0.8982  2.0050  0.1519
19948TIP3    H281260   3.564   1.567  11.092 -0.5109  1.1972  0.4833
19949TIP3   OH281261   6.498   4.211   1.894 -0.0267  0.0184 -0.3420
19949TIP3    H181262   6.554   4.152   1.844  0.2439  0.2715 -0.3376
19949TIP3    H281263   6.435   4.246   1.830  0.4852  0.5475 -0.5636
19950TIP3   OH281264   3.624   1.732  11.803  0.0836  0.3373  0.0557
19950TIP3    H181265   3.672   1.658  11.766  0.9706  1.2962 -0.7867
19950TIP3    H281266   3.535   1.722  11.770  0.4011  0.1018 -0.7534
19951TIP3   OH281267   2.724   2.451   5.283 -0.2534 -0.7911 -0.3360
19951TIP3    H181268   2.684   2.526   5.237 -2.7164 -2.9050 -1.9128
19951TIP3    H281269   2.696   2.460   5.374  0.0276  0.5068 -0.3570
19952TIP3   OH281270   1.781   4.204   1.872  0.1579  0.1239  0.4962
19952TIP3    H181271   1.777   4.189   1.777  1.1385  2.4975 -0.0200
19952TIP3    H281272   1.693   4.236   1.895  0.3323  0.9565  0.0572
19953TIP3   OH281273   5.607   0.454   1.900  0.0668  0.6898 -0.2692
19953TIP3    H181274   5.696   0.478   1.923 -0.9425  1.9405  2.8625
19953TIP3    H281275   5.594   0.367   1.938  0.4993 -0.4338 -2.5252
19954TIP3   OH281276   3.569   4.157  15.364  0.4200  0.0985  0.0804
19954TIP3    H181277   3.645   4.141  15.307  1.4012  0.2160  1.3175
19954TIP3    H281278   3.514   4.217  15.314  0.7807 -0.5471 -1.1349
19955TIP3   OH281279   1.945   5.110  16.033  0.0047 -0.0953  0.7958
19955TIP3    H181280   1.904   5.195  16.049  2.0040  0.6309  2.5058
19955TIP3    H281281   1.892   5.070  15.964 -2.0000  1.8078  1.1314
19956TIP3   OH281282   3.386   2.723   3.662  0.3622  0.3675  0.1228
19956TIP3    H181283   3.467   2.749   3.706  1.1042  0.7120 -1.4103
19956TIP3    H281284   3.398   2.748   3.571 -0.7417 -1.2661 -0.5131
19957TIP3   OH281285   3.504   0.512   4.570  0.2290  0.2545 -0.1517
19957TIP3    H181286   3.524   0.577   4.502  0.4402  0.2975 -0.0501
19957TIP3    H281287   3.551   0.543   4.647  0.1054  0.1277 -0.0256
19958TIP3   OH281288   6.117   4.427   3.312 -0.2133  1.0355  0.2414
19958TIP3    H181289   6.164   4.418   3.228 -0.5273 -2.0202  0.2837
19958TIP3    H281290   6.033   4.384   3.297  0.9077 -2.5272  2.8847
19959TIP3   OH281291   2.261   0.417   4.090  0.2705  0.6223  1.0027
19959TIP3    H181292   2.200   0.373   4.150  0.2583  0.5708  0.9524
19959TIP3    H281293   2.223   0.504   4.077  0.1324  0.5412  0.8588
19960TIP3   OH281294   5.258   5.434  14.162 -0.0043 -0.0780  0.0553
19960TIP3    H181295   5.337   5.484  14.182  0.4820 -1.0980  0.7776
19960TIP3    H281296   5.187   5.485  14.203  0.5821 -0.3620  1.5028
19961TIP3   OH281297   0.161   0.539  15.204  0.0546 -0.1657 -0.4486
19961TIP3    H181298   0.106   0.461  15.199  1.0367 -0.8990 -0.1477
19961TIP3    H281299   0.229   0.516  15.268  1.4420  0.2276 -1.7227
19962TIP3   OH281300   3.523   1.896  10.924  0.3448 -0.2979  0.2140
19962TIP3    H181301   3.456   1.892  10.992  0.4465 -0.3241  0.3144
19962TIP3    H281302   3.567   1.980  10.940  0.8684 -0.6474  0.6620
19963TIP3   OH281303   4.620   4.340   1.019  0.3200 -0.6226  0.1385
19963TIP3    H181304   4.576   4.356   1.102 -0.5829  1.6759 -0.7032
19963TIP3    H281305   4.711   4.364   1.034  0.2866 -0.7780  0.5990
19964TIP3   OH281306   1.453   2.993  13.802 -0.1669  0.2189  0.4208
19964TIP3    H181307   1.379   3.049  13.826  0.4054  0.5873  1.3790
19964TIP3    H281308   1.422   2.943  13.726 -1.2232  0.7165  0.5114
19965TIP3   OH281309   4.676   2.067   1.307  0.3464  0.0919 -0.8466
19965TIP3    H181310   4.654   2.037   1.218  0.8354 -2.0220 -0.3122
19965TIP3    H281311   4.657   1.992   1.363  0.1940  1.3295  0.8501
19966TIP3   OH281312   2.646   1.401   4.891  0.0785 -0.0824  0.1781
19966TIP3    H181313   2.667   1.310   4.871  1.0634  0.6821 -2.8842
19966TIP3    H281314   2.719   1.451   4.854 -0.3279  1.9760  1.9389
19967TIP3   OH281315   1.634   3.030  10.559  0.2401  0.2622  0.3494
19967TIP3    H181316   1.615   2.940  10.531  0.5103  0.4655 -0.5206
19967TIP3    H281317   1.716   3.023  10.607 -0.6219 -0.2120  1.8291
19968TIP3   OH281318   0.978   6.242  11.852 -0.2267  0.1354  0.5270
19968TIP3    H181319   0.915   6.170  11.857  0.4614 -0.7615 -2.0003
19968TIP3    H281320   0.953   6.289  11.772  1.3793  0.6427  0.2887
19969TIP3   OH281321   3.190   5.756   0.664  0.1458  0.2443 -0.2256
19969TIP3    H181322   3.220   5.833   0.617 -0.0862  0.1682 -0.5021
19969TIP3    H281323   3.115   5.786   0.715  1.8427  0.9294  2.0586
19970TIP3   OH281324   4.661   5.805  12.819 -0.5590 -0.7765 -0.1646
19970TIP3    H181325   4.661   5.715  12.789  0.0366 -0.5455 -0.8787
19970TIP3    H281326   4.616   5.802  12.903  0.5978 -1.9589  0.4571
19971TIP3   OH281327   4.844   2.718   3.844 -0.1273  0.0665  0.0762
19971TIP3    H181328   4.928   2.763   3.838 -1.9780  3.9835  0.6949
19971TIP3    H281329   4.832   2.702   3.938  1.5709 -4.4272 -0.2181
19972TIP3   OH281330   5.602   6.111  17.013 -0.4560  0.2299  0.2358
19972TIP3    H181331   5.584   6.131  17.105  0.7433 -1.6715  0.9496
19972TIP3    H281332   5.547   6.172  16.964  0.6833  2.9888  2.1667
19973TIP3   OH281333   5.509   4.658   4.073  0.0312  0.0430  0.2786
19973TIP3    H181334   5.498   4.578   4.021  2.5201  0.4484 -1.0602
19973TIP3    H281335   5.437   4.715   4.045 -0.0978 -0.6682 -0.9262
19974TIP3   OH281336   2.577   4.549   5.037  0.0459 -0.1656  0.0122
19974TIP3    H181337   2.650   4.488   5.045 -0.3721 -0.6603  0.0798
19974TIP3    H281338   2.577   4.575   4.945  0.3999 -0.0439  0.0439
19975TIP3   OH281339   2.253   2.349  11.544 -0.2878  0.0064 -0.2886
19975TIP3    H181340   2.288   2.433  11.575 -1.4319  0.3830  0.0511
19975TIP3    H281341   2.176   2.374  11.492 -0.9781 -0.8576  0.3067
19976TIP3   OH281342   5.552   2.667   2.748 -0.1266  0.0050  0.0469
19976TIP3    H181343   5.519   2.631   2.666  1.2160 -0.7551 -0.1936
19976TIP3    H281344   5.510   2.615   2.817 -1.0786  0.4934 -0.1539
19977TIP3   OH281345   2.837   2.968   5.076 -0.1798  0.6249  0.1613
19977TIP3    H181346   2.775   3.018   5.129  0.4555 -0.6223  2.1857
19977TIP3    H281347   2.803   2.878   5.077 -0.1844  0.5692 -1.6498
19978LIG     O181348   2.777   2.970  16.331  0.1557 -0.2758  0.4407
19978LIG     O281349   2.891   2.769  16.270 -0.1517  0.1954  0.4919
19978LIG     O381350   3.042   2.820  16.440 -0.0290 -0.3926 -0.3554
19978LIG     O481351   2.620   2.919  16.066 -0.2782 -0.1585 -0.0241
19978LIG     O581352   2.810   3.103  15.994  0.1162 -0.2200 -0.9515
19978LIG     O681353   2.830   2.511  16.398 -0.0311 -0.3756  0.3313
19978LIG     O781354   3.044   2.506  16.221 -0.4617 -0.4416 -0.4805
19978LIG     O881355   3.308   2.590  16.311  0.5788 -0.2733 -0.0254
19978LIG     O981356   2.607   2.644  16.227 -0.3162  0.1068 -0.5786
19978LIG    O1081357   3.043   3.116  16.328  0.4406  0.0347 -0.6171
19978LIG    O1181358   3.275   2.860  16.571 -0.3372 -0.4001  0.8973
19978LIG     C181359   2.769   2.844  16.259 -0.6750 -0.2761 -0.3626
19978LIG     C281360   2.753   2.889  16.111 -0.0298  0.7772  0.1695
19978LIG     C381361   2.843   3.016  16.100 -0.1078  0.0158 -0.0875
19978LIG     C481362   2.813   3.080  16.241 -0.3872 -0.6554  0.1128
19978LIG     C581363   2.926   2.740  16.404  0.2931 -0.5069  0.1423
19978LIG     C681364   2.943   2.588  16.427 -1.0171  0.2687  0.2601
19978LIG     C781365   3.067   2.534  16.361  0.0999 -0.1093 -0.6396
19978LIG     C881366   3.193   2.628  16.391  0.5429 -0.3646  0.5177
19978LIG     C981367   3.161   2.776  16.371  0.7133 -0.5542 -0.3792
19978LIG    C1081368   2.637   2.760  16.309 -0.4319 -0.3382 -0.6059
19978LIG    C1181369   2.922   3.180  16.299  0.0505  0.3506  0.1122
19978LIG    C1281370   3.277   2.861  16.424  0.4013  0.1689 -0.0925
19978LIG     H181371   2.790   2.804  16.051 -3.7707 -1.2338  0.4134
19978LIG     H281372   2.950   2.990  16.103  0.2439  1.4025 -0.1632
19978LIG     H381373   2.725   3.144  16.222  1.3054  1.3377 -1.5032
19978LIG     H481374   2.847   2.780  16.470 -1.3291  1.4927 -2.7862
19978LIG     H581375   2.957   2.591  16.538  2.1948  0.3171 -0.0391
19978LIG     H681376   3.096   2.436  16.404 -0.6114  0.0023  0.1010
19978LIG     H781377   3.210   2.610  16.499  0.8218 -0.3761  0.4718
19978LIG     H881378   3.138   2.802  16.266 -2.2521  0.5329  0.4340
19978LIG     H981379   2.640   2.739  16.418  0.1134 -0.9828 -0.7450
19978LIG    H1081380   2.553   2.832  16.294 -0.3549  0.1181  0.9469
19978LIG    H1181381   2.953   3.263  16.233  0.4469  1.5581  1.7575
19978LIG    H1281382   2.874   3.221  16.390  1.5137  0.7984  0.7144
19978LIG    H1381383   3.375   2.837  16.378  0.9739 -1.1738  1.6805
19978LIG    H1481384   3.255   2.961  16.382  0.0554 -0.6494 -1.9505
19978LIG    H1581385   2.600   2.856  15.996  4.8531 -0.9758 -1.1584
19978LIG    H1681386   2.718   3.086  15.971  0.4372 -0.7602 -1.8805
19978LIG    H1781387   2.842   2.501  16.304  0.5326  0.8974  0.2550
19978LIG    H1881388   2.995   2.423  16.224 -0.7272 -0.3205 -1.3146
19978LIG    H1981389   3.346   2.515  16.358  1.9032  1.0386  1.1077
19978LIG    H2081390   2.514   2.649  16.201 -1.2424  0.9160  2.5150
19978LIG    H2181391   3.023   3.079  16.414  0.4528  0.4812 -0.4192
19978LIG    H2281392   3.207   2.923  16.596 -1.1418 -0.5990 -0.6876
   6.76100   6.76100  17.38623
